Generic title
96250
    1THY      O    1   9.672   0.470   5.817  0.0824 -0.1312  0.1476
    1THY     HO    2   9.687   0.542   5.881 -1.0670  2.0136 -1.8299
    1THY    CA1    3   9.771   0.380   5.828  0.3991 -0.5458  0.7347
    1THY    CA2    4   9.753   0.254   5.773  1.1161  0.1583  0.1240
    1THY    CP1    5   9.618   0.219   5.708 -0.0318  1.0193  0.1342
    1THY    HP1    6   9.573   0.307   5.661  1.6681  1.4376 -0.7802
    1THY    CP2    7   9.620   0.103   5.607  0.8915 -0.3708 -0.3442
    1THY    HP2    8   9.690   0.119   5.523  1.8055 -0.8612  0.3147
    1THY    HP3    9   9.632   0.001   5.643 -0.4477 -0.6324 -0.5679
    1THY    HP4   10   9.526   0.113   5.550  1.1793  1.0272 -0.6287
    1THY    CP3   11   9.523   0.168   5.818 -0.0807  0.0550  0.4504
    1THY    HP5   12   9.420   0.152   5.784 -0.3621 -0.5507  1.5197
    1THY    HP6   13   9.553   0.073   5.865  0.2920  0.4209  0.9663
    1THY    HP7   14   9.501   0.237   5.901  1.8321 -0.2367  1.2513
    1THY    CA3   15   9.849   0.160   5.789  0.0178  0.8058  0.4913
    1THY    HA3   16   9.844   0.066   5.734  0.7249 -0.3475  2.3304
    1THY    CA4   17   9.973   0.191   5.846  0.4239 -0.0217 -0.2936
    1THY    HA4   18  10.048   0.113   5.848 -2.3791 -2.9390  0.8240
    1THY    CA5   19   9.992   0.319   5.894 -0.6946  0.4575  0.3140
    1THY    CM1   20  10.120   0.369   5.964  0.2569 -0.4510 -0.2042
    1THY    HM1   21  10.205   0.308   5.935  1.2940  1.0950 -0.5507
    1THY    HM2   22  10.141   0.474   5.937  0.8798  0.1952  2.4883
    1THY    HM3   23  10.098   0.358   6.071 -0.6030  0.7645 -0.2225
    1THY    CA6   24   9.889   0.411   5.893  0.2173  0.0858  0.6213
    1THY    HA6   25   9.909   0.504   5.945  1.4461  0.5512 -0.6362
    2THY      O   26   1.720   3.967   6.670  0.6597  0.3859  1.0141
    2THY     HO   27   1.750   3.921   6.750  0.1564 -0.9287  0.4617
    2THY    CA1   28   1.820   4.051   6.643  0.0866 -0.2000 -0.6444
    2THY    CA2   29   1.808   4.141   6.533  0.6186 -0.7121 -0.1021
    2THY    CP1   30   1.665   4.158   6.461  0.4801  0.5163  0.2763
    2THY    HP1   31   1.605   4.066   6.467  0.1352  0.6382 -1.0346
    2THY    CP2   32   1.584   4.255   6.546  0.0448  0.2458  0.3779
    2THY    HP2   33   1.482   4.251   6.505  0.6230 -1.8102 -0.9910
    2THY    HP3   34   1.578   4.217   6.649  1.2176 -2.2666 -0.3993
    2THY    HP4   35   1.625   4.357   6.555 -1.6093  0.8299  2.1952
    2THY    CP3   36   1.679   4.202   6.315 -0.4696  0.0818  0.3688
    2THY    HP5   37   1.746   4.133   6.262  0.2414  0.3659  0.8804
    2THY    HP6   38   1.583   4.204   6.262  0.4032  0.7001 -1.2341
    2THY    HP7   39   1.727   4.300   6.309 -2.6300  1.2348  0.6895
    2THY    CA3   40   1.921   4.220   6.493 -0.0206  0.1599  0.1232
    2THY    HA3   41   1.909   4.288   6.408  0.0535 -0.9997 -0.8455
    2THY    CA4   42   2.040   4.203   6.567 -0.0196 -0.4570 -0.7890
    2THY    HA4   43   2.126   4.266   6.544 -0.4001  0.2167 -0.3887
    2THY    CA5   44   2.043   4.122   6.685  0.7868 -0.8282 -0.1746
    2THY    CM1   45   2.164   4.135   6.775  0.0187  0.2960  0.2710
    2THY    HM1   46   2.155   4.235   6.818 -0.4502  0.5307 -0.3630
    2THY    HM2   47   2.169   4.070   6.864 -0.5676 -0.5068 -0.2677
    2THY    HM3   48   2.257   4.119   6.719 -1.3197 -1.7559 -1.5583
    2THY    CA6   49   1.934   4.040   6.718  0.2980 -0.4014 -0.0199
    2THY    HA6   50   1.932   3.987   6.813  1.1767  1.0694  0.8603
    3THY      O   51   3.782   1.546   3.491  0.6119 -0.6421  0.0330
    3THY     HO   52   3.740   1.614   3.436  3.3139 -0.0420 -1.4735
    3THY    CA1   53   3.701   1.444   3.489 -0.2509 -0.1572 -0.5484
    3THY    CA2   54   3.732   1.331   3.571 -0.3275 -0.4617 -0.9351
    3THY    CP1   55   3.847   1.338   3.680  0.3642 -0.1123 -0.1537
    3THY    HP1   56   3.934   1.387   3.637  1.3912 -2.0014 -0.3335
    3THY    CP2   57   3.789   1.390   3.805  0.0778  0.2092  1.0013
    3THY    HP2   58   3.776   1.499   3.805 -0.8011  0.1186  1.9524
    3THY    HP3   59   3.687   1.351   3.812  0.1854 -1.2450 -2.8886
    3THY    HP4   60   3.848   1.357   3.892  0.5210 -0.0917  0.5893
    3THY    CP3   61   3.902   1.196   3.705  0.1532  0.0031 -0.1783
    3THY    HP5   62   3.998   1.212   3.757 -1.4425  3.6015  2.0646
    3THY    HP6   63   3.847   1.142   3.783 -1.0098  0.9106 -0.3585
    3THY    HP7   64   3.907   1.139   3.611 -1.8816 -1.4560  0.5364
    3THY    CA3   65   3.650   1.215   3.552 -0.3922 -0.7593  0.0500
    3THY    HA3   66   3.652   1.126   3.614 -0.8825 -1.1159 -0.4291
    3THY    CA4   67   3.535   1.230   3.463  0.2196 -0.0047  0.6033
    3THY    HA4   68   3.475   1.143   3.436 -0.4149  0.5037  0.3481
    3THY    CA5   69   3.519   1.337   3.380  0.2815 -0.3508 -0.2967
    3THY    CM1   70   3.405   1.337   3.279 -0.2140  0.6818 -0.4052
    3THY    HM1   71   3.314   1.315   3.336 -0.2864  0.1707 -0.7116
    3THY    HM2   72   3.399   1.435   3.229  1.4966  0.6269 -0.7566
    3THY    HM3   73   3.428   1.261   3.204  2.6782 -2.0063  2.8797
    3THY    CA6   74   3.608   1.444   3.393  0.3376 -0.1969  0.1149
    3THY    HA6   75   3.580   1.532   3.335 -0.7241 -0.6467 -0.0788
    4THY      O   76   6.322   2.528   6.267 -0.0038  0.4765 -0.1556
    4THY     HO   77   6.381   2.474   6.323  0.0945 -1.1872 -1.7520
    4THY    CA1   78   6.220   2.446   6.229  0.7828 -0.0783 -0.1921
    4THY    CA2   79   6.108   2.491   6.155  0.1207 -0.0511 -0.0872
    4THY    CP1   80   6.093   2.635   6.108  0.2804  0.2984  0.5170
    4THY    HP1   81   6.195   2.667   6.085  0.3135 -0.7478 -0.8892
    4THY    CP2   82   6.017   2.660   5.978 -0.4069 -0.1635  0.3352
    4THY    HP2   83   6.059   2.597   5.899 -1.7679 -0.7458  0.0468
    4THY    HP3   84   5.912   2.630   5.992 -0.6796  1.3484  1.8968
    4THY    HP4   85   6.019   2.768   5.963 -1.5548 -0.0324  0.9448
    4THY    CP3   86   6.032   2.710   6.226 -0.5543 -0.2672 -0.0678
    4THY    HP5   87   5.931   2.669   6.234  0.7245 -3.4412  1.4695
    4THY    HP6   88   6.085   2.701   6.322  0.3738 -2.4600 -0.7319
    4THY    HP7   89   6.033   2.818   6.206 -0.6698 -0.6026 -2.0791
    4THY    CA3   90   5.996   2.407   6.138  0.2570  0.5258  0.4698
    4THY    HA3   91   5.910   2.452   6.089  0.2036  2.6062  2.2985
    4THY    CA4   92   5.992   2.278   6.191 -0.0001 -0.7946 -0.0449
    4THY    HA4   93   5.906   2.215   6.172  1.1998 -2.1780 -1.1242
    4THY    CA5   94   6.106   2.229   6.265 -0.2885  0.2679  0.2354
    4THY    CM1   95   6.098   2.092   6.334 -0.2208 -0.0360 -0.2379
    4THY    HM1   96   6.045   2.096   6.430 -0.5318 -0.5347 -0.3847
    4THY    HM2   97   6.042   2.027   6.266  0.4497  0.0680 -0.9083
    4THY    HM3   98   6.197   2.050   6.355 -0.9468 -0.4653  2.8220
    4THY    CA6   99   6.212   2.314   6.279  0.2414 -0.7141 -0.0853
    4THY    HA6  100   6.294   2.279   6.340  0.3332 -1.6495 -0.7335
    5THY      O  101   6.653   9.649   8.496 -0.0379 -0.0957  0.1819
    5THY     HO  102   6.740   9.607   8.504  1.5554  2.7367 -0.7427
    5THY    CA1  103   6.671   9.732   8.383 -0.0383  0.1641  0.0858
    5THY    CA2  104   6.564   9.795   8.313 -0.4900 -0.1857 -0.0313
    5THY    CP1  105   6.434   9.802   8.388 -0.3903  0.2133 -0.2782
    5THY    HP1  106   6.452   9.799   8.496 -1.7774 -2.4366 -0.0402
    5THY    CP2  107   6.342   9.930   8.349  0.5080  0.1898  0.4531
    5THY    HP2  108   6.395  10.025   8.361  1.0486 -0.0205 -0.1887
    5THY    HP3  109   6.286   9.924   8.255 -1.3952 -1.4489  1.5908
    5THY    HP4  110   6.264   9.940   8.426  0.1390  0.0429  0.1019
    5THY    CP3  111   6.344   9.680   8.349 -0.0872 -1.2641 -0.7907
    5THY    HP5  112   6.316   9.707   8.246  3.0901  2.4256 -0.9362
    5THY    HP6  113   6.409   9.592   8.342  1.1949 -0.4216  0.0281
    5THY    HP7  114   6.257   9.666   8.414 -1.0685  2.6139 -0.9990
    5THY    CA3  115   6.576   9.859   8.184  0.7147 -0.3428  0.2558
    5THY    HA3  116   6.497   9.920   8.141  1.6311  0.4137 -0.4083
    5THY    CA4  117   6.710   9.867   8.137 -0.1298  0.0529 -0.2467
    5THY    HA4  118   6.737   9.925   8.049 -0.3820  0.0131 -0.3494
    5THY    CA5  119   6.815   9.804   8.204 -0.7199  0.1442  0.7180
    5THY    CM1  120   6.953   9.816   8.140  0.0292 -0.2444 -0.0254
    5THY    HM1  121   7.012   9.886   8.200 -0.7316 -0.2298  0.7141
    5THY    HM2  122   6.988   9.712   8.140 -2.5534 -1.1793  0.9305
    5THY    HM3  123   6.942   9.844   8.035 -0.2049 -2.3683 -0.6155
    5THY    CA6  124   6.798   9.734   8.320  0.3020 -0.6745 -0.2466
    5THY    HA6  125   6.885   9.680   8.355  0.6707 -0.9672 -1.5677
    6THY      O  126   6.342   8.074   6.823 -0.4205  0.1869 -0.0975
    6THY     HO  127   6.394   7.994   6.807 -0.5399 -0.6351  2.9830
    6THY    CA1  128   6.212   8.047   6.861  0.3062 -0.3694  0.4864
    6THY    CA2  129   6.143   8.151   6.939  0.8201  0.6978  0.5432
    6THY    CP1  130   6.205   8.292   6.943  0.0786 -0.5246 -0.5836
    6THY    HP1  131   6.311   8.286   6.971 -0.2324  0.4335  0.8579
    6THY    CP2  132   6.212   8.358   6.802 -0.1320 -0.1530 -0.4976
    6THY    HP2  133   6.255   8.458   6.813 -1.2054  0.3347 -0.6638
    6THY    HP3  134   6.271   8.312   6.722  0.1549  0.2866 -0.5414
    6THY    HP4  135   6.107   8.369   6.773 -0.1953 -0.6931 -0.4855
    6THY    CP3  136   6.154   8.381   7.058 -0.0987 -0.5582 -0.4011
    6THY    HP5  137   6.186   8.485   7.051 -0.4334 -0.4722 -0.6958
    6THY    HP6  138   6.048   8.403   7.042  0.0905  2.9670  2.0398
    6THY    HP7  139   6.181   8.358   7.162  0.3768 -0.5498 -0.5205
    6THY    CA3  140   6.018   8.113   6.997  0.7697 -0.5690  0.4466
    6THY    HA3  141   5.962   8.181   7.061  1.4309  1.7486 -1.2892
    6THY    CA4  142   5.962   7.990   6.961  0.4792  0.5968  0.5458
    6THY    HA4  143   5.869   7.954   7.004 -0.6223  2.0009 -0.5603
    6THY    CA5  144   6.031   7.893   6.884 -0.0638  0.1405  0.0646
    6THY    CM1  145   5.961   7.763   6.854 -0.7449  0.0460  0.3188
    6THY    HM1  146   6.012   7.707   6.775 -4.6928 -2.1866 -0.9791
    6THY    HM2  147   5.971   7.683   6.928 -0.6114 -0.9740 -0.7645
    6THY    HM3  148   5.855   7.771   6.825 -0.7580 -0.0028  0.3521
    6THY    CA6  149   6.161   7.922   6.842  0.4629 -0.1786 -0.6658
    6THY    HA6  150   6.213   7.846   6.785 -0.0368 -0.2133 -1.0795
    7THY      O  151   4.948   7.954   5.845  0.5778 -0.2294  0.0392
    7THY     HO  152   5.019   7.900   5.883  1.4660  0.5568 -0.4501
    7THY    CA1  153   5.017   8.032   5.755  0.4152  0.1580 -0.1453
    7THY    CA2  154   4.996   8.164   5.742  0.5088 -0.2262  0.4704
    7THY    CP1  155   4.904   8.231   5.839  0.1680  1.1856  1.0307
    7THY    HP1  156   4.837   8.160   5.889  0.1437 -0.3165 -1.0210
    7THY    CP2  157   4.989   8.300   5.941  0.2836  0.2246  0.3433
    7THY    HP2  158   4.913   8.343   6.008 -2.0007 -2.0653 -0.6080
    7THY    HP3  159   5.064   8.241   5.995  0.7972  1.2848  0.8258
    7THY    HP4  160   5.031   8.388   5.892 -2.2060  0.3148 -1.8676
    7THY    CP3  161   4.806   8.322   5.767  0.7903 -0.3613 -0.2003
    7THY    HP5  162   4.823   8.428   5.791  0.3134 -0.0398 -1.1879
    7THY    HP6  163   4.806   8.312   5.657 -0.4729  2.1191 -0.5100
    7THY    HP7  164   4.701   8.302   5.790  0.8221 -0.3473 -0.0410
    7THY    CA3  165   5.064   8.237   5.639  0.3772  0.2634 -0.1789
    7THY    HA3  166   5.042   8.341   5.619 -1.5456  0.1348  1.0706
    7THY    CA4  167   5.170   8.179   5.572  0.6815  0.1739  0.2579
    7THY    HA4  168   5.223   8.229   5.492 -0.0149  1.1972  0.4229
    7THY    CA5  169   5.209   8.047   5.600 -0.0863  0.1924  0.1044
    7THY    CM1  170   5.312   7.982   5.511  0.7132  0.0983 -0.0910
    7THY    HM1  171   5.371   8.066   5.472 -0.5804  1.2048  0.2475
    7THY    HM2  172   5.371   7.911   5.570  1.0611 -0.5448 -1.1842
    7THY    HM3  173   5.253   7.937   5.430  0.2861 -1.9220  1.2937
    7THY    CA6  174   5.125   7.975   5.686  0.5573 -0.0712  0.6151
    7THY    HA6  175   5.142   7.869   5.705 -1.0087 -0.5333 -0.3589
    8THY      O  176   0.001   2.663   0.029  0.3097  0.1697 -0.2355
    8THY     HO  177   0.032   2.571   0.028  1.5052  0.5467 -0.6088
    8THY    CA1  178   0.117   2.736   0.038  0.2742 -0.2920  0.2349
    8THY    CA2  179   0.127   2.876   0.013  0.2882  0.3012 -0.4552
    8THY    CP1  180   0.006   2.957  -0.027  0.3466 -0.6056  0.0228
    8THY    HP1  181  -0.091   2.906  -0.022 -1.1537  2.0626 -0.1247
    8THY    CP2  182  -0.004   3.078   0.070  0.3639 -0.1527  0.4626
    8THY    HP2  183  -0.111   3.102   0.080  0.4789  0.3528  0.4879
    8THY    HP3  184   0.024   3.046   0.171 -0.1714  0.3238  0.7674
    8THY    HP4  185   0.056   3.166   0.046 -0.0060  0.4506  1.6643
    8THY    CP3  186   0.011   2.995  -0.184 -0.3259 -0.0545 -0.4389
    8THY    HP5  187   0.102   3.053  -0.205  0.2434 -0.8575 -0.2074
    8THY    HP6  188  -0.002   2.905  -0.244 -1.6080 -2.5532  3.2543
    8THY    HP7  189  -0.070   3.059  -0.222 -0.7131 -0.0697  0.3366
    8THY    CA3  190   0.263   2.925  -0.001  0.2775 -0.5618  0.9447
    8THY    HA3  191   0.290   3.027  -0.023 -3.9890  0.6177  0.1467
    8THY    CA4  192   0.371   2.842   0.033 -0.0149 -0.8766  0.2069
    8THY    HA4  193   0.475   2.875   0.025  0.3262 -1.6764  1.1220
    8THY    CA5  194   0.352   2.706   0.055 -0.0343 -0.4573 -1.0536
    8THY    CM1  195   0.476   2.624   0.068 -0.9510  0.1572  0.2593
    8THY    HM1  196   0.565   2.681   0.037 -0.2449  0.0437  1.9714
    8THY    HM2  197   0.491   2.587   0.170 -0.0845  0.1538  0.1395
    8THY    HM3  198   0.479   2.534   0.007  1.2344  0.0559  0.4244
    8THY    CA6  199   0.222   2.648   0.053 -0.0019 -0.5125 -0.4373
    8THY    HA6  200   0.214   2.541   0.072  0.4541 -0.9761 -2.5262
    9THY      O  201   3.604   5.871   5.421  0.2706  0.2612  0.1543
    9THY     HO  202   3.554   5.941   5.466 -2.1299 -1.7501  0.8161
    9THY    CA1  203   3.560   5.893   5.292 -0.5454  0.3850 -0.3805
    9THY    CA2  204   3.587   5.795   5.194  0.2500 -0.1660  0.3976
    9THY    CP1  205   3.681   5.674   5.226  0.2278  1.0378 -0.2407
    9THY    HP1  206   3.703   5.677   5.334 -0.0136  1.3679 -0.1993
    9THY    CP2  207   3.610   5.533   5.189 -0.3709 -0.3079 -0.0291
    9THY    HP2  208   3.514   5.527   5.241  0.8797 -2.1828  2.2626
    9THY    HP3  209   3.596   5.521   5.081  1.5961  1.0324 -0.4868
    9THY    HP4  210   3.673   5.452   5.227  0.2667  0.5748  0.8352
    9THY    CP3  211   3.814   5.688   5.154  0.2738  0.2578  0.4447
    9THY    HP5  212   3.796   5.663   5.049 -1.6620  2.0368  0.2952
    9THY    HP6  213   3.850   5.790   5.168 -0.7623  1.0396 -2.0603
    9THY    HP7  214   3.883   5.608   5.183  0.2798 -0.5470 -1.5831
    9THY    CA3  215   3.543   5.824   5.066 -0.9043  0.0633  0.6477
    9THY    HA3  216   3.561   5.755   4.984  1.4208  1.6027 -0.2671
    9THY    CA4  217   3.474   5.942   5.042 -0.5061 -0.0490  0.3118
    9THY    HA4  218   3.436   5.961   4.942 -0.9957 -4.1470 -0.4760
    9THY    CA5  219   3.430   6.025   5.149 -0.2629  0.6812 -0.5242
    9THY    CM1  220   3.351   6.142   5.117 -0.1962  0.1913  0.1921
    9THY    HM1  221   3.265   6.121   5.052  0.3198 -1.2971 -0.0462
    9THY    HM2  222   3.307   6.182   5.209 -0.2530  1.4459 -0.3713
    9THY    HM3  223   3.411   6.220   5.071 -2.9769  2.1074 -0.4519
    9THY    CA6  224   3.478   5.999   5.277 -0.4074  0.1753  0.2070
    9THY    HA6  225   3.456   6.068   5.357 -0.3911 -0.5275  0.8263
   10THY      O  226   8.597   5.678   7.192  0.0557 -0.8259  0.1161
   10THY     HO  227   8.562   5.685   7.282 -0.6187  1.3522 -0.2572
   10THY    CA1  228   8.731   5.653   7.210  0.8921 -0.7560 -0.9845
   10THY    CA2  229   8.823   5.650   7.104 -0.6502  0.1134 -0.8702
   10THY    CP1  230   8.781   5.689   6.966  0.0812  0.5459 -0.0336
   10THY    HP1  231   8.674   5.712   6.955  0.2213  0.1859 -2.7075
   10THY    CP2  232   8.848   5.819   6.943  0.0031  0.0254 -0.0015
   10THY    HP2  233   8.828   5.854   6.841  0.9462  0.4553 -0.0494
   10THY    HP3  234   8.804   5.901   7.001  3.3313  2.4924 -0.6553
   10THY    HP4  235   8.955   5.816   6.965 -0.5051  1.0308  3.2102
   10THY    CP3  236   8.807   5.574   6.859 -0.1481 -0.5138  0.5604
   10THY    HP5  237   8.914   5.552   6.850 -0.0912  0.5261 -2.3243
   10THY    HP6  238   8.750   5.486   6.890  0.4765 -1.0630  0.1769
   10THY    HP7  239   8.759   5.608   6.766 -2.0365  0.5950  1.8683
   10THY    CA3  240   8.957   5.613   7.133  0.1877  0.0136 -0.1505
   10THY    HA3  241   9.031   5.636   7.056  0.9883 -0.0924  0.5720
   10THY    CA4  242   8.991   5.580   7.265 -0.1014 -0.2902 -0.0922
   10THY    HA4  243   9.092   5.547   7.287  1.3725  3.1050 -1.1831
   10THY    CA5  244   8.892   5.570   7.364  0.0179  0.3271  0.0419
   10THY    CM1  245   8.916   5.509   7.497 -0.2029 -0.0273  0.0196
   10THY    HM1  246   9.024   5.493   7.507 -0.4611 -1.0745  1.4667
   10THY    HM2  247   8.876   5.566   7.582 -1.1624 -1.8492  0.8498
   10THY    HM3  248   8.871   5.409   7.501 -0.3859  0.0517 -0.0364
   10THY    CA6  249   8.760   5.602   7.332 -0.8540  0.3059  0.0656
   10THY    HA6  250   8.683   5.598   7.408 -0.3696  0.7236  0.5844
   11THY      O  251   0.974   9.693   0.470 -0.1614 -0.5984 -0.6260
   11THY     HO  252   0.933   9.779   0.453  2.2533  0.6312 -0.6298
   11THY    CA1  253   1.004   9.646   0.344  0.4785  0.3292 -0.5395
   11THY    CA2  254   1.064   9.524   0.324 -0.0559  0.3413 -0.0644
   11THY    CP1  255   1.099   9.427   0.435  0.2097  0.0270 -0.4130
   11THY    HP1  256   1.074   9.472   0.532  0.4414  1.2766 -0.9140
   11THY    CP2  257   1.029   9.292   0.428 -0.3393 -0.4196 -0.2250
   11THY    HP2  258   1.056   9.233   0.515  2.7793  0.2905 -0.5742
   11THY    HP3  259   0.921   9.306   0.437 -0.6160 -1.7789 -1.1235
   11THY    HP4  260   1.050   9.251   0.328  1.0361  0.6568 -0.4162
   11THY    CP3  261   1.253   9.416   0.441 -0.0454 -0.2230  0.1300
   11THY    HP5  262   1.273   9.377   0.541  0.3983 -1.5390 -0.4444
   11THY    HP6  263   1.273   9.350   0.355  3.0886  2.0951 -1.0898
   11THY    HP7  264   1.300   9.514   0.432 -2.9694  1.1728 -1.3636
   11THY    CA3  265   1.097   9.487   0.191 -0.0408  0.1867  0.2268
   11THY    HA3  266   1.153   9.396   0.172  0.2061  0.1755  0.9488
   11THY    CA4  267   1.061   9.562   0.078  0.1940  0.3106 -0.0769
   11THY    HA4  268   1.075   9.527  -0.024  0.0866 -1.5559  0.5147
   11THY    CA5  269   1.008   9.689   0.104 -0.8528 -0.4676 -0.5414
   11THY    CM1  270   0.972   9.784  -0.005  0.4684  0.1953 -0.1210
   11THY    HM1  271   0.878   9.752  -0.052  1.1412 -0.8308 -0.8064
   11THY    HM2  272   0.951   9.888   0.022 -2.3679  0.1444 -1.6082
   11THY    HM3  273   1.049   9.789  -0.083  0.8330 -0.8233  0.1585
   11THY    CA6  274   0.975   9.731   0.237 -0.0550 -0.0229 -0.6412
   11THY    HA6  275   0.944   9.832   0.259  2.6063  0.9307 -0.9350
   12THY      O  276   0.046   5.919   4.200 -0.0142 -0.8071  0.5591
   12THY     HO  277   0.043   5.889   4.108 -0.2205 -0.3693  0.4227
   12THY    CA1  278   0.159   5.977   4.209  0.3717 -0.5639 -0.5451
   12THY    CA2  279   0.237   5.960   4.327 -0.9965 -0.3583  0.0827
   12THY    CP1  280   0.179   5.889   4.449 -0.4664 -0.7307 -0.0364
   12THY    HP1  281   0.070   5.877   4.450 -1.2246  4.1606  0.3667
   12THY    CP2  282   0.258   5.760   4.477 -0.3238  0.3494  0.8878
   12THY    HP2  283   0.247   5.688   4.395  0.7981  0.1145  0.9400
   12THY    HP3  284   0.360   5.783   4.507 -0.0672  1.1990 -0.5150
   12THY    HP4  285   0.214   5.714   4.566  1.1348  0.4222  1.6743
   12THY    CP3  286   0.190   5.988   4.564 -0.0496 -0.4228  0.0033
   12THY    HP5  287   0.100   5.977   4.626 -0.2039  1.2045  0.1194
   12THY    HP6  288   0.277   5.963   4.624  0.4555 -1.7634 -1.2451
   12THY    HP7  289   0.204   6.093   4.535 -0.0824  0.3559  2.5800
   12THY    CA3  290   0.370   6.024   4.335  0.4020 -0.0456  0.2099
   12THY    HA3  291   0.434   6.004   4.420 -0.1895 -1.0985  0.4275
   12THY    CA4  292   0.405   6.099   4.229 -0.3703 -0.8612  0.7045
   12THY    HA4  293   0.505   6.141   4.228 -0.1023 -1.4749 -0.4252
   12THY    CA5  294   0.329   6.109   4.109  0.1851  0.3797  0.1914
   12THY    CM1  295   0.386   6.188   3.992 -0.5317  0.1483 -0.4206
   12THY    HM1  296   0.307   6.190   3.915 -0.2321 -0.3527 -0.7458
   12THY    HM2  297   0.410   6.294   4.005  0.5545  0.0514 -1.5275
   12THY    HM3  298   0.470   6.133   3.948 -1.3575 -1.7789  0.2826
   12THY    CA6  299   0.209   6.042   4.101  0.0943  0.1087  1.1311
   12THY    HA6  300   0.149   6.061   4.012  0.2918  1.4862  1.2751
   13THY      O  301   4.549   8.587   9.282  0.1058 -0.4164  1.0897
   13THY     HO  302   4.546   8.543   9.195  0.0163  0.5764  0.5813
   13THY    CA1  303   4.678   8.556   9.323 -0.0120 -0.8911  0.4543
   13THY    CA2  304   4.760   8.642   9.400 -0.2898 -0.8322 -0.1918
   13THY    CP1  305   4.715   8.791   9.429  0.4755  0.4972 -0.0831
   13THY    HP1  306   4.606   8.798   9.418  0.2341 -1.0148  0.9831
   13THY    CP2  307   4.726   8.825   9.584 -0.4249 -0.7251 -0.2353
   13THY    HP2  308   4.679   8.923   9.592 -0.7989 -0.8530 -0.8382
   13THY    HP3  309   4.673   8.758   9.653 -1.4512  1.6263  1.3816
   13THY    HP4  310   4.832   8.829   9.613 -0.6373  0.6304  0.4298
   13THY    CP3  311   4.774   8.887   9.328  0.0988  0.1842 -0.7025
   13THY    HP5  312   4.728   8.868   9.230  1.2709 -1.5714 -0.9549
   13THY    HP6  313   4.759   8.992   9.356  0.9127  1.1735 -3.6344
   13THY    HP7  314   4.882   8.869   9.321  0.3189  1.6743 -1.6018
   13THY    CA3  315   4.892   8.609   9.435 -0.0779  0.0080 -0.7458
   13THY    HA3  316   4.946   8.671   9.506 -0.4722 -1.6189  1.0696
   13THY    CA4  317   4.947   8.485   9.393  0.2679 -0.5816  0.2608
   13THY    HA4  318   5.049   8.450   9.407  0.3120 -2.3332 -3.4067
   13THY    CA5  319   4.859   8.402   9.317 -0.2973 -0.6603 -0.4924
   13THY    CM1  320   4.909   8.274   9.263 -0.3433 -0.0116 -0.0961
   13THY    HM1  321   4.874   8.183   9.314  0.4805  0.2719  1.0144
   13THY    HM2  322   4.883   8.265   9.157  0.1750 -0.2570 -0.2040
   13THY    HM3  323   5.018   8.270   9.265 -0.3058  0.9632  0.3529
   13THY    CA6  324   4.728   8.434   9.282  0.4938 -0.1086  0.1851
   13THY    HA6  325   4.663   8.370   9.223  1.2367 -0.8715  0.1823
   14THY      O  326   6.820   4.117   9.783 -0.6386 -0.4886 -0.2702
   14THY     HO  327   6.846   4.209   9.770  2.0553 -1.3516 -1.8587
   14THY    CA1  328   6.878   4.071   9.891 -0.3330 -0.4047 -0.8993
   14THY    CA2  329   6.854   3.945   9.939 -0.0348  0.2001  0.6242
   14THY    CP1  330   6.759   3.848   9.861 -0.0892 -0.2462  0.0609
   14THY    HP1  331   6.704   3.903   9.784 -0.7490 -1.7849 -0.6097
   14THY    CP2  332   6.824   3.733   9.791  0.0486 -0.5415  0.4033
   14THY    HP2  333   6.881   3.688   9.873 -1.2547 -0.5150  1.3590
   14THY    HP3  334   6.763   3.649   9.755  0.2418  0.1094 -1.5183
   14THY    HP4  335   6.885   3.765   9.707 -1.4839  0.0690 -0.5228
   14THY    CP3  336   6.642   3.792   9.948  0.3777  0.3271 -0.1643
   14THY    HP5  337   6.586   3.711   9.898  1.1461 -0.1762 -0.2299
   14THY    HP6  338   6.688   3.736  10.030  1.2714  0.0655 -0.8212
   14THY    HP7  339   6.579   3.875   9.982 -0.9272  0.2395 -2.1677
   14THY    CA3  340   6.908   3.904  10.061 -0.2674 -0.2327  0.2036
   14THY    HA3  341   6.883   3.806  10.099  0.6132 -0.1450  1.0212
   14THY    CA4  342   6.988   3.992  10.132  0.3167  0.7966 -0.4804
   14THY    HA4  343   7.017   3.956  10.230  0.2146 -1.0821 -1.0897
   14THY    CA5  344   7.016   4.116  10.082 -0.1764  0.2443  0.7020
   14THY    CM1  345   7.096   4.214  10.157 -0.5436  0.5171 -0.1551
   14THY    HM1  346   7.085   4.318  10.124 -1.5037  0.9567  1.4491
   14THY    HM2  347   7.062   4.206  10.261 -1.9102 -2.8503 -0.7096
   14THY    HM3  348   7.200   4.179  10.155 -1.1406 -1.3864 -1.0308
   14THY    CA6  349   6.956   4.160   9.961  0.3430 -0.0471  0.4597
   14THY    HA6  350   6.975   4.261   9.926  0.2850  0.2111  1.1542
   15THY      O  351   2.772   9.546   5.712 -0.2012 -0.3687  0.4462
   15THY     HO  352   2.788   9.527   5.806  2.3684 -2.7409 -0.3268
   15THY    CA1  353   2.822   9.430   5.662  0.3903 -0.0039  0.8195
   15THY    CA2  354   2.798   9.395   5.525 -0.0441  0.2193 -0.6279
   15THY    CP1  355   2.719   9.491   5.431  0.2084  0.4212 -0.8086
   15THY    HP1  356   2.724   9.589   5.480 -0.6388  0.7432 -1.3450
   15THY    CP2  357   2.790   9.499   5.292  0.5180  0.0125 -0.2469
   15THY    HP2  358   2.742   9.577   5.232  1.3016  1.4483  0.9152
   15THY    HP3  359   2.883   9.549   5.323 -0.8255  0.3710  3.8324
   15THY    HP4  360   2.783   9.400   5.247 -0.7844 -0.3111  0.6307
   15THY    CP3  361   2.577   9.443   5.415 -0.4624 -0.1091 -0.3288
   15THY    HP5  362   2.522   9.517   5.357 -1.5081  0.0634  0.8232
   15THY    HP6  363   2.575   9.347   5.362 -1.0176  0.3405 -1.1501
   15THY    HP7  364   2.529   9.442   5.514 -2.4502  2.8156 -1.1222
   15THY    CA3  365   2.842   9.270   5.485  0.3874  0.3470  0.0009
   15THY    HA3  366   2.826   9.228   5.386 -3.2601 -0.7825  0.9031
   15THY    CA4  367   2.910   9.186   5.574 -0.6956 -0.4176  0.6437
   15THY    HA4  368   2.934   9.084   5.546  1.7918  0.4454 -0.6500
   15THY    CA5  369   2.935   9.223   5.707  0.2293 -0.6185 -0.1466
   15THY    CM1  370   3.000   9.130   5.805  0.6880 -0.1362 -0.3866
   15THY    HM1  371   2.929   9.060   5.852 -0.8167  1.7108  0.2305
   15THY    HM2  372   3.081   9.072   5.760 -0.1478 -1.1488 -0.6235
   15THY    HM3  373   3.034   9.186   5.893  2.5637  1.5740 -2.1086
   15THY    CA6  374   2.888   9.349   5.750  0.3790  0.8240 -0.0927
   15THY    HA6  375   2.913   9.388   5.849 -0.7103  0.2396  0.4307
   16THY      O  376   9.344   3.332   3.772  0.0510  0.1019 -0.5629
   16THY     HO  377   9.365   3.245   3.810 -1.6715 -1.0669 -2.1256
   16THY    CA1  378   9.388   3.427   3.852  0.1163 -0.2474 -0.1960
   16THY    CA2  379   9.327   3.556   3.865  0.2691  0.3385  0.1883
   16THY    CP1  380   9.192   3.595   3.798  0.9616  0.3230 -0.0158
   16THY    HP1  381   9.134   3.504   3.814 -1.8854  2.3917  3.1328
   16THY    CP2  382   9.104   3.691   3.874  0.3462 -0.1399 -0.2833
   16THY    HP2  383   9.088   3.659   3.978 -2.0991  0.6973 -0.3492
   16THY    HP3  384   9.156   3.787   3.888 -0.6120  0.1332  1.9045
   16THY    HP4  385   9.005   3.697   3.827  0.5016  0.4184 -0.5517
   16THY    CP3  386   9.199   3.639   3.652  0.0987  0.9309  0.4675
   16THY    HP5  387   9.249   3.736   3.644 -0.1430  1.0953  0.9131
   16THY    HP6  388   9.255   3.559   3.602  0.1447  1.6944 -0.7343
   16THY    HP7  389   9.100   3.630   3.607  0.6604 -0.8080 -0.5362
   16THY    CA3  390   9.401   3.654   3.933  0.0331  0.1375  0.0699
   16THY    HA3  391   9.375   3.759   3.919  3.4506  0.9728 -1.2129
   16THY    CA4  392   9.518   3.623   4.003 -0.2884 -0.7652 -0.2545
   16THY    HA4  393   9.571   3.700   4.059 -0.6625 -0.0156 -0.9077
   16THY    CA5  394   9.568   3.497   3.995 -0.0965 -0.5522  0.4707
   16THY    CM1  395   9.701   3.461   4.060  0.5395 -0.0991  0.1814
   16THY    HM1  396   9.673   3.462   4.166  2.8287  0.4826  0.8299
   16THY    HM2  397   9.725   3.356   4.040  0.9299  0.1767 -0.8333
   16THY    HM3  398   9.775   3.538   4.039 -1.6866  1.3142 -3.3572
   16THY    CA6  399   9.498   3.398   3.924  0.2221 -0.1967 -0.1316
   16THY    HA6  400   9.543   3.301   3.905  2.5986  1.2076 -2.3770
   17THY      O  401   6.994   0.811   7.818  0.3961  0.2930  0.1665
   17THY     HO  402   6.937   0.809   7.897 -1.0926  1.3236 -0.8346
   17THY    CA1  403   6.969   0.924   7.753 -0.0400  0.5061 -0.1664
   17THY    CA2  404   7.075   0.997   7.689 -0.1265  1.0028 -0.4448
   17THY    CP1  405   7.218   0.935   7.689  0.5199  0.6864  0.4184
   17THY    HP1  406   7.211   0.841   7.744 -0.8051  0.2177 -0.4964
   17THY    CP2  407   7.243   0.896   7.545 -0.2465  0.1918  0.0706
   17THY    HP2  408   7.243   0.976   7.471 -1.1420  0.0802 -0.0558
   17THY    HP3  409   7.346   0.859   7.547  0.3112  1.6880  1.0466
   17THY    HP4  410   7.168   0.821   7.516 -1.5266  1.3297  0.3845
   17THY    CP3  411   7.328   1.028   7.744 -0.3583 -0.4649  0.0701
   17THY    HP5  412   7.421   0.971   7.751  0.0769  0.1075 -0.8259
   17THY    HP6  413   7.339   1.122   7.689 -1.4883 -0.8140 -0.8049
   17THY    HP7  414   7.299   1.056   7.846 -1.2740  0.9499 -0.5520
   17THY    CA3  415   7.044   1.107   7.611  0.0737  0.8010  0.2373
   17THY    HA3  416   7.121   1.161   7.559  0.3033 -0.2136 -0.5056
   17THY    CA4  417   6.914   1.158   7.618 -0.8137  0.9151  0.9876
   17THY    HA4  418   6.887   1.243   7.556  0.2507  0.1335 -0.6023
   17THY    CA5  419   6.811   1.087   7.674  0.0805  0.0857 -0.1652
   17THY    CM1  420   6.671   1.127   7.669 -0.8132 -0.1109  0.0285
   17THY    HM1  421   6.608   1.079   7.593 -0.1187  2.5679 -2.4251
   17THY    HM2  422   6.632   1.115   7.771 -0.0569 -1.1451  0.2144
   17THY    HM3  423   6.670   1.233   7.642 -0.5425  0.1771  1.0964
   17THY    CA6  424   6.842   0.967   7.743  0.4798 -0.1261  0.3384
   17THY    HA6  425   6.761   0.915   7.793  1.7322 -1.6744  0.8103
   18THY      O  426   2.927   3.185   0.585  0.1427 -0.3514 -0.5947
   18THY     HO  427   2.996   3.119   0.605  0.1251 -1.9995 -4.8430
   18THY    CA1  428   2.958   3.237   0.464 -0.0017 -0.4075  0.2727
   18THY    CA2  429   2.881   3.339   0.404  0.1983  0.3993  0.2836
   18THY    CP1  430   2.752   3.396   0.475  0.0555  0.8475  0.0556
   18THY    HP1  431   2.756   3.397   0.584 -1.9032 -1.3925  0.2195
   18THY    CP2  432   2.733   3.547   0.459 -0.3881 -0.2257  0.1719
   18THY    HP2  433   2.641   3.587   0.502  0.7721  1.3258  1.2771
   18THY    HP3  434   2.817   3.599   0.505 -0.5482 -0.7842  1.1230
   18THY    HP4  435   2.737   3.580   0.354  2.9120 -3.2632 -0.8991
   18THY    CP3  436   2.631   3.321   0.437 -0.3041 -0.0202  0.4048
   18THY    HP5  437   2.639   3.225   0.490 -0.0996  0.5695  1.4514
   18THY    HP6  438   2.534   3.359   0.472 -0.7347 -0.4151 -0.3155
   18THY    HP7  439   2.618   3.310   0.328 -0.1371 -1.5002  0.5098
   18THY    CA3  440   2.914   3.381   0.276  0.3065 -0.4310 -0.4437
   18THY    HA3  441   2.851   3.458   0.234 -2.0239 -0.4747  2.6305
   18THY    CA4  442   3.012   3.314   0.202  0.1068  0.1892 -0.4944
   18THY    HA4  443   3.037   3.360   0.107  1.0197 -2.0287 -1.4094
   18THY    CA5  444   3.098   3.227   0.268 -0.2492 -0.3645  0.0301
   18THY    CM1  445   3.209   3.153   0.194 -0.2081  0.1952 -0.2608
   18THY    HM1  446   3.179   3.084   0.113  0.6248  1.9426 -2.1566
   18THY    HM2  447   3.270   3.226   0.139  0.2302  0.1488  0.1652
   18THY    HM3  448   3.269   3.096   0.265 -1.4611 -1.3194 -0.3423
   18THY    CA6  449   3.069   3.179   0.401 -0.3734 -0.4087  0.2084
   18THY    HA6  450   3.132   3.113   0.460  0.9858  0.4392 -0.2499
   19THY      O  451   6.389   6.893   9.264 -0.3790  0.3099 -0.1933
   19THY     HO  452   6.479   6.881   9.232 -0.5306 -1.5490 -0.0336
   19THY    CA1  453   6.311   6.793   9.210 -0.0194 -0.0491  0.2917
   19THY    CA2  454   6.170   6.793   9.219 -0.0845 -0.4784  0.3656
   19THY    CP1  455   6.085   6.900   9.289 -0.1359 -0.5762 -0.7643
   19THY    HP1  456   6.146   6.977   9.338  0.4313 -0.2545 -1.9525
   19THY    CP2  457   5.989   6.974   9.190  0.1863 -0.9316  0.8108
   19THY    HP2  458   6.043   7.059   9.147 -2.8902  0.4517 -0.6394
   19THY    HP3  459   5.952   6.920   9.103  1.9398 -1.2469  0.2186
   19THY    HP4  460   5.908   7.021   9.249 -0.1611  0.5463 -0.7637
   19THY    CP3  461   6.013   6.840   9.408 -0.0279  0.5429 -0.0877
   19THY    HP5  462   5.952   6.752   9.383  0.8253 -0.2634  0.6262
   19THY    HP6  463   6.083   6.792   9.476 -0.7904  0.3806  0.6001
   19THY    HP7  464   5.966   6.917   9.470  1.3855  1.7314 -0.4564
   19THY    CA3  465   6.099   6.690   9.156  0.3199  0.6048  0.2575
   19THY    HA3  466   5.993   6.672   9.164  0.4674 -0.0160  0.9271
   19THY    CA4  467   6.169   6.594   9.090  0.0732  0.5147  0.0604
   19THY    HA4  468   6.124   6.505   9.048  0.2238  0.0734  0.8153
   19THY    CA5  469   6.310   6.593   9.086  1.2338 -0.3003 -0.2605
   19THY    CM1  470   6.381   6.486   9.013 -0.3277  0.3250 -0.0329
   19THY    HM1  471   6.403   6.509   8.908  1.2174  1.9721  0.5870
   19THY    HM2  472   6.484   6.466   9.047 -1.2984 -4.4111  0.8516
   19THY    HM3  473   6.330   6.390   9.025 -1.4512  0.7058 -1.5038
   19THY    CA6  474   6.380   6.700   9.148 -0.1700  0.0900  0.1817
   19THY    HA6  475   6.487   6.696   9.131 -0.4905 -1.3430 -2.0418
   20THY      O  476   5.014   6.115   7.974 -0.2793  0.2758 -0.2179
   20THY     HO  477   5.014   6.190   8.037  0.6087 -0.6131  0.8736
   20THY    CA1  478   4.891   6.102   7.920 -0.0542  0.0494 -0.0659
   20THY    CA2  479   4.877   6.050   7.788 -0.3520  0.1405  0.2599
   20THY    CP1  480   5.009   6.023   7.708 -0.0713  0.7579 -1.0902
   20THY    HP1  481   5.101   6.051   7.760 -0.1235  1.8428 -1.5594
   20THY    CP2  482   5.012   5.869   7.668  0.1386 -0.0421 -0.3559
   20THY    HP2  483   5.017   5.817   7.764  1.3881  0.7419  0.0227
   20THY    HP3  484   4.925   5.848   7.603  0.4558  0.6979 -1.0448
   20THY    HP4  485   5.104   5.845   7.614  0.3279 -2.7377  1.0086
   20THY    CP3  486   5.014   6.102   7.578  0.4157  0.2819 -0.0304
   20THY    HP5  487   4.915   6.103   7.531  1.5440  2.7422 -2.6393
   20THY    HP6  488   5.042   6.204   7.607  2.4447 -0.6563  1.5738
   20THY    HP7  489   5.092   6.067   7.510 -1.2282  0.1887 -1.9760
   20THY    CA3  490   4.751   6.033   7.731 -0.3369  0.3848  0.4911
   20THY    HA3  491   4.740   5.995   7.630  0.7540  0.1951  0.4314
   20THY    CA4  492   4.639   6.061   7.815 -0.2846 -0.2278  0.3172
   20THY    HA4  493   4.539   6.046   7.775  0.1193  0.9133 -1.2477
   20THY    CA5  494   4.654   6.115   7.942 -0.2318 -0.4308 -0.2341
   20THY    CM1  495   4.532   6.134   8.030  0.1923  0.3815  0.5078
   20THY    HM1  496   4.567   6.179   8.123  1.5681 -0.0069  0.2008
   20THY    HM2  497   4.468   6.195   7.965  0.4099  1.2896  1.1296
   20THY    HM3  498   4.487   6.036   8.053  0.1715  0.1869 -0.3051
   20THY    CA6  499   4.784   6.123   7.999  1.3368 -0.2027  0.2531
   20THY    HA6  500   4.789   6.156   8.103 -1.1668 -1.6189  0.9125
   21THY      O  501   8.119   1.265   4.927  0.1470  0.3229 -0.2821
   21THY     HO  502   8.041   1.245   4.873  0.9386 -0.6527 -1.1291
   21THY    CA1  503   8.217   1.208   4.862 -0.5750 -0.1501 -0.2798
   21THY    CA2  504   8.351   1.201   4.902 -0.7208  0.4601 -0.0500
   21THY    CP1  505   8.392   1.272   5.032  0.1461  0.6101  0.0450
   21THY    HP1  506   8.319   1.351   5.054 -0.3696  0.4701 -1.0700
   21THY    CP2  507   8.377   1.178   5.158 -1.0227  0.0342  0.3112
   21THY    HP2  508   8.450   1.097   5.143  1.5690  2.5163 -1.8542
   21THY    HP3  509   8.403   1.234   5.248 -0.0661  1.4871 -0.8144
   21THY    HP4  510   8.283   1.124   5.167 -0.1646 -1.7629 -0.7978
   21THY    CP3  511   8.530   1.327   5.025 -0.0491 -0.5891 -0.5175
   21THY    HP5  512   8.600   1.247   5.052 -0.7611 -1.1169 -0.1946
   21THY    HP6  513   8.555   1.379   4.932 -0.1276 -3.0293 -1.9827
   21THY    HP7  514   8.532   1.406   5.101 -2.6497 -1.0476  0.1202
   21THY    CA3  515   8.444   1.144   4.813 -0.5302  0.1170 -0.6315
   21THY    HA3  516   8.549   1.139   4.841 -0.9895  0.6750  1.3394
   21THY    CA4  517   8.400   1.094   4.694  0.4296 -0.1027  0.4932
   21THY    HA4  518   8.476   1.058   4.625 -0.2986 -1.0779  0.1820
   21THY    CA5  519   8.269   1.119   4.648  0.2372  0.7351  0.4006
   21THY    CM1  520   8.228   1.081   4.512  0.0603 -0.0061  0.2515
   21THY    HM1  521   8.121   1.080   4.488 -0.1854 -1.0885  1.2725
   21THY    HM2  522   8.260   1.156   4.439 -2.2621  0.7001 -0.1180
   21THY    HM3  523   8.282   0.994   4.471  1.3214 -0.1628  2.1039
   21THY    CA6  524   8.179   1.175   4.733 -0.2777 -0.8164 -1.1321
   21THY    HA6  525   8.079   1.198   4.697  0.2387  0.3912 -1.8253
   22THY      O  526   7.846   1.079   4.888 -0.2762  0.1438  0.7132
   22THY     HO  527   7.761   1.108   4.849 -1.0659 -0.3649  1.9869
   22THY    CA1  528   7.813   0.964   4.953 -0.0946  0.3400  0.5191
   22THY    CA2  529   7.917   0.868   4.981  0.2214 -0.2892  0.1134
   22THY    CP1  530   8.059   0.913   4.989 -0.4654 -0.1920  0.0974
   22THY    HP1  531   8.074   1.021   5.001 -1.8497 -0.0098  0.2711
   22THY    CP2  532   8.146   0.850   5.107  0.4679  0.2082  0.0368
   22THY    HP2  533   8.109   0.884   5.205  0.2282  0.4998 -0.1553
   22THY    HP3  534   8.140   0.740   5.114 -2.0040  0.3826  2.7629
   22THY    HP4  535   8.249   0.884   5.114 -0.1698  2.2071  0.2075
   22THY    CP3  536   8.141   0.859   4.873  0.1246  0.4309  0.3897
   22THY    HP5  537   8.087   0.875   4.779 -0.6742  0.3062  0.8180
   22THY    HP6  538   8.236   0.913   4.879  1.8460 -2.4685  1.3386
   22THY    HP7  539   8.167   0.753   4.880 -0.5080 -0.0605 -3.1536
   22THY    CA3  540   7.871   0.734   4.998 -0.7025 -1.1453 -0.5101
   22THY    HA3  541   7.944   0.660   5.027 -0.9889 -1.0059  0.5907
   22THY    CA4  542   7.733   0.701   4.995 -0.4047 -0.1162  0.2059
   22THY    HA4  543   7.693   0.600   5.002 -2.1229  0.6511  2.2906
   22THY    CA5  544   7.639   0.806   4.994 -0.7798 -0.0053  0.3877
   22THY    CM1  545   7.495   0.778   5.029 -0.9075 -0.3740 -0.1702
   22THY    HM1  546   7.477   0.670   5.035  0.3277 -0.5691  0.3220
   22THY    HM2  547   7.461   0.828   5.121  0.2050 -1.4486  0.8587
   22THY    HM3  548   7.431   0.819   4.949 -0.4656 -0.5439 -0.6124
   22THY    CA6  549   7.681   0.931   4.952 -0.1649  0.2189 -0.0051
   22THY    HA6  550   7.597   1.001   4.942 -0.4454  0.0868  1.2985
   23THY      O  551   5.177   6.062   8.326 -0.2661 -0.0207 -0.6311
   23THY     HO  552   5.195   6.040   8.419 -1.2552 -0.4390 -0.5191
   23THY    CA1  553   5.301   6.071   8.264  0.7504 -0.0781  0.6020
   23THY    CA2  554   5.332   5.989   8.153  0.2588  0.3298 -0.2772
   23THY    CP1  555   5.229   5.876   8.103  0.0727 -0.2710 -1.0577
   23THY    HP1  556   5.126   5.910   8.118 -1.2216 -4.0817 -0.2511
   23THY    CP2  557   5.244   5.829   7.957 -0.0267  0.3650 -0.4650
   23THY    HP2  558   5.166   5.753   7.950  1.3740 -1.4729  2.2313
   23THY    HP3  559   5.235   5.907   7.880  1.7490 -0.2039 -1.3196
   23THY    HP4  560   5.340   5.779   7.938 -1.4258 -1.9177 -2.1236
   23THY    CP3  561   5.267   5.760   8.199 -0.8107  0.3246  0.8589
   23THY    HP5  562   5.375   5.745   8.206 -0.6015 -0.4092 -2.3314
   23THY    HP6  563   5.230   5.786   8.299  0.6391 -1.6655  1.9579
   23THY    HP7  564   5.220   5.663   8.181 -0.2261 -0.0120  1.1359
   23THY    CA3  565   5.456   6.014   8.091  0.1121  0.1746  0.4471
   23THY    HA3  566   5.484   5.956   8.004  1.2975  0.4482  0.6315
   23THY    CA4  567   5.544   6.117   8.142 -0.0669  0.0673  0.0970
   23THY    HA4  568   5.641   6.141   8.097  0.3410 -2.1367 -0.3066
   23THY    CA5  569   5.508   6.194   8.249 -0.5585 -0.4405 -0.0616
   23THY    CM1  570   5.596   6.313   8.297 -0.2081  0.5735  0.1368
   23THY    HM1  571   5.700   6.306   8.264 -0.6514  0.2285 -1.2699
   23THY    HM2  572   5.556   6.412   8.271 -0.0300  1.3324  2.5049
   23THY    HM3  573   5.594   6.313   8.407  0.3240  1.0182  0.1494
   23THY    CA6  574   5.389   6.170   8.312  0.3026 -0.4547 -0.1370
   23THY    HA6  575   5.374   6.220   8.407  2.1776 -0.2428  0.0758
   24THY      O  576   9.332   5.853   6.490  0.4035 -0.1740  0.1123
   24THY     HO  577   9.324   5.950   6.495 -0.8506 -0.2490 -0.2532
   24THY    CA1  578   9.212   5.794   6.465 -1.1108  0.4015 -0.3686
   24THY    CA2  579   9.208   5.662   6.426  0.1152  0.1057  0.5890
   24THY    CP1  580   9.334   5.576   6.393  0.1672  0.5730 -0.0325
   24THY    HP1  581   9.429   5.630   6.398  0.7776 -0.5489  0.8995
   24THY    CP2  582   9.350   5.462   6.494  0.4612 -0.1602 -0.5854
   24THY    HP2  583   9.334   5.492   6.598 -0.5544  0.4106 -0.8839
   24THY    HP3  584   9.275   5.383   6.478 -0.1182  0.1665  0.4077
   24THY    HP4  585   9.448   5.414   6.482  0.1498 -0.5818 -1.5397
   24THY    CP3  586   9.330   5.519   6.254  0.5782 -0.2514  0.2027
   24THY    HP5  587   9.229   5.485   6.228 -0.0468 -1.6008  3.7592
   24THY    HP6  588   9.365   5.600   6.190 -0.6948  1.1154  1.1725
   24THY    HP7  589   9.403   5.437   6.248 -0.2529 -1.2542  2.4607
   24THY    CA3  590   9.081   5.603   6.428 -0.2506  0.7685 -0.0100
   24THY    HA3  591   9.070   5.499   6.398  1.0592 -0.0305  2.0661
   24THY    CA4  592   8.964   5.674   6.447  0.3323 -0.5968  0.1141
   24THY    HA4  593   8.867   5.627   6.437 -0.0176  0.0114  0.6053
   24THY    CA5  594   8.963   5.807   6.485  0.4416  0.3300  0.0722
   24THY    CM1  595   8.837   5.874   6.519  0.5332 -0.0994 -0.5383
   24THY    HM1  596   8.757   5.864   6.444  0.2210  2.1008 -0.5616
   24THY    HM2  597   8.803   5.834   6.615  0.7155 -3.5626 -1.7884
   24THY    HM3  598   8.851   5.981   6.541 -0.7721 -0.0132 -0.0765
   24THY    CA6  599   9.095   5.866   6.500  0.6001 -0.6157 -0.1655
   24THY    HA6  600   9.094   5.970   6.531  1.3309 -0.4934 -0.5245
   25THY      O  601   6.386   6.722   7.521 -0.0418  0.0304 -0.2249
   25THY     HO  602   6.451   6.667   7.474 -0.4280  0.6399 -1.5200
   25THY    CA1  603   6.319   6.778   7.423 -0.1383  0.1586 -0.2222
   25THY    CA2  604   6.205   6.854   7.443  0.7939  0.4961 -0.2995
   25THY    CP1  605   6.150   6.882   7.584  0.1944  0.0442 -0.7954
   25THY    HP1  606   6.220   6.853   7.663 -0.4080  0.6350 -0.0397
   25THY    CP2  607   6.120   7.037   7.605 -0.0594  0.8411  0.3092
   25THY    HP2  608   6.208   7.092   7.569  0.9388 -0.8357  0.1032
   25THY    HP3  609   6.030   7.070   7.552 -1.4261 -1.9139  0.7312
   25THY    HP4  610   6.092   7.070   7.706 -0.9158  0.6585  0.1384
   25THY    CP3  611   6.024   6.793   7.596  0.3620  0.8282 -0.4245
   25THY    HP5  612   6.053   6.687   7.586  0.1548  0.7085  0.1490
   25THY    HP6  613   5.966   6.808   7.688  0.7472  2.0055 -0.3657
   25THY    HP7  614   5.953   6.815   7.516 -1.8942  0.1066  1.2482
   25THY    CA3  615   6.144   6.921   7.332  0.2148 -0.3754 -0.3023
   25THY    HA3  616   6.060   6.989   7.342  0.6055 -0.2319  3.6440
   25THY    CA4  617   6.197   6.897   7.201 -0.0204  0.6041  0.2901
   25THY    HA4  618   6.153   6.943   7.113 -1.1757 -1.1641 -0.1059
   25THY    CA5  619   6.314   6.817   7.180  0.0253 -0.4835  0.5585
   25THY    CM1  620   6.353   6.795   7.032  0.0270 -0.1276  0.4232
   25THY    HM1  621   6.417   6.879   7.004 -0.8203  0.9091  1.4836
   25THY    HM2  622   6.396   6.695   7.022 -1.8821 -1.0618  1.0406
   25THY    HM3  623   6.261   6.789   6.972  1.1526 -1.0034 -1.2836
   25THY    CA6  624   6.374   6.756   7.293 -0.1684  0.9933 -0.2682
   25THY    HA6  625   6.454   6.682   7.281  0.5977  1.1204  3.1259
   26THY      O  626   6.562   3.475   4.632  0.6875  0.1020  0.1400
   26THY     HO  627   6.522   3.414   4.567 -0.2530  0.4670  0.3580
   26THY    CA1  628   6.505   3.460   4.755 -0.0165 -0.0157 -0.1382
   26THY    CA2  629   6.555   3.544   4.859  0.5874 -0.1588 -0.5883
   26THY    CP1  630   6.657   3.660   4.824  0.6866  0.0877 -0.0372
   26THY    HP1  631   6.636   3.685   4.720 -0.5619 -1.6286 -0.2548
   26THY    CP2  632   6.624   3.789   4.912 -0.7236  0.2531  0.8635
   26THY    HP2  633   6.521   3.825   4.903 -0.6903  0.3554  0.8973
   26THY    HP3  634   6.643   3.762   5.016 -1.5209 -1.2347  0.6578
   26THY    HP4  635   6.698   3.863   4.878 -1.1807 -0.0034 -0.7901
   26THY    CP3  636   6.799   3.622   4.859 -0.7737 -0.5339 -0.6418
   26THY    HP5  637   6.845   3.574   4.771  2.8632 -0.4770  1.0147
   26THY    HP6  638   6.865   3.708   4.873 -2.2969  0.8171 -1.5879
   26THY    HP7  639   6.806   3.560   4.950 -1.3564  1.5371  0.8972
   26THY    CA3  640   6.509   3.524   4.989 -0.1445  0.5569  0.4280
   26THY    HA3  641   6.549   3.595   5.061  2.2671  1.0623 -1.2842
   26THY    CA4  642   6.419   3.415   5.010 -0.0643  0.5709 -0.5660
   26THY    HA4  643   6.388   3.404   5.113  1.0416  2.3318 -0.0075
   26THY    CA5  644   6.364   3.339   4.902 -0.5507 -0.1287 -0.1285
   26THY    CM1  645   6.265   3.230   4.937 -0.3350 -0.0126  0.0739
   26THY    HM1  646   6.178   3.229   4.870  0.9135  0.1861 -1.6154
   26THY    HM2  647   6.314   3.132   4.936  0.7752  0.4964 -2.3716
   26THY    HM3  648   6.224   3.244   5.038 -4.3695 -2.1229 -1.0787
   26THY    CA6  649   6.412   3.364   4.775 -0.3847  0.8457 -0.4643
   26THY    HA6  650   6.373   3.295   4.701  0.2030  1.0035 -0.9255
   27THY      O  651   7.659   1.251   4.328 -0.4731  0.2678  0.6028
   27THY     HO  652   7.721   1.176   4.331  0.0850  0.2762 -3.6745
   27THY    CA1  653   7.735   1.366   4.300 -0.0858 -0.1860 -0.4214
   27THY    CA2  654   7.682   1.501   4.312  0.1993  0.1213 -0.2941
   27THY    CP1  655   7.530   1.518   4.332  0.1652 -0.3685  0.2631
   27THY    HP1  656   7.479   1.427   4.298  0.6916 -0.7580  0.5211
   27THY    CP2  657   7.501   1.556   4.471 -0.0254  0.1067 -0.1720
   27THY    HP2  658   7.393   1.574   4.479 -0.7600 -3.5815  0.0994
   27THY    HP3  659   7.526   1.475   4.540  4.4863  0.9616 -0.5258
   27THY    HP4  660   7.564   1.638   4.508  1.0551 -0.2737 -1.1267
   27THY    CP3  661   7.469   1.610   4.225  0.6988 -0.3172 -0.9413
   27THY    HP5  662   7.518   1.708   4.236 -1.0844  0.6050 -0.6973
   27THY    HP6  663   7.492   1.568   4.127 -3.7319 -0.0238 -2.3443
   27THY    HP7  664   7.360   1.611   4.238  0.9926  1.7723  2.8948
   27THY    CA3  665   7.767   1.606   4.297  0.7712  0.9437  0.1419
   27THY    HA3  666   7.731   1.708   4.309  0.2217  1.0738 -2.0651
   27THY    CA4  667   7.908   1.579   4.272  0.1376 -0.2744 -0.2828
   27THY    HA4  668   7.966   1.667   4.247 -1.1536  0.5870 -0.3685
   27THY    CA5  669   7.954   1.452   4.258  0.0330  0.0844  0.6846
   27THY    CM1  670   8.100   1.432   4.233  0.5560 -0.4040  0.1004
   27THY    HM1  671   8.133   1.337   4.277 -0.4650 -0.4960  0.6886
   27THY    HM2  672   8.128   1.440   4.128  0.8903  0.7458  0.2677
   27THY    HM3  673   8.156   1.504   4.293 -1.6834 -0.4240  2.3657
   27THY    CA6  674   7.874   1.349   4.289  0.5447  0.9330 -0.3383
   27THY    HA6  675   7.910   1.246   4.289  0.9300  0.9751  2.6195
   28THY      O  676   2.929   2.025   0.947 -0.3616 -0.1295  0.2973
   28THY     HO  677   2.864   1.990   1.010 -0.7692  0.1831  0.0479
   28THY    CA1  678   3.054   1.993   0.993  0.0916  0.3592  0.5500
   28THY    CA2  679   3.175   2.003   0.917  0.0243 -0.2407  0.0156
   28THY    CP1  680   3.181   2.057   0.778  0.2161 -0.0517 -0.5531
   28THY    HP1  681   3.081   2.096   0.753  0.9427  1.8313 -0.7206
   28THY    CP2  682   3.282   2.172   0.770  0.2651 -0.3741 -0.6748
   28THY    HP2  683   3.388   2.142   0.768 -0.3272 -2.6092 -1.1519
   28THY    HP3  684   3.258   2.233   0.682  2.2259  1.9682  0.2929
   28THY    HP4  685   3.253   2.235   0.855 -2.3012 -1.3909 -0.7164
   28THY    CP3  686   3.208   1.954   0.671 -0.6995  0.3194 -0.1024
   28THY    HP5  687   3.210   2.009   0.576 -1.5555  1.5435  0.5687
   28THY    HP6  688   3.308   1.916   0.693 -0.6475  0.1622 -0.5916
   28THY    HP7  689   3.132   1.875   0.660 -0.3696 -0.0595  0.2871
   28THY    CA3  690   3.296   1.969   0.979  0.0558  0.4052  0.4287
   28THY    HA3  691   3.388   1.968   0.922  1.0212 -1.2166  1.9314
   28THY    CA4  692   3.291   1.942   1.115 -0.4873 -0.4065 -0.7266
   28THY    HA4  693   3.379   1.908   1.168 -0.7835  1.6726  1.2194
   28THY    CA5  694   3.171   1.940   1.190  0.0541  0.0422 -1.3088
   28THY    CM1  695   3.174   1.919   1.337 -0.8033 -0.2802  0.0030
   28THY    HM1  696   3.275   1.887   1.365  0.1051 -0.2207 -2.9032
   28THY    HM2  697   3.153   2.017   1.383  0.6044 -0.5338  1.2697
   28THY    HM3  698   3.094   1.848   1.358 -0.0314 -1.2164 -0.1377
   28THY    CA6  699   3.053   1.978   1.129  0.3879 -0.0095 -0.3206
   28THY    HA6  700   2.958   1.978   1.181 -0.6050  1.5983 -2.0204
   29THY      O  701   8.283   7.742   6.452  0.0112 -0.2056  0.0035
   29THY     HO  702   8.231   7.737   6.534  0.6791  1.0982  0.5433
   29THY    CA1  703   8.349   7.866   6.452  0.1868  0.0918  0.0064
   29THY    CA2  704   8.448   7.892   6.357 -0.3517 -0.7739 -0.9746
   29THY    CP1  705   8.492   7.778   6.265  0.4027  0.2309  0.4216
   29THY    HP1  706   8.461   7.679   6.301  0.8620 -0.0652  0.0180
   29THY    CP2  707   8.426   7.802   6.125 -0.2132 -1.0257 -0.5058
   29THY    HP2  708   8.455   7.724   6.053  1.4371 -0.6491 -0.2809
   29THY    HP3  709   8.318   7.791   6.141 -0.1159 -2.5577 -0.7263
   29THY    HP4  710   8.456   7.897   6.082  1.4714  0.1578  2.9294
   29THY    CP3  711   8.643   7.778   6.243 -0.5217 -0.3012  0.5729
   29THY    HP5  712   8.691   7.729   6.328 -3.1289 -2.4935  0.9234
   29THY    HP6  713   8.662   7.713   6.156 -1.9750  0.4685 -0.3792
   29THY    HP7  714   8.685   7.877   6.220  1.2268 -0.6019  2.2875
   29THY    CA3  715   8.496   8.029   6.348  0.2283  1.0577  0.6883
   29THY    HA3  716   8.578   8.057   6.283 -0.1137  0.3134 -0.0822
   29THY    CA4  717   8.441   8.129   6.431  0.1498 -0.0248 -0.4231
   29THY    HA4  718   8.485   8.228   6.442  1.2087 -0.4732 -0.5000
   29THY    CA5  719   8.338   8.098   6.519  0.0074  0.8357  1.0439
   29THY    CM1  720   8.281   8.205   6.609 -0.3068 -0.2131  0.0205
   29THY    HM1  721   8.204   8.251   6.546 -2.2582 -1.9531  1.0075
   29THY    HM2  722   8.237   8.153   6.696  1.9482 -0.6540  0.9767
   29THY    HM3  723   8.348   8.286   6.639 -1.1911  0.5727 -0.1022
   29THY    CA6  724   8.292   7.965   6.528 -0.2028  0.2883 -0.1907
   29THY    HA6  725   8.224   7.935   6.606 -1.0589 -0.7534 -1.3181
   30THY      O  726   4.365   1.853   8.529  0.0558  0.1205  0.4356
   30THY     HO  727   4.417   1.850   8.447 -0.0769 -1.9980  0.3837
   30THY    CA1  728   4.451   1.870   8.631  0.1584  0.1318 -0.5622
   30THY    CA2  729   4.409   1.868   8.764 -0.5655 -0.6346 -0.1917
   30THY    CP1  730   4.262   1.857   8.793 -1.0241  0.5701 -0.1320
   30THY    HP1  731   4.196   1.862   8.706 -1.8996 -0.9726  0.4105
   30THY    CP2  732   4.229   1.725   8.863 -0.2975  0.4128 -0.1955
   30THY    HP2  733   4.281   1.709   8.959 -0.6026  2.2143  0.3074
   30THY    HP3  734   4.127   1.717   8.902 -1.2993  1.4323 -2.4533
   30THY    HP4  735   4.261   1.646   8.793  1.7222  0.3480  0.7394
   30THY    CP3  736   4.222   1.973   8.898 -0.8161  0.0980 -0.6367
   30THY    HP5  737   4.262   2.071   8.869 -0.1724 -0.2050 -0.8049
   30THY    HP6  738   4.113   1.969   8.909 -1.3131  1.3256 -4.0707
   30THY    HP7  739   4.260   1.956   8.999 -0.4590 -0.0634 -0.7967
   30THY    CA3  740   4.506   1.905   8.866 -0.2012 -0.3340  0.1004
   30THY    HA3  741   4.488   1.914   8.972  1.6089  1.4329  0.3120
   30THY    CA4  742   4.639   1.931   8.834  0.8806  0.4270  0.2735
   30THY    HA4  743   4.706   1.947   8.918 -0.3807  2.3695  0.9924
   30THY    CA5  744   4.674   1.933   8.700  0.0999 -0.2551 -0.2263
   30THY    CM1  745   4.813   1.964   8.666 -0.6308 -0.1223 -0.0669
   30THY    HM1  746   4.840   1.969   8.560  0.5096 -0.9986  0.1484
   30THY    HM2  747   4.837   2.062   8.710 -1.3193 -0.4785  1.1526
   30THY    HM3  748   4.877   1.881   8.698 -0.1336 -1.1733 -3.4136
   30THY    CA6  749   4.580   1.906   8.600 -0.2051 -0.4774  0.4054
   30THY    HA6  750   4.609   1.888   8.497 -2.3311  3.5005 -1.1422
   31THY      O  751   5.830   5.463   7.683 -0.0257 -0.1538 -0.0788
   31THY     HO  752   5.913   5.483   7.637  1.0703  0.7424  2.1338
   31THY    CA1  753   5.790   5.573   7.742 -0.2099 -0.5665 -0.4053
   31THY    CA2  754   5.707   5.573   7.849 -0.2506  0.5450 -0.5403
   31THY    CP1  755   5.664   5.450   7.918 -0.1920 -0.3688 -0.0246
   31THY    HP1  756   5.688   5.357   7.866  2.1311 -0.6961  1.5077
   31THY    CP2  757   5.723   5.426   8.059  0.4179  0.1625  0.6347
   31THY    HP2  758   5.683   5.334   8.104 -0.0073  0.5621  1.0924
   31THY    HP3  759   5.831   5.417   8.049  0.3493  1.2447 -1.6634
   31THY    HP4  760   5.703   5.512   8.124 -1.8319 -0.6668  1.1580
   31THY    CP3  761   5.507   5.443   7.938 -0.1815 -0.7963 -0.1929
   31THY    HP5  762   5.465   5.344   7.958 -1.5052  0.0280  1.2362
   31THY    HP6  763   5.469   5.510   8.016 -2.1529  1.4867 -2.8841
   31THY    HP7  764   5.457   5.478   7.847  0.8473 -0.2008 -0.5581
   31THY    CA3  765   5.669   5.697   7.903  0.8211  0.2714 -0.0447
   31THY    HA3  766   5.601   5.706   7.988  1.1282 -0.1787  0.2572
   31THY    CA4  767   5.713   5.813   7.847  0.8847 -0.4814 -0.2068
   31THY    HA4  768   5.679   5.910   7.880  2.6599  0.2224 -0.3233
   31THY    CA5  769   5.795   5.817   7.741  0.0615 -0.0916  0.6840
   31THY    CM1  770   5.842   5.949   7.674  0.2290  0.3007  0.2687
   31THY    HM1  771   5.800   5.970   7.574  0.7588  3.1099  0.5484
   31THY    HM2  772   5.815   6.027   7.746  0.0357 -0.5707  1.1416
   31THY    HM3  773   5.950   5.946   7.657  0.0624 -0.1494 -0.7729
   31THY    CA6  774   5.833   5.692   7.686  0.5034 -0.5993  0.5949
   31THY    HA6  775   5.892   5.701   7.595 -0.4270  1.1450  0.1254
   32THY      O  776   3.288   1.830   8.978  0.0037 -0.4227  0.6493
   32THY     HO  777   3.236   1.910   8.998  1.8463  0.3054  3.1636
   32THY    CA1  778   3.346   1.779   9.086 -0.0362  0.4087 -0.4159
   32THY    CA2  779   3.461   1.702   9.076  0.4000 -0.0958  0.2696
   32THY    CP1  780   3.518   1.670   8.942 -0.1710  0.0188  0.4324
   32THY    HP1  781   3.441   1.664   8.865 -1.0967 -1.3125  1.4156
   32THY    CP2  782   3.628   1.767   8.893  0.8857  0.2772  0.3874
   32THY    HP2  783   3.587   1.859   8.851 -1.3655 -1.2198 -0.9349
   32THY    HP3  784   3.697   1.789   8.975  0.2966 -3.9938  2.3218
   32THY    HP4  785   3.678   1.716   8.809 -2.8333 -1.5494 -0.9382
   32THY    CP3  786   3.582   1.527   8.944 -0.7711  0.0704 -0.3829
   32THY    HP5  787   3.678   1.507   8.992 -1.0383 -1.7818 -0.5731
   32THY    HP6  788   3.514   1.459   8.996 -0.0351 -0.7325 -0.4660
   32THY    HP7  789   3.596   1.499   8.839  0.5279 -1.4525  0.1611
   32THY    CA3  790   3.533   1.670   9.190  0.5172 -0.0815 -0.3522
   32THY    HA3  791   3.628   1.618   9.186  0.6181 -0.0880  1.2035
   32THY    CA4  792   3.486   1.715   9.313  0.3862  0.7353  0.1943
   32THY    HA4  793   3.547   1.686   9.398  0.3537  0.6394  0.1838
   32THY    CA5  794   3.367   1.790   9.319 -0.1435 -0.1293  0.1475
   32THY    CM1  795   3.322   1.846   9.450 -0.3281  0.2077 -1.0299
   32THY    HM1  796   3.267   1.940   9.446 -1.4271 -0.1774  2.0023
   32THY    HM2  797   3.253   1.774   9.498  1.3577 -1.7475 -1.3896
   32THY    HM3  798   3.405   1.867   9.518 -0.8995  0.2021 -0.3158
   32THY    CA6  799   3.299   1.829   9.204 -0.5083 -0.2243 -0.7417
   32THY    HA6  800   3.210   1.890   9.214 -1.3153 -1.5690  0.9818
   33THY      O  801   9.885   5.550   7.651 -0.4419 -0.5762  0.7499
   33THY     HO  802   9.876   5.502   7.567  0.2427  0.5636  0.0005
   33THY    CA1  803   9.761   5.589   7.692  0.2108  0.2447 -0.3875
   33THY    CA2  804   9.737   5.670   7.806  0.2527 -0.1571 -0.0529
   33THY    CP1  805   9.840   5.688   7.912 -0.0846  0.4376 -0.0415
   33THY    HP1  806   9.933   5.637   7.886 -1.9613 -3.0702 -0.4379
   33THY    CP2  807   9.861   5.845   7.935 -0.4410  0.4082 -0.1683
   33THY    HP2  808   9.863   5.889   7.834  2.1447 -2.4837 -1.5266
   33THY    HP3  809   9.779   5.883   7.998 -0.6229  0.0208 -0.1649
   33THY    HP4  810   9.955   5.849   7.990  0.1706 -1.8914 -0.9327
   33THY    CP3  811   9.799   5.634   8.051 -0.0502 -0.3079  0.3789
   33THY    HP5  812   9.701   5.669   8.085  0.3079  1.9992 -0.7496
   33THY    HP6  813   9.781   5.526   8.042 -1.0306 -0.0969 -0.4634
   33THY    HP7  814   9.871   5.664   8.127  1.1306  0.0634 -0.8541
   33THY    CA3  815   9.609   5.724   7.824 -0.1940 -0.0558  0.2323
   33THY    HA3  816   9.578   5.778   7.913 -1.2650  0.2334 -0.2977
   33THY    CA4  817   9.511   5.697   7.724 -0.3516  0.1108  0.4244
   33THY    HA4  818   9.410   5.733   7.740 -0.3971  0.2316 -0.1404
   33THY    CA5  819   9.538   5.615   7.614 -0.2789  0.2473 -0.4816
   33THY    CM1  820   9.431   5.579   7.521  0.0747 -0.3351 -0.2836
   33THY    HM1  821   9.431   5.662   7.449 -0.1553 -0.5350 -0.5143
   33THY    HM2  822   9.462   5.490   7.464 -0.1907 -0.3205 -0.4507
   33THY    HM3  823   9.337   5.554   7.571 -1.0579  1.3880 -1.4074
   33THY    CA6  824   9.666   5.566   7.597  1.3142  0.1302  0.7826
   33THY    HA6  825   9.689   5.505   7.510  0.4447  0.0775  0.5799
   34THY      O  826   1.620   4.619   9.567  0.4351 -1.1226  0.3668
   34THY     HO  827   1.651   4.711   9.564 -1.9953 -0.2531 -0.9867
   34THY    CA1  828   1.726   4.553   9.620 -0.0880 -0.5584 -0.0014
   34THY    CA2  829   1.724   4.415   9.642  0.2457 -0.3266  0.0575
   34THY    CP1  830   1.610   4.329   9.587  0.8351  0.1448  0.2317
   34THY    HP1  831   1.573   4.375   9.495 -2.4693 -1.5213  0.5753
   34THY    CP2  832   1.658   4.189   9.551  0.2965  0.2697 -0.5387
   34THY    HP2  833   1.746   4.187   9.486  1.1347  0.6901  0.5672
   34THY    HP3  834   1.679   4.122   9.635 -0.3486  3.1046  2.0289
   34THY    HP4  835   1.584   4.135   9.490  0.3338 -0.6445  0.2136
   34THY    CP3  836   1.495   4.310   9.680 -0.4173  0.3229 -1.0679
   34THY    HP5  837   1.452   4.404   9.717  0.7909  0.1898  0.8423
   34THY    HP6  838   1.419   4.248   9.631 -1.7053  0.6658  0.3845
   34THY    HP7  839   1.524   4.251   9.768 -1.2412 -1.3467 -1.8782
   34THY    CA3  840   1.842   4.353   9.684  0.2012  0.3216  0.5217
   34THY    HA3  841   1.849   4.245   9.697 -1.3206  0.2049  0.4763
   34THY    CA4  842   1.960   4.421   9.721 -0.7031 -0.7167 -0.4395
   34THY    HA4  843   2.050   4.374   9.759  0.3416  1.0725 -0.6115
   34THY    CA5  844   1.951   4.555   9.708  0.3913 -0.3412  0.2763
   34THY    CM1  845   2.081   4.635   9.753  0.5485  0.4813  0.1731
   34THY    HM1  846   2.165   4.564   9.756 -0.5893 -0.8738  0.9122
   34THY    HM2  847   2.098   4.731   9.702  0.1746  1.0587  1.1158
   34THY    HM3  848   2.066   4.652   9.860 -2.5672 -1.0253  0.0640
   34THY    CA6  849   1.842   4.626   9.649 -0.3041  0.0290  0.1148
   34THY    HA6  850   1.852   4.732   9.629  0.1840 -0.1832 -0.7960
   35THY      O  851   4.936   4.960   5.571  0.7947 -0.5356  0.1672
   35THY     HO  852   4.989   4.892   5.616 -1.0962 -0.6404  2.4107
   35THY    CA1  853   4.873   5.030   5.668  0.5208 -1.2393  0.0552
   35THY    CA2  854   4.858   5.166   5.655 -0.0777 -0.6570  0.1373
   35THY    CP1  855   4.910   5.235   5.523 -0.0846 -0.4769 -0.1572
   35THY    HP1  856   5.004   5.188   5.492  0.1370  1.0147 -1.9382
   35THY    CP2  857   4.804   5.205   5.414 -0.3980 -0.2831 -0.2261
   35THY    HP2  858   4.703   5.222   5.454 -0.3203  0.1347 -0.2105
   35THY    HP3  859   4.811   5.268   5.325 -0.9654  1.0703  0.6559
   35THY    HP4  860   4.816   5.100   5.386 -1.1794 -0.6825  0.8572
   35THY    CP3  861   4.931   5.384   5.538 -0.8691  0.5735 -0.1487
   35THY    HP5  862   4.839   5.441   5.519 -1.5086 -0.7914 -1.4036
   35THY    HP6  863   4.969   5.410   5.637 -0.6690 -0.7776  0.1493
   35THY    HP7  864   5.017   5.416   5.478 -1.6208 -0.4353 -1.8553
   35THY    CA3  865   4.795   5.237   5.757 -0.0291  0.0229  0.4587
   35THY    HA3  866   4.784   5.345   5.759 -1.2759 -0.0861  0.4328
   35THY    CA4  867   4.743   5.161   5.868  0.2402 -0.2289  0.5123
   35THY    HA4  868   4.684   5.209   5.946  0.9537 -2.0999  2.2666
   35THY    CA5  869   4.765   5.028   5.875  0.0115 -0.6888  0.7241
   35THY    CM1  870   4.714   4.952   5.989  0.0462  0.4618 -1.0015
   35THY    HM1  871   4.607   4.957   6.008  0.0162 -2.7641  0.2473
   35THY    HM2  872   4.752   4.849   5.986 -1.4260 -0.1507  0.1196
   35THY    HM3  873   4.762   4.996   6.078 -0.3474 -0.2590 -0.4215
   35THY    CA6  874   4.826   4.959   5.776 -0.7903 -0.7967  0.9380
   35THY    HA6  875   4.837   4.851   5.776  1.8873 -0.6226 -0.9836
   36THY      O  876   6.925   9.630   9.646  0.4536 -0.4458  0.6016
   36THY     HO  877   6.908   9.574   9.568 -0.9738 -1.0711  1.3290
   36THY    CA1  878   7.046   9.679   9.641 -0.2137  0.1882  1.0488
   36THY    CA2  879   7.119   9.709   9.757  1.6368 -0.1740 -0.0704
   36THY    CP1  880   7.070   9.686   9.898  0.4718 -0.2212  0.4435
   36THY    HP1  881   6.995   9.606   9.903 -1.1636  1.0289 -2.0389
   36THY    CP2  882   7.179   9.639   9.996  0.4735  0.1135  0.5211
   36THY    HP2  883   7.134   9.563  10.061 -0.2631  0.6349  0.6313
   36THY    HP3  884   7.264   9.590   9.947  0.8403  1.1174  0.1304
   36THY    HP4  885   7.220   9.724  10.052 -2.2341  1.6251  0.3495
   36THY    CP3  886   7.007   9.819   9.950 -0.7706 -0.7525  0.4666
   36THY    HP5  887   7.075   9.904   9.938  1.1057 -2.4663 -1.8419
   36THY    HP6  888   6.918   9.831   9.887 -0.1406 -0.3069 -0.3392
   36THY    HP7  889   6.971   9.799  10.052  0.2261 -0.1306  0.9485
   36THY    CA3  890   7.250   9.757   9.735 -0.2632  0.1118  0.5567
   36THY    HA3  891   7.309   9.782   9.823 -0.3372 -0.0474  0.6519
   36THY    CA4  892   7.298   9.795   9.605 -0.3497  0.0581 -0.0152
   36THY    HA4  893   7.392   9.848   9.595 -0.7778  1.1150  1.2920
   36THY    CA5  894   7.215   9.779   9.492 -0.4393  0.3219 -0.0538
   36THY    CM1  895   7.257   9.819   9.356 -0.1343 -0.2046 -0.5715
   36THY    HM1  896   7.301   9.919   9.345  1.8361 -1.1605 -2.1763
   36THY    HM2  897   7.348   9.762   9.331  1.7736  1.0858  2.7553
   36THY    HM3  898   7.180   9.819   9.278 -0.2302  0.7135 -0.4795
   36THY    CA6  899   7.093   9.711   9.510  0.4182 -0.3503  0.6696
   36THY    HA6  900   7.030   9.713   9.422 -0.0993  0.7879  1.0422
   37THY      O  901   6.964   7.772   8.634 -0.2600  0.3076  0.4010
   37THY     HO  902   6.966   7.864   8.666 -0.2094  0.5822 -0.3760
   37THY    CA1  903   6.990   7.692   8.741  0.1456 -0.3905  0.4854
   37THY    CA2  904   6.918   7.578   8.763  0.0916  0.2076 -0.2697
   37THY    CP1  905   6.805   7.541   8.673  0.5669 -0.4821  0.0945
   37THY    HP1  906   6.815   7.588   8.575 -0.6359 -0.0753  0.1512
   37THY    CP2  907   6.792   7.393   8.652  0.1947  0.6884  0.2162
   37THY    HP2  908   6.887   7.359   8.610  0.6148  3.1868 -1.0388
   37THY    HP3  909   6.746   7.346   8.740  0.2836 -1.0950 -0.6309
   37THY    HP4  910   6.719   7.372   8.573 -0.2292  1.4626  0.3936
   37THY    CP3  911   6.666   7.598   8.725  0.1072  0.7062  0.0557
   37THY    HP5  912   6.592   7.577   8.647  0.8401  1.7851 -0.9601
   37THY    HP6  913   6.635   7.543   8.815 -3.3695  1.0767 -0.7762
   37THY    HP7  914   6.675   7.704   8.753  0.1956  0.5492  0.6384
   37THY    CA3  915   6.947   7.504   8.882 -0.3243 -0.4955  0.5070
   37THY    HA3  916   6.902   7.410   8.911  0.6148 -0.7350  1.2581
   37THY    CA4  917   7.058   7.541   8.963 -0.1892 -0.0771 -0.2448
   37THY    HA4  918   7.089   7.479   9.047 -2.4975 -0.5875  0.2776
   37THY    CA5  919   7.130   7.659   8.940 -0.0071 -0.1832  0.8557
   37THY    CM1  920   7.242   7.699   9.030 -0.3139 -0.0642  0.2081
   37THY    HM1  921   7.307   7.619   9.067 -1.4152 -0.7541  0.6917
   37THY    HM2  922   7.305   7.782   8.996  1.9075 -0.6608  2.5556
   37THY    HM3  923   7.195   7.752   9.114  0.0848  0.5006  0.0832
   37THY    CA6  924   7.089   7.734   8.834  0.3008 -0.7114 -0.5888
   37THY    HA6  925   7.142   7.828   8.824  2.0563 -1.3013  2.0339
   38THY      O  926   7.421   1.306   2.913 -0.6990 -0.2629  0.5573
   38THY     HO  927   7.494   1.340   2.858 -1.2034 -0.2952 -0.1386
   38THY    CA1  928   7.378   1.193   2.845 -0.5687  0.0894  0.9224
   38THY    CA2  929   7.247   1.155   2.835  0.0845  0.3560 -0.3567
   38THY    CP1  930   7.144   1.233   2.914  0.0840 -0.2671 -1.0088
   38THY    HP1  931   7.172   1.339   2.911  0.0943 -0.1820  0.9438
   38THY    CP2  932   6.996   1.219   2.859  0.3384 -0.5706 -0.3938
   38THY    HP2  933   6.997   1.216   2.750 -0.3755  1.8376 -0.5253
   38THY    HP3  934   6.944   1.131   2.899  0.7165 -0.4204  0.4520
   38THY    HP4  935   6.941   1.311   2.882  1.0715 -0.2913  0.3072
   38THY    CP3  936   7.140   1.189   3.057  0.4144 -1.0085 -0.0470
   38THY    HP5  937   7.091   1.091   3.067 -0.0523 -0.8243 -0.4624
   38THY    HP6  938   7.243   1.185   3.094  0.8646 -1.4103 -1.3076
   38THY    HP7  939   7.080   1.259   3.116  0.4532  1.3397 -2.5791
   38THY    CA3  940   7.211   1.043   2.759  0.2650  0.5161  0.2707
   38THY    HA3  941   7.110   1.005   2.767 -0.2144  2.0307  2.0888
   38THY    CA4  942   7.318   0.967   2.699  0.0414 -0.1302 -0.5443
   38THY    HA4  943   7.298   0.875   2.646  1.7638 -0.7372 -0.1885
   38THY    CA5  944   7.451   1.011   2.710 -0.5740  0.6079 -0.4743
   38THY    CM1  945   7.572   0.940   2.643  0.4551  0.2798 -0.3678
   38THY    HM1  946   7.528   0.852   2.593 -0.2115  0.5195 -0.2228
   38THY    HM2  947   7.617   1.001   2.564  1.0955 -1.9035 -1.7908
   38THY    HM3  948   7.650   0.909   2.713 -1.1274 -2.3179  0.4012
   38THY    CA6  949   7.481   1.121   2.780  0.2603 -0.0187  0.3191
   38THY    HA6  950   7.582   1.154   2.800 -0.3199  2.5914 -0.5788
   39THY      O  951   0.672   0.706   2.278 -0.1196  0.2183 -0.3267
   39THY     HO  952   0.726   0.778   2.315  1.7327 -2.4713  2.8141
   39THY    CA1  953   0.590   0.755   2.174  0.0839  0.2833  0.5256
   39THY    CA2  954   0.549   0.673   2.062  0.4164  0.6141  0.0573
   39THY    CP1  955   0.615   0.532   2.049  0.2755  0.6617 -0.1540
   39THY    HP1  956   0.684   0.510   2.130 -0.0890 -1.1186 -0.2918
   39THY    CP2  957   0.499   0.430   2.048 -0.3124  0.0917  0.5524
   39THY    HP2  958   0.449   0.431   1.950  0.6319  0.7984  0.0629
   39THY    HP3  959   0.542   0.330   2.058  0.0128  0.3554  1.8917
   39THY    HP4  960   0.426   0.463   2.123 -0.3132 -1.4023  1.2477
   39THY    CP3  961   0.698   0.523   1.917  0.7416 -0.0214  0.6645
   39THY    HP5  962   0.738   0.421   1.907  2.4062  0.6572  0.2070
   39THY    HP6  963   0.637   0.544   1.828  0.2729 -0.2672  0.9256
   39THY    HP7  964   0.783   0.591   1.911 -0.2595  1.1278 -2.5375
   39THY    CA3  965   0.466   0.731   1.962 -0.3256  0.7671 -0.1512
   39THY    HA3  966   0.434   0.674   1.875  0.3697  1.7812 -1.0962
   39THY    CA4  967   0.424   0.863   1.982  0.0379 -0.3038 -0.3026
   39THY    HA4  968   0.352   0.913   1.918 -0.7404  1.1875  1.6620
   39THY    CA5  969   0.450   0.936   2.099  0.3856  0.5055  0.5681
   39THY    CM1  970   0.397   1.071   2.117 -0.1768 -1.2328  0.1195
   39THY    HM1  971   0.478   1.135   2.153 -1.1328  0.0532  0.0159
   39THY    HM2  972   0.353   1.120   2.029  0.5553  0.6712  0.7667
   39THY    HM3  973   0.320   1.084   2.193 -1.3175 -0.5480 -1.1097
   39THY    CA6  974   0.537   0.879   2.194 -0.1121 -0.1473 -0.2629
   39THY    HA6  975   0.570   0.929   2.285  0.1992 -0.4262 -0.2213
   40THY      O  976   2.256   9.033   5.350 -0.5993 -0.1308 -0.1577
   40THY     HO  977   2.347   9.036   5.316 -0.1970 -0.5685  0.8374
   40THY    CA1  978   2.173   9.013   5.242 -0.4514  0.1542  0.0257
   40THY    CA2  979   2.056   9.089   5.236  0.8370  0.0055 -0.2884
   40THY    CP1  980   2.012   9.181   5.351  0.9051  0.3957  0.5414
   40THY    HP1  981   2.100   9.235   5.387  0.6567  0.4910  1.0157
   40THY    CP2  982   1.921   9.295   5.297  0.0553  1.1122 -0.5551
   40THY    HP2  983   1.913   9.368   5.378  1.0678 -0.1797  0.7685
   40THY    HP3  984   1.975   9.344   5.215  1.4799  0.8804  0.2124
   40THY    HP4  985   1.824   9.253   5.268  0.6307 -1.9124  1.4089
   40THY    CP3  986   1.951   9.105   5.470 -0.4615  0.1856  0.5054
   40THY    HP5  987   2.030   9.042   5.512  0.9194  0.0294 -2.1073
   40THY    HP6  988   1.931   9.172   5.554  1.5585  0.2122  1.0085
   40THY    HP7  989   1.862   9.045   5.449  1.0322 -1.4160 -1.7073
   40THY    CA3  990   1.976   9.064   5.121 -0.1217 -0.3199  0.1129
   40THY    HA3  991   1.875   9.105   5.114 -0.8021 -1.6936  1.3948
   40THY    CA4  992   2.024   8.984   5.013  0.2011 -0.5465 -0.6565
   40THY    HA4  993   1.954   8.971   4.931 -1.3084  0.4446  0.4027
   40THY    CA5  994   2.144   8.913   5.027 -0.0181 -0.0147 -0.0847
   40THY    CM1  995   2.198   8.817   4.923 -0.0395  0.2955 -0.1353
   40THY    HM1  996   2.187   8.710   4.944 -0.2602  0.0284 -1.4831
   40THY    HM2  997   2.151   8.850   4.829  1.4487  0.8539 -0.7089
   40THY    HM3  998   2.304   8.839   4.907 -0.0999  0.4041 -0.3939
   40THY    CA6  999   2.216   8.926   5.140  0.2342  0.5692 -0.7014
   40THY    HA6 1000   2.312   8.877   5.150 -0.8327 -1.2253  1.8338
   41THY      O 1001   3.398   5.656   5.469 -0.1396  0.8589  0.5702
   41THY     HO 1002   3.483   5.696   5.447  1.1212 -0.2269  3.0781
   41THY    CA1 1003   3.429   5.541   5.534 -0.6315 -0.0643  0.7115
   41THY    CA2 1004   3.336   5.438   5.552 -1.0564  0.5003  0.8019
   41THY    CP1 1005   3.204   5.432   5.483  0.6036 -0.2162  0.8291
   41THY    HP1 1006   3.201   5.521   5.419  0.7251 -0.2212  0.8150
   41THY    CP2 1007   3.198   5.323   5.379 -0.5038  0.1567 -0.3262
   41THY    HP2 1008   3.251   5.357   5.289  0.4026 -0.4115 -0.0286
   41THY    HP3 1009   3.256   5.239   5.420 -1.9074 -0.9020 -0.4229
   41THY    HP4 1010   3.093   5.303   5.353 -1.1045  1.4662  0.9808
   41THY    CP3 1011   3.082   5.426   5.582  0.1626 -0.1591 -0.3087
   41THY    HP5 1012   3.070   5.517   5.642  0.0878 -0.2773 -0.1438
   41THY    HP6 1013   2.996   5.419   5.515 -0.1924  1.0100 -0.0113
   41THY    HP7 1014   3.085   5.342   5.652  0.9339  2.1992  2.7540
   41THY    CA3 1015   3.378   5.330   5.637  0.4820 -0.1227 -0.7404
   41THY    HA3 1016   3.304   5.251   5.646 -2.7829  2.7271 -0.6400
   41THY    CA4 1017   3.508   5.325   5.689  0.3540 -0.1877  0.4963
   41THY    HA4 1018   3.536   5.237   5.746 -1.7499 -0.4759  1.1921
   41THY    CA5 1019   3.599   5.431   5.662  0.3198 -0.4585  0.4070
   41THY    CM1 1020   3.727   5.433   5.734 -0.2425  0.6488 -0.2517
   41THY    HM1 1021   3.805   5.480   5.673  0.0680  2.2474  1.2665
   41THY    HM2 1022   3.716   5.491   5.827 -0.3975  1.0556 -0.5226
   41THY    HM3 1023   3.764   5.342   5.783  0.7423  0.9812 -0.3499
   41THY    CA6 1024   3.556   5.539   5.583 -0.4784  0.8910 -0.2545
   41THY    HA6 1025   3.633   5.616   5.575  0.9441 -0.2581  1.4083
   42THY      O 1026   7.405   2.676   0.032 -0.1098  0.2290  0.1046
   42THY     HO 1027   7.461   2.709   0.104  0.4008 -2.6606  1.1818
   42THY    CA1 1028   7.453   2.728  -0.082  0.3904 -0.8246 -0.2523
   42THY    CA2 1029   7.420   2.682  -0.216 -0.7811  0.0034  0.8926
   42THY    CP1 1030   7.317   2.571  -0.227 -0.6366 -0.0197 -0.1294
   42THY    HP1 1031   7.280   2.543  -0.127 -0.2657 -3.3057 -0.8045
   42THY    CP2 1032   7.195   2.632  -0.300 -0.2751  1.0856 -0.7647
   42THY    HP2 1033   7.208   2.668  -0.403  1.3804 -2.0528 -1.7638
   42THY    HP3 1034   7.126   2.548  -0.311  2.5229 -1.4056 -0.3651
   42THY    HP4 1035   7.143   2.704  -0.235  1.0428  1.6407 -0.2889
   42THY    CP3 1036   7.387   2.450  -0.307 -0.6587 -0.3518 -0.5355
   42THY    HP5 1037   7.427   2.474  -0.406 -0.3412  1.4227 -0.0222
   42THY    HP6 1038   7.456   2.392  -0.245 -0.4510 -1.3445 -1.6529
   42THY    HP7 1039   7.307   2.379  -0.330 -0.9413 -0.2957  0.2292
   42THY    CA3 1040   7.488   2.742  -0.324  0.1632 -0.6366  0.2004
   42THY    HA3 1041   7.460   2.713  -0.425 -0.3213  1.0665 -0.2031
   42THY    CA4 1042   7.573   2.851  -0.301 -0.2392  0.1930 -0.1195
   42THY    HA4 1043   7.615   2.905  -0.385  0.5716  0.8293  0.6770
   42THY    CA5 1044   7.605   2.903  -0.174  0.8398 -0.7031 -0.1251
   42THY    CM1 1045   7.709   3.014  -0.155  0.2472  0.0813  0.1575
   42THY    HM1 1046   7.746   3.044  -0.254  0.8144  0.8162  0.5848
   42THY    HM2 1047   7.674   3.107  -0.108  1.1936 -0.8189  2.7940
   42THY    HM3 1048   7.789   2.977  -0.090 -0.3370  0.1526  0.9309
   42THY    CA6 1049   7.546   2.835  -0.064  0.0950 -0.1800 -0.3562
   42THY    HA6 1050   7.560   2.858   0.041 -1.0092 -0.5814 -0.1089
   43THY      O 1051   3.901   9.683   1.967 -0.2700 -0.6339  0.3650
   43THY     HO 1052   3.931   9.764   2.011  0.8908  0.7414 -2.6916
   43THY    CA1 1053   3.952   9.690   1.844 -0.0196 -0.4480 -0.1824
   43THY    CA2 1054   3.965   9.582   1.759  0.0810  0.8085  0.3580
   43THY    CP1 1055   3.907   9.448   1.805 -0.0156 -0.3229  0.1925
   43THY    HP1 1056   3.876   9.447   1.910 -0.6973 -1.1371 -0.0134
   43THY    CP2 1057   3.782   9.419   1.718 -0.0979  0.7096  0.0685
   43THY    HP2 1058   3.789   9.430   1.609  1.0627 -2.1498 -0.2369
   43THY    HP3 1059   3.751   9.314   1.727  2.1775 -0.0327 -0.1379
   43THY    HP4 1060   3.709   9.490   1.759 -1.3065 -1.1438  1.2877
   43THY    CP3 1061   4.010   9.340   1.787 -0.0237 -0.2698 -0.8447
   43THY    HP5 1062   4.049   9.322   1.686  0.7648  0.2237 -0.6360
   43THY    HP6 1063   4.092   9.366   1.855 -1.0118  2.6494 -0.6429
   43THY    HP7 1064   3.964   9.246   1.821  1.0869  0.2167  2.3158
   43THY    CA3 1065   4.021   9.596   1.627 -0.2151 -0.9949  0.4010
   43THY    HA3 1066   4.034   9.509   1.563  0.7077 -0.3519 -0.3111
   43THY    CA4 1067   4.055   9.727   1.584  0.1526 -0.1253  0.1466
   43THY    HA4 1068   4.091   9.736   1.482 -0.3025  0.9836  0.0644
   43THY    CA5 1069   4.046   9.838   1.667  0.3605 -1.0377 -0.4227
   43THY    CM1 1070   4.096   9.973   1.614  0.1302 -0.4953 -0.0204
   43THY    HM1 1071   4.053   9.989   1.515 -1.5947 -1.9099  0.4471
   43THY    HM2 1072   4.045  10.057   1.663  2.4348  1.9241 -1.5055
   43THY    HM3 1073   4.199  10.009   1.626 -0.6253  1.9026 -0.1511
   43THY    CA6 1074   3.986   9.818   1.794 -0.1743 -0.4839  0.0731
   43THY    HA6 1075   3.973   9.907   1.855  2.1491  1.6942 -2.3670
   44THY      O 1076   4.590   3.817   4.632  0.7704  0.2483 -0.1353
   44THY     HO 1077   4.547   3.800   4.547 -2.0830  1.3162  0.9706
   44THY    CA1 1078   4.709   3.758   4.633  0.4739 -0.4967  0.2753
   44THY    CA2 1079   4.757   3.677   4.741  0.2479 -0.0728 -0.2555
   44THY    CP1 1080   4.669   3.646   4.857  0.0170  0.0246 -0.7148
   44THY    HP1 1081   4.576   3.701   4.875 -1.1888 -2.5543  1.8071
   44THY    CP2 1082   4.618   3.498   4.856 -0.9007  0.6602 -0.1907
   44THY    HP2 1083   4.561   3.486   4.762 -0.1191  1.3708 -0.7722
   44THY    HP3 1084   4.700   3.427   4.843 -1.0675  0.0054  2.0758
   44THY    HP4 1085   4.561   3.464   4.943  3.3531  0.4653  2.8125
   44THY    CP3 1086   4.745   3.684   4.989  0.2958  0.5272  0.2537
   44THY    HP5 1087   4.838   3.627   4.982  1.2961  2.2445 -1.3929
   44THY    HP6 1088   4.776   3.789   4.990 -1.5463  1.1192  0.2379
   44THY    HP7 1089   4.668   3.653   5.061  0.1632 -0.4280 -0.2856
   44THY    CA3 1090   4.876   3.594   4.717 -0.0555 -0.0937 -0.0944
   44THY    HA3 1091   4.911   3.515   4.783 -0.1926  0.5239  0.7440
   44THY    CA4 1092   4.950   3.617   4.598  0.7834  0.0793 -0.6253
   44THY    HA4 1093   5.032   3.550   4.573 -0.0081 -1.0747 -0.1998
   44THY    CA5 1094   4.913   3.721   4.514 -0.0737 -0.0069  0.6088
   44THY    CM1 1095   4.990   3.745   4.388 -0.0271  0.0881 -0.3048
   44THY    HM1 1096   5.089   3.700   4.404 -0.3778  0.0594  2.2845
   44THY    HM2 1097   4.943   3.699   4.301 -2.1502  0.5457  0.5310
   44THY    HM3 1098   4.988   3.849   4.354  0.4619 -1.0853 -4.5073
   44THY    CA6 1099   4.793   3.788   4.521  0.7161 -0.1932 -0.2039
   44THY    HA6 1100   4.774   3.866   4.448  1.4988 -0.5775 -0.8353
   45THY      O 1101   3.429   8.487   6.784 -0.1607  0.1947 -0.1368
   45THY     HO 1102   3.483   8.434   6.845 -0.6580 -0.6821 -0.4430
   45THY    CA1 1103   3.512   8.555   6.692  0.1907  0.1802 -0.2253
   45THY    CA2 1104   3.461   8.620   6.577 -0.8419  0.0292  0.2924
   45THY    CP1 1105   3.316   8.619   6.525  0.4592 -0.2485 -0.1269
   45THY    HP1 1106   3.249   8.576   6.600  2.5555 -1.3128  1.2136
   45THY    CP2 1107   3.262   8.759   6.491 -0.1335  0.3218  0.3821
   45THY    HP2 1108   3.324   8.797   6.409 -1.6243  1.0918 -0.4409
   45THY    HP3 1109   3.156   8.762   6.465 -0.6610 -1.1472  2.1891
   45THY    HP4 1110   3.284   8.837   6.565 -1.3980  3.0778 -1.9325
   45THY    CP3 1111   3.321   8.525   6.395  0.4437 -0.5608 -0.2139
   45THY    HP5 1112   3.361   8.585   6.313  0.2373  1.1184  0.8561
   45THY    HP6 1113   3.391   8.443   6.414 -1.6169 -1.8045  3.0008
   45THY    HP7 1114   3.223   8.484   6.367  0.4139 -0.8179  0.2517
   45THY    CA3 1115   3.555   8.695   6.492 -0.3402  0.3907 -0.5836
   45THY    HA3 1116   3.524   8.746   6.401 -2.9967  1.4588  0.8021
   45THY    CA4 1117   3.689   8.700   6.536 -0.6957  0.1682 -0.9836
   45THY    HA4 1118   3.758   8.761   6.478  1.9052 -1.6688 -0.0220
   45THY    CA5 1119   3.726   8.636   6.654  0.5868  0.3014 -0.8228
   45THY    CM1 1120   3.863   8.644   6.699 -1.0310  0.0557  0.3433
   45THY    HM1 1121   3.935   8.627   6.618 -0.2726 -1.2361  1.2340
   45THY    HM2 1122   3.886   8.733   6.758  1.0960 -2.8203  4.3500
   45THY    HM3 1123   3.885   8.560   6.766 -1.4429 -1.9337 -1.9031
   45THY    CA6 1124   3.644   8.546   6.718 -0.8005  0.1018  0.0811
   45THY    HA6 1125   3.681   8.480   6.796  0.9944  1.7150  0.6898
   46THY      O 1126   3.153   0.250   7.725 -0.1396  0.0530 -0.3969
   46THY     HO 1127   3.115   0.179   7.670  1.2110  0.1532 -1.5301
   46THY    CA1 1128   3.210   0.179   7.831 -0.6163 -0.6297  0.3869
   46THY    CA2 1129   3.174   0.210   7.962 -0.5781 -0.6237  0.1304
   46THY    CP1 1130   3.069   0.324   7.975  0.2026 -0.2077  0.4705
   46THY    HP1 1131   3.004   0.321   7.888  1.5742 -0.6152 -0.5667
   46THY    CP2 1132   2.975   0.314   8.087 -0.2651 -0.0050  0.0408
   46THY    HP2 1133   2.906   0.399   8.092 -0.8267 -0.5125  1.2526
   46THY    HP3 1134   2.921   0.218   8.081  0.0193 -0.1294 -0.6495
   46THY    HP4 1135   3.028   0.306   8.182  1.5715  0.1666 -0.9228
   46THY    CP3 1136   3.137   0.468   7.991 -0.0183  0.2778  0.3857
   46THY    HP5 1137   3.224   0.481   7.926 -0.8067  1.9440 -0.4188
   46THY    HP6 1138   3.064   0.547   7.970 -0.2385  0.0730  0.3740
   46THY    HP7 1139   3.172   0.486   8.093 -2.0094  0.8722  1.0182
   46THY    CA3 1140   3.229   0.136   8.067 -0.4651  0.6182 -0.5140
   46THY    HA3 1141   3.196   0.157   8.168 -1.4775  1.7667 -1.0557
   46THY    CA4 1142   3.319   0.031   8.039  0.0438  0.7668 -0.0976
   46THY    HA4 1143   3.356  -0.034   8.117 -0.4626  2.0963  1.3040
   46THY    CA5 1144   3.363   0.012   7.914  0.1828 -0.3517 -0.8881
   46THY    CM1 1145   3.471  -0.086   7.885 -0.3517 -0.5707  0.0432
   46THY    HM1 1146   3.527  -0.120   7.973  1.1691 -2.8109 -1.6598
   46THY    HM2 1147   3.427  -0.182   7.855 -0.6368 -1.2522  2.4446
   46THY    HM3 1148   3.537  -0.050   7.805 -2.2613  0.7833 -1.0093
   46THY    CA6 1149   3.309   0.086   7.804 -0.0559 -0.4037  0.3793
   46THY    HA6 1150   3.337   0.066   7.701 -0.6985  2.0083 -0.3273
   47THY      O 1151   2.034   6.457   0.655 -0.0087  0.0220 -0.5180
   47THY     HO 1152   1.972   6.383   0.664  1.2206 -1.0114 -0.1628
   47THY    CA1 1153   2.138   6.401   0.592  0.1357  1.0253  0.6559
   47THY    CA2 1154   2.248   6.476   0.555 -0.9609  0.2502  0.8438
   47THY    CP1 1155   2.253   6.630   0.587  0.3968  0.1091 -0.0140
   47THY    HP1 1156   2.154   6.672   0.562  0.1382 -0.0720  0.6767
   47THY    CP2 1157   2.272   6.656   0.735  0.0793  0.3976 -0.0725
   47THY    HP2 1158   2.365   6.615   0.775 -0.2947  0.3724  0.7849
   47THY    HP3 1159   2.262   6.764   0.750  1.8814  0.6865 -0.7779
   47THY    HP4 1160   2.192   6.603   0.788 -0.6002  2.5038  1.0918
   47THY    CP3 1161   2.360   6.713   0.514  0.4640 -0.6429  0.2934
   47THY    HP5 1162   2.461   6.672   0.528  0.1825 -1.2922  0.4400
   47THY    HP6 1163   2.333   6.700   0.408  0.0151 -1.9932  0.5623
   47THY    HP7 1164   2.354   6.819   0.542 -0.7609 -0.4235 -0.6935
   47THY    CA3 1165   2.350   6.418   0.478 -0.5691 -0.6853  0.5359
   47THY    HA3 1166   2.430   6.483   0.443 -1.3706 -0.8536 -1.7700
   47THY    CA4 1167   2.355   6.281   0.450  0.4559  0.1049  0.5124
   47THY    HA4 1168   2.437   6.249   0.386  0.0611  1.4134 -0.7209
   47THY    CA5 1169   2.245   6.205   0.491  0.3513 -0.4443 -0.0393
   47THY    CM1 1170   2.248   6.053   0.468  0.2727 -0.0587 -0.4954
   47THY    HM1 1171   2.351   6.023   0.446  0.3828  1.3290 -2.0744
   47THY    HM2 1172   2.224   6.000   0.561  0.5951 -0.3715 -0.5868
   47THY    HM3 1173   2.183   6.021   0.385  0.3228 -1.2912 -0.0797
   47THY    CA6 1174   2.134   6.265   0.565  0.1037  0.6467  0.3027
   47THY    HA6 1175   2.050   6.201   0.589  1.2911 -0.7288  0.9542
   48THY      O 1176   8.954   6.932   8.409 -0.3469  0.1321 -0.1641
   48THY     HO 1177   8.924   7.015   8.369 -3.0486 -0.7757 -0.1753
   48THY    CA1 1178   8.959   6.840   8.308 -0.0446  0.0747 -0.4124
   48THY    CA2 1179   9.082   6.777   8.282  0.2250 -0.4746 -0.1695
   48THY    CP1 1180   9.212   6.819   8.355  1.1610  0.4405 -0.5174
   48THY    HP1 1181   9.186   6.886   8.437  2.6408 -0.8467  1.0754
   48THY    CP2 1182   9.287   6.697   8.422 -0.7526 -0.3351 -0.6857
   48THY    HP2 1183   9.386   6.727   8.458  0.3771 -1.6353 -2.5560
   48THY    HP3 1184   9.231   6.647   8.503 -0.3248  1.3028  0.6849
   48THY    HP4 1185   9.316   6.625   8.345  1.1750  1.4208 -1.7025
   48THY    CP3 1186   9.318   6.890   8.270 -0.2214  0.6554  0.0542
   48THY    HP5 1187   9.373   6.814   8.213 -1.2931 -1.6850  1.9664
   48THY    HP6 1188   9.280   6.963   8.198  3.9392  1.1339 -1.9912
   48THY    HP7 1189   9.398   6.943   8.324  0.2280  0.4029 -0.3485
   48THY    CA3 1190   9.082   6.671   8.192 -0.0007 -0.7787  0.1222
   48THY    HA3 1191   9.176   6.628   8.158 -1.0845 -1.7144 -1.9036
   48THY    CA4 1192   8.966   6.627   8.131 -0.4801  0.1092  0.4094
   48THY    HA4 1193   8.969   6.546   8.058 -0.6704 -0.1699  0.7043
   48THY    CA5 1194   8.842   6.685   8.164 -0.3693 -0.2079 -0.0876
   48THY    CM1 1195   8.707   6.643   8.103 -0.1492 -0.0253  0.6312
   48THY    HM1 1196   8.640   6.633   8.189  1.9460  1.1304  2.5113
   48THY    HM2 1197   8.657   6.707   8.029  0.2918 -1.5236 -1.0545
   48THY    HM3 1198   8.707   6.550   8.045  1.2585  0.1729  0.2891
   48THY    CA6 1199   8.839   6.791   8.257  0.0640  0.0168  0.0733
   48THY    HA6 1200   8.746   6.844   8.276  0.2481  0.1205  0.7022
   49THY      O 1201   5.622   3.750   5.806  0.1658 -0.5859 -0.0551
   49THY     HO 1202   5.672   3.811   5.748 -0.0076  0.1231  0.5294
   49THY    CA1 1203   5.710   3.685   5.877  0.3391  0.7200  0.8532
   49THY    CA2 1204   5.672   3.578   5.959  0.1197 -0.2999 -1.0269
   49THY    CP1 1205   5.522   3.538   5.971 -0.4326 -0.2848  0.4029
   49THY    HP1 1206   5.462   3.624   5.940 -0.2236 -0.5994 -0.9829
   49THY    CP2 1207   5.491   3.416   5.891 -0.1914 -0.1957  0.0446
   49THY    HP2 1208   5.534   3.334   5.949 -0.0406  1.2296  2.0821
   49THY    HP3 1209   5.382   3.405   5.878  0.2888 -3.3643 -2.4123
   49THY    HP4 1210   5.534   3.415   5.791 -0.9062 -0.0273 -0.2749
   49THY    CP3 1211   5.491   3.515   6.119  0.1886 -0.2432  0.2108
   49THY    HP5 1212   5.517   3.606   6.174 -1.2122  1.1227 -1.2745
   49THY    HP6 1213   5.381   3.507   6.118  0.2513 -1.4411  0.9808
   49THY    HP7 1214   5.528   3.424   6.168 -1.3450 -0.9532  0.1218
   49THY    CA3 1215   5.769   3.512   6.028 -0.5380  0.3338 -0.3642
   49THY    HA3 1216   5.750   3.435   6.102 -0.3335  0.4510 -0.1898
   49THY    CA4 1217   5.905   3.542   6.011 -0.1560  0.2931  0.4338
   49THY    HA4 1218   5.983   3.478   6.051  0.3074  1.1755  0.9954
   49THY    CA5 1219   5.945   3.651   5.921  0.2235  0.2834 -0.8659
   49THY    CM1 1220   6.085   3.690   5.903 -0.7767 -0.7365 -0.6808
   49THY    HM1 1221   6.090   3.799   5.912  1.8014 -0.7753 -0.8524
   49THY    HM2 1222   6.159   3.644   5.970 -0.4556  0.3519 -0.2736
   49THY    HM3 1223   6.123   3.664   5.803  2.1326  0.9868 -0.1310
   49THY    CA6 1224   5.840   3.717   5.858  0.5600  0.5791  0.3643
   49THY    HA6 1225   5.857   3.807   5.798  0.1640 -0.4014 -1.2803
   50THY      O 1226   9.318   0.936   2.170 -0.6914  0.0179 -0.6775
   50THY     HO 1227   9.395   0.946   2.112 -1.1997 -0.2301 -1.4105
   50THY    CA1 1228   9.355   0.955   2.297 -0.1677 -0.4355 -0.2281
   50THY    CA2 1229   9.271   0.915   2.405 -0.1634 -0.6753  0.2071
   50THY    CP1 1230   9.143   0.849   2.369 -1.0979  0.4207  0.7553
   50THY    HP1 1231   9.117   0.873   2.265  2.7623 -0.8650 -0.6944
   50THY    CP2 1232   9.147   0.697   2.379  0.7204  0.8410  0.1027
   50THY    HP2 1233   9.217   0.658   2.305 -0.4812  0.1744 -0.7259
   50THY    HP3 1234   9.176   0.664   2.480  0.3238 -2.5094 -0.7754
   50THY    HP4 1235   9.049   0.660   2.346  1.2331  1.0716 -1.7460
   50THY    CP3 1236   9.031   0.899   2.463  0.5819 -0.3258 -0.3286
   50THY    HP5 1237   9.023   1.007   2.485 -0.3696 -0.5735  0.6155
   50THY    HP6 1238   8.934   0.866   2.426  0.2997  0.1700 -0.0472
   50THY    HP7 1239   9.056   0.860   2.563  1.2952  1.2918  0.1694
   50THY    CA3 1240   9.313   0.943   2.540 -1.0589 -0.6976  0.7227
   50THY    HA3 1241   9.256   0.916   2.629 -0.7271 -0.7643  0.9166
   50THY    CA4 1242   9.438   0.998   2.563  0.4478  0.3300  0.2765
   50THY    HA4 1243   9.472   1.015   2.664  2.9464  1.2436 -0.6283
   50THY    CA5 1244   9.517   1.036   2.453 -0.4194 -0.6645  0.4695
   50THY    CM1 1245   9.650   1.089   2.492  0.0038 -0.1574 -0.1251
   50THY    HM1 1246   9.671   1.086   2.599 -1.6784  1.0307  0.2758
   50THY    HM2 1247   9.725   1.037   2.432  0.0244 -0.5370  0.2202
   50THY    HM3 1248   9.643   1.195   2.467  2.3163 -0.5637 -2.9898
   50THY    CA6 1249   9.477   1.017   2.320 -0.1613  0.5734  0.0073
   50THY    HA6 1250   9.538   1.043   2.234 -0.8672 -1.6312 -1.2371
   51THY      O 1251   5.257   6.940   2.743 -0.2821 -0.6105  0.1372
   51THY     HO 1252   5.180   7.000   2.746  0.8595  0.9009  1.6524
   51THY    CA1 1253   5.244   6.849   2.648 -0.3160  0.0642  0.1295
   51THY    CA2 1254   5.357   6.764   2.616 -0.4741 -0.5457 -0.2066
   51THY    CP1 1255   5.477   6.759   2.701  0.2032 -0.5593 -0.2496
   51THY    HP1 1256   5.467   6.837   2.777 -1.5677 -0.3495 -0.6395
   51THY    CP2 1257   5.501   6.624   2.768 -0.3281  0.1237  0.0112
   51THY    HP2 1258   5.488   6.546   2.693 -1.0195  0.4307 -0.1896
   51THY    HP3 1259   5.602   6.614   2.810 -0.7460 -3.8977  0.4023
   51THY    HP4 1260   5.431   6.602   2.850  0.0062 -0.9075  0.0339
   51THY    CP3 1261   5.603   6.804   2.620 -0.0433 -0.0496 -0.2549
   51THY    HP5 1262   5.589   6.897   2.565  1.7476 -1.4490 -3.3990
   51THY    HP6 1263   5.689   6.805   2.688  0.9896 -0.9900 -1.4750
   51THY    HP7 1264   5.623   6.725   2.546 -0.8367 -0.5145  0.0212
   51THY    CA3 1265   5.341   6.675   2.513 -0.3607  0.0239 -0.2704
   51THY    HA3 1266   5.422   6.610   2.480 -0.8526 -1.3792  1.2159
   51THY    CA4 1267   5.220   6.665   2.438  0.0637 -0.1803 -0.2263
   51THY    HA4 1268   5.218   6.600   2.351  1.3725  1.0782 -1.2350
   51THY    CA5 1269   5.112   6.741   2.474 -0.0444 -0.3853 -0.0193
   51THY    CM1 1270   4.989   6.741   2.383  0.1522 -0.1231 -0.6699
   51THY    HM1 1271   4.981   6.647   2.328 -2.7960 -0.4789  0.2077
   51THY    HM2 1272   4.895   6.746   2.439 -0.8058 -1.1562 -2.1063
   51THY    HM3 1273   4.985   6.830   2.318  0.0778 -0.2393 -0.8239
   51THY    CA6 1274   5.124   6.833   2.573  0.2458  0.3827 -0.0077
   51THY    HA6 1275   5.035   6.891   2.594 -1.6809 -2.4948  0.2970
   52THY      O 1276   3.222   0.417   9.030  0.2634 -0.5556 -0.9833
   52THY     HO 1277   3.163   0.340   9.016 -1.1067 -0.0461  1.4831
   52THY    CA1 1278   3.297   0.390   9.141  0.2612 -0.3125  0.0982
   52THY    CA2 1279   3.426   0.453   9.166 -0.5625 -0.6364 -0.3133
   52THY    CP1 1280   3.500   0.523   9.058 -0.3828 -0.3907 -0.7136
   52THY    HP1 1281   3.437   0.602   9.016  2.1830  1.6009 -1.0685
   52THY    CP2 1282   3.623   0.585   9.109 -0.2521 -0.3001 -0.1870
   52THY    HP2 1283   3.700   0.510   9.132 -0.2638 -0.5965 -1.0590
   52THY    HP3 1284   3.661   0.643   9.024  0.3032 -1.1081 -0.5026
   52THY    HP4 1285   3.613   0.649   9.197  0.7564 -0.6207  0.1756
   52THY    CP3 1286   3.548   0.426   8.946 -0.6775  0.2251 -0.1764
   52THY    HP5 1287   3.455   0.387   8.902  1.1351 -3.9314 -0.8191
   52THY    HP6 1288   3.601   0.488   8.873 -0.9156  1.3004  0.5475
   52THY    HP7 1289   3.620   0.349   8.976  0.2207  1.6137  1.3702
   52THY    CA3 1290   3.489   0.414   9.284  0.2050  0.1647 -0.2624
   52THY    HA3 1291   3.592   0.443   9.299  0.6245 -1.6745  0.7407
   52THY    CA4 1292   3.425   0.333   9.384 -1.0517  0.2686  0.0669
   52THY    HA4 1293   3.468   0.315   9.482 -2.4012 -2.0889  0.2931
   52THY    CA5 1294   3.296   0.294   9.364  0.2805 -0.3416 -0.0344
   52THY    CM1 1295   3.228   0.223   9.475 -0.3180  0.8784 -0.3169
   52THY    HM1 1296   3.298   0.158   9.529 -0.5434  1.0679  0.2067
   52THY    HM2 1297   3.195   0.297   9.548 -0.6452  0.7540 -0.3353
   52THY    HM3 1298   3.148   0.159   9.436  0.9920  0.7383 -3.0778
   52THY    CA6 1299   3.234   0.312   9.237  0.1761 -0.3514 -0.2156
   52THY    HA6 1300   3.135   0.272   9.217  0.1959  0.6259 -2.5479
   53THY      O 1301   4.823   0.271   9.055 -0.0195  0.3108 -0.5034
   53THY     HO 1302   4.868   0.188   9.079  0.6713  1.3012  1.8713
   53THY    CA1 1303   4.889   0.327   8.947  0.2931  0.0359 -0.6058
   53THY    CA2 1304   4.958   0.452   8.962 -0.2793  0.0071  0.1781
   53THY    CP1 1305   4.958   0.532   9.090 -0.4161 -0.3447  0.3841
   53THY    HP1 1306   4.896   0.482   9.166  0.0909 -0.7261  0.5516
   53THY    CP2 1307   5.093   0.548   9.152 -0.1957 -0.2438 -1.1180
   53THY    HP2 1308   5.175   0.559   9.080  1.1019  1.3526  0.4995
   53THY    HP3 1309   5.107   0.640   9.209 -3.2794  1.1516 -2.3445
   53THY    HP4 1310   5.117   0.465   9.219  0.5227  1.4811  0.8846
   53THY    CP3 1311   4.899   0.676   9.071 -0.3992 -0.1266 -0.5159
   53THY    HP5 1312   4.908   0.737   9.162  4.9812  0.3579 -1.0769
   53THY    HP6 1313   4.972   0.736   9.015  0.0386 -1.4603 -1.4049
   53THY    HP7 1314   4.800   0.682   9.024  0.6007  2.8908 -2.5699
   53THY    CA3 1315   5.011   0.509   8.844 -0.4492  0.5812  0.5345
   53THY    HA3 1316   5.071   0.600   8.846  1.4952 -0.4343 -2.7156
   53THY    CA4 1317   5.000   0.441   8.721  0.7034 -0.5954 -0.3820
   53THY    HA4 1318   5.052   0.476   8.632 -0.2998  1.3416 -0.2453
   53THY    CA5 1319   4.934   0.320   8.713  0.3169  0.9148 -0.2645
   53THY    CM1 1320   4.921   0.246   8.580  0.0786 -0.5226  0.1053
   53THY    HM1 1321   5.003   0.173   8.589 -0.2827 -0.8972  0.3445
   53THY    HM2 1322   4.831   0.187   8.560 -0.2065  0.0728 -0.3958
   53THY    HM3 1323   4.935   0.305   8.488 -1.3838 -1.4590 -0.7626
   53THY    CA6 1324   4.862   0.271   8.827  0.0186  0.5208 -0.0326
   53THY    HA6 1325   4.796   0.184   8.829 -0.5283  0.9145 -0.7313
   54THY      O 1326   4.955   8.910   6.925  0.0249 -0.1382  0.2816
   54THY     HO 1327   4.901   8.834   6.896  1.6467 -1.1958 -0.1140
   54THY    CA1 1328   4.902   9.021   6.878  0.0834 -0.5297  0.3844
   54THY    CA2 1329   4.984   9.137   6.874 -0.3101 -0.1829 -0.2956
   54THY    CP1 1330   5.135   9.128   6.917  0.5972 -0.3758 -0.3541
   54THY    HP1 1331   5.148   9.064   7.005 -3.5741  2.6803  2.9079
   54THY    CP2 1332   5.222   9.074   6.804  0.1505 -1.1015  0.0838
   54THY    HP2 1333   5.240   9.140   6.719 -0.5206  1.4261  1.7739
   54THY    HP3 1334   5.315   9.051   6.858  1.3162  1.7190 -0.5232
   54THY    HP4 1335   5.175   8.984   6.764  2.1854 -2.8517  1.4037
   54THY    CP3 1336   5.200   9.261   6.959 -0.8754  0.8967 -0.5985
   54THY    HP5 1337   5.180   9.345   6.892  0.6049  0.3361 -1.7792
   54THY    HP6 1338   5.165   9.285   7.060  0.7100 -0.7639  0.4080
   54THY    HP7 1339   5.308   9.245   6.960 -1.1376 -1.4228  1.2898
   54THY    CA3 1340   4.926   9.256   6.828 -0.5293  0.5500  0.0099
   54THY    HA3 1341   4.977   9.352   6.824  2.1555 -0.7776  0.0635
   54THY    CA4 1342   4.796   9.251   6.785 -1.0691  0.6962  0.2204
   54THY    HA4 1343   4.749   9.344   6.753  0.3806  0.7549 -1.8970
   54THY    CA5 1344   4.712   9.139   6.802  0.1493  0.4355  0.3344
   54THY    CM1 1345   4.561   9.148   6.785 -0.4447  0.0004  0.0721
   54THY    HM1 1346   4.526   9.046   6.764  1.5271 -0.2260 -2.6828
   54THY    HM2 1347   4.507   9.192   6.870 -1.0945 -0.3319 -0.1619
   54THY    HM3 1348   4.525   9.215   6.707 -1.1246  0.6985  0.9590
   54THY    CA6 1349   4.769   9.018   6.843 -0.4169  0.9616 -0.7278
   54THY    HA6 1350   4.713   8.928   6.864  1.9447  0.1575  2.9362
   55THY      O 1351   2.029   9.389   2.000  0.5249  0.5512  0.5712
   55THY     HO 1352   1.981   9.317   1.954  2.7821 -0.1429 -0.8927
   55THY    CA1 1353   2.051   9.482   1.904 -0.6454 -0.2234 -0.0585
   55THY    CA2 1354   2.156   9.579   1.913 -0.6464 -0.4340 -0.2720
   55THY    CP1 1355   2.267   9.572   2.022  0.1715  0.4597  0.1950
   55THY    HP1 1356   2.225   9.511   2.103 -1.1590  1.4521  0.2794
   55THY    CP2 1357   2.392   9.504   1.966 -0.6655  0.0279  0.4242
   55THY    HP2 1358   2.475   9.517   2.036  1.2864  0.2691 -1.8009
   55THY    HP3 1359   2.380   9.396   1.949  1.8462 -0.3350  0.6463
   55THY    HP4 1360   2.427   9.545   1.870 -0.4503  1.4676  1.0868
   55THY    CP3 1361   2.307   9.712   2.080 -0.7092  0.8625 -0.0450
   55THY    HP5 1362   2.213   9.750   2.120  0.2515  1.8869  1.3159
   55THY    HP6 1363   2.378   9.708   2.163 -2.0632  1.7543  1.2006
   55THY    HP7 1364   2.340   9.789   2.010 -0.0945  0.3185 -0.3651
   55THY    CA3 1365   2.175   9.670   1.807  0.6186 -0.2534 -0.2146
   55THY    HA3 1366   2.258   9.739   1.812 -0.1113  0.5390  1.4938
   55THY    CA4 1367   2.077   9.673   1.702 -0.1612 -0.4266  0.0840
   55THY    HA4 1368   2.076   9.756   1.633 -2.0008 -0.0496  0.5220
   55THY    CA5 1369   1.970   9.584   1.703  0.1525 -0.9559 -0.3488
   55THY    CM1 1370   1.873   9.587   1.588 -0.6880 -0.3244 -0.5691
   55THY    HM1 1371   1.912   9.657   1.513  3.6352 -3.0036 -1.1276
   55THY    HM2 1372   1.872   9.491   1.534 -1.9583 -0.8246  0.3064
   55THY    HM3 1373   1.772   9.624   1.607  0.1277  1.2874  0.9202
   55THY    CA6 1374   1.959   9.483   1.800 -0.1670 -0.8007 -0.9207
   55THY    HA6 1375   1.870   9.421   1.799 -1.2796  0.6649  0.4700
   56THY      O 1376   5.122   7.426   0.734  0.0715  0.1408 -0.7447
   56THY     HO 1377   5.120   7.524   0.737  1.6973  0.1794  0.1131
   56THY    CA1 1378   5.230   7.413   0.661 -0.2732 -0.1673 -0.0959
   56THY    CA2 1379   5.255   7.291   0.592  0.1868  0.5397  0.2826
   56THY    CP1 1380   5.164   7.171   0.616 -0.0034  0.3968  0.8431
   56THY    HP1 1381   5.098   7.174   0.704 -0.8107 -1.4028  0.3442
   56THY    CP2 1382   5.080   7.142   0.495  0.6292 -0.2472 -0.2601
   56THY    HP2 1383   5.134   7.127   0.401  0.7326  1.8629 -0.5742
   56THY    HP3 1384   5.028   7.046   0.509 -0.2739  0.0148 -1.6256
   56THY    HP4 1385   4.998   7.209   0.467 -0.3807  0.0557  2.9783
   56THY    CP3 1386   5.246   7.046   0.657  0.1174 -0.3052  0.3549
   56THY    HP5 1387   5.295   7.061   0.754 -2.0527  0.1884  1.4345
   56THY    HP6 1388   5.181   6.958   0.667 -0.3317  0.1283  1.4147
   56THY    HP7 1389   5.324   7.019   0.586  0.6209 -0.3272  0.9052
   56THY    CA3 1390   5.379   7.284   0.519 -0.2161  0.0357 -0.3594
   56THY    HA3 1391   5.411   7.192   0.470 -1.5447 -0.5031 -0.2417
   56THY    CA4 1392   5.474   7.382   0.536  0.5520  0.3500 -0.4406
   56THY    HA4 1393   5.574   7.384   0.494  1.0749  1.2640  0.7917
   56THY    CA5 1394   5.429   7.505   0.587 -0.5017  0.0386 -0.4490
   56THY    CM1 1395   5.525   7.610   0.597 -0.1262 -0.6497  0.5380
   56THY    HM1 1396   5.549   7.646   0.698 -0.2333  0.1703  0.2833
   56THY    HM2 1397   5.613   7.593   0.535 -0.4737  0.0699 -0.1783
   56THY    HM3 1398   5.480   7.697   0.547  1.3045  0.6930  1.4761
   56THY    CA6 1399   5.308   7.523   0.656  0.8510 -0.6346 -0.0868
   56THY    HA6 1400   5.293   7.614   0.713 -2.7881 -1.3183  0.3146
   57THY      O 1401   1.242   5.923   6.902  0.1137  0.3591 -0.6387
   57THY     HO 1402   1.333   5.907   6.932  1.6379  5.2224 -1.7198
   57THY    CA1 1403   1.192   6.016   6.987  0.4857 -0.6839 -0.0080
   57THY    CA2 1404   1.058   6.065   6.983  0.4995  0.1864  0.4316
   57THY    CP1 1405   0.970   6.019   6.870  0.4200  0.1682 -0.0532
   57THY    HP1 1406   1.031   6.002   6.781  0.8705 -0.7019  0.4184
   57THY    CP2 1407   0.905   5.882   6.910  0.3660 -0.0402 -0.4259
   57THY    HP2 1408   0.978   5.803   6.934 -0.6582 -1.6172 -2.2271
   57THY    HP3 1409   0.844   5.886   7.001 -1.0326  1.3803 -1.3878
   57THY    HP4 1410   0.853   5.832   6.828  0.7633 -1.6013  0.2314
   57THY    CP3 1411   0.847   6.109   6.836 -0.2739 -0.1648 -0.3957
   57THY    HP5 1412   0.811   6.081   6.736  3.0857  2.0218 -2.4246
   57THY    HP6 1413   0.767   6.107   6.910 -0.7209 -1.3510 -0.8782
   57THY    HP7 1414   0.884   6.212   6.831 -0.4145 -0.1720 -3.7649
   57THY    CA3 1415   1.013   6.159   7.080  0.0758  0.0524  1.1031
   57THY    HA3 1416   0.915   6.204   7.075  0.7507  1.5575  0.6803
   57THY    CA4 1417   1.105   6.191   7.183  0.1173 -0.8297 -0.0893
   57THY    HA4 1418   1.067   6.256   7.261  0.2516 -1.7209  0.7417
   57THY    CA5 1419   1.237   6.137   7.191 -0.4377 -0.1246  0.3614
   57THY    CM1 1420   1.331   6.159   7.309  0.1462 -0.0785 -0.0858
   57THY    HM1 1421   1.433   6.137   7.277  0.8780 -0.8785  2.5154
   57THY    HM2 1422   1.340   6.265   7.335  1.0719  0.6219 -2.9172
   57THY    HM3 1423   1.312   6.083   7.386 -0.7610 -1.7760 -1.9118
   57THY    CA6 1424   1.273   6.049   7.090 -0.1205  0.1808 -0.1235
   57THY    HA6 1425   1.372   6.006   7.107  0.1600  1.1063  0.7097
   58THY      O 1426   6.846   9.622   1.200  0.0184  0.1424 -0.6787
   58THY     HO 1427   6.844   9.717   1.182 -1.4764  0.4976  1.0858
   58THY    CA1 1428   6.853   9.626   1.335 -0.7242  0.2042 -0.2304
   58THY    CA2 1429   6.886   9.510   1.412 -0.7520 -0.0361  0.5829
   58THY    CP1 1430   6.887   9.369   1.341 -0.1314 -0.7639  0.8240
   58THY    HP1 1431   6.866   9.385   1.234  0.9520  0.3101  0.7459
   58THY    CP2 1432   7.035   9.315   1.354 -0.3510 -0.5735 -0.5743
   58THY    HP2 1433   7.103   9.401   1.364  1.8430 -2.4656  2.7591
   58THY    HP3 1434   7.064   9.251   1.438 -0.2352  0.8950  0.5411
   58THY    HP4 1435   7.046   9.254   1.264  0.9392 -0.9079 -0.2129
   58THY    CP3 1436   6.774   9.278   1.389 -0.0626 -0.3526 -0.5621
   58THY    HP5 1437   6.678   9.325   1.414  0.4292  0.4915 -0.2202
   58THY    HP6 1438   6.774   9.201   1.310  1.2776  0.5513 -1.4969
   58THY    HP7 1439   6.798   9.232   1.486 -4.0745 -0.4306  0.5696
   58THY    CA3 1440   6.900   9.521   1.554 -0.3411  0.1469  0.2087
   58THY    HA3 1441   6.917   9.432   1.614  1.9306 -0.2509 -0.9328
   58THY    CA4 1442   6.880   9.647   1.609 -0.5071 -0.2897  0.1321
   58THY    HA4 1443   6.870   9.656   1.717 -1.4666  0.5798 -0.0174
   58THY    CA5 1444   6.851   9.760   1.532 -0.3889  0.4590 -0.3358
   58THY    CM1 1445   6.821   9.894   1.589 -0.2115  0.5628  0.0396
   58THY    HM1 1446   6.786   9.883   1.692  0.1636 -0.9363  0.0316
   58THY    HM2 1447   6.908   9.955   1.615  0.7540 -1.3138  1.4582
   58THY    HM3 1448   6.757   9.962   1.531  1.7728  2.5632  0.0397
   58THY    CA6 1449   6.833   9.749   1.396 -0.9015  0.6407  0.1882
   58THY    HA6 1450   6.807   9.839   1.340 -0.4147  1.6572  1.5383
   59THY      O 1451   9.549   9.530   5.879 -0.6373 -0.2610  0.3551
   59THY     HO 1452   9.536   9.577   5.795  0.6484 -0.1690  0.1866
   59THY    CA1 1453   9.470   9.598   5.968  0.2355  0.0575 -1.0013
   59THY    CA2 1454   9.449   9.550   6.099 -0.0855 -0.4077 -0.5680
   59THY    CP1 1455   9.521   9.428   6.153 -0.1008  0.0883  0.2031
   59THY    HP1 1456   9.615   9.408   6.099  0.0170 -1.3721  0.8955
   59THY    CP2 1457   9.576   9.427   6.299  0.3194  0.3723 -0.1279
   59THY    HP2 1458   9.625   9.518   6.335  0.1754 -0.2268  1.6786
   59THY    HP3 1459   9.491   9.416   6.367  1.8684 -0.1170  1.8376
   59THY    HP4 1460   9.644   9.341   6.309 -1.4218 -0.8099  2.4696
   59THY    CP3 1461   9.441   9.302   6.129  0.5365  0.4401 -0.3793
   59THY    HP5 1462   9.344   9.312   6.181  0.0107  2.3515 -1.6381
   59THY    HP6 1463   9.410   9.296   6.024 -2.3787  0.9245  0.3396
   59THY    HP7 1464   9.505   9.217   6.156 -0.1269 -0.4866 -1.5953
   59THY    CA3 1465   9.355   9.612   6.189 -0.2573  0.0998  0.4684
   59THY    HA3 1466   9.336   9.574   6.289  0.4009 -1.6986 -0.0681
   59THY    CA4 1467   9.291   9.729   6.135 -0.4736  0.7369  0.2606
   59THY    HA4 1468   9.217   9.786   6.190  0.1217  0.4810  1.3515
   59THY    CA5 1469   9.301   9.765   5.997 -0.5664  0.2007  0.2077
   59THY    CM1 1470   9.229   9.883   5.938  0.7976 -0.6648  0.7597
   59THY    HM1 1471   9.138   9.911   5.994  0.3142 -1.0047  0.1578
   59THY    HM2 1472   9.292   9.973   5.933  0.9390 -0.8090 -0.3446
   59THY    HM3 1473   9.208   9.868   5.832  2.1453 -0.0618  0.3921
   59THY    CA6 1474   9.399   9.704   5.921  0.1512  0.4917  0.3180
   59THY    HA6 1475   9.404   9.732   5.816  1.3314 -2.3136 -0.4743
   60THY      O 1476   0.863   3.161   3.580  0.1838  0.0619 -0.1396
   60THY     HO 1477   0.904   3.073   3.592 -1.4406 -0.3804  4.6822
   60THY    CA1 1478   0.911   3.233   3.690 -0.6774  0.3336 -0.0102
   60THY    CA2 1479   0.829   3.311   3.771  0.0419  0.6181 -0.9697
   60THY    CP1 1480   0.683   3.331   3.736 -0.1053 -0.4769 -0.2385
   60THY    HP1 1481   0.662   3.318   3.629  0.9386 -1.2324 -0.3604
   60THY    CP2 1482   0.605   3.227   3.819 -0.1362 -0.6005 -0.5520
   60THY    HP2 1483   0.588   3.262   3.921  0.5683 -3.3959  0.6242
   60THY    HP3 1484   0.510   3.204   3.768  0.2444 -0.1799 -1.4657
   60THY    HP4 1485   0.660   3.134   3.835  2.9004  1.5360  3.1579
   60THY    CP3 1486   0.626   3.471   3.770  0.3896 -0.3372  0.5780
   60THY    HP5 1487   0.599   3.480   3.876 -1.3600 -1.3878  0.2632
   60THY    HP6 1488   0.706   3.539   3.739 -0.4955  1.4281  1.9746
   60THY    HP7 1489   0.535   3.496   3.716  0.4760 -0.0979  0.5431
   60THY    CA3 1490   0.882   3.371   3.887 -0.3026 -0.1816 -0.7575
   60THY    HA3 1491   0.810   3.410   3.957 -3.7641 -1.9099 -3.0826
   60THY    CA4 1492   1.019   3.366   3.911  0.1024  0.0761  0.2412
   60THY    HA4 1493   1.060   3.410   4.002  0.1743  1.2671 -0.3403
   60THY    CA5 1494   1.102   3.298   3.822  0.0116  0.1665 -0.0167
   60THY    CM1 1495   1.248   3.270   3.854 -0.7627 -0.4166  0.3449
   60THY    HM1 1496   1.255   3.163   3.876 -1.3116 -0.5668 -0.1721
   60THY    HM2 1497   1.304   3.287   3.762  1.4857 -3.3221  1.0457
   60THY    HM3 1498   1.283   3.343   3.928 -0.9308  0.0937 -0.0714
   60THY    CA6 1499   1.053   3.227   3.713 -0.3845  0.6356 -0.9037
   60THY    HA6 1500   1.122   3.179   3.646  1.0484  0.5991  0.5399
   61THY      O 1501   6.427   4.894   4.044 -0.2217  0.4972 -0.5511
   61THY     HO 1502   6.454   4.909   4.136  1.1563  1.7398 -1.1139
   61THY    CA1 1503   6.495   4.991   3.990  0.5647  0.3859 -0.9908
   61THY    CA2 1504   6.476   5.043   3.859 -0.4958  0.8087 -0.2865
   61THY    CP1 1505   6.367   4.973   3.763  0.7286 -0.4491  0.4455
   61THY    HP1 1506   6.351   4.865   3.763  0.3621 -0.4177 -0.8099
   61THY    CP2 1507   6.233   5.039   3.788  0.1980 -0.0509  0.1993
   61THY    HP2 1508   6.168   5.012   3.704 -1.4718 -0.5609  1.6016
   61THY    HP3 1509   6.196   5.027   3.891  0.1687  0.1408  0.2119
   61THY    HP4 1510   6.249   5.148   3.783 -0.6072  0.0229 -1.6025
   61THY    CP3 1511   6.406   5.003   3.618  0.2564  0.6141  0.2331
   61THY    HP5 1512   6.335   4.968   3.543 -0.4251 -0.7409  1.4523
   61THY    HP6 1513   6.427   5.110   3.604  0.9582  0.1169 -3.3898
   61THY    HP7 1514   6.496   4.945   3.597 -0.2094 -1.2364  2.8426
   61THY    CA3 1515   6.552   5.159   3.826  1.0441  0.0878  0.1881
   61THY    HA3 1516   6.541   5.215   3.733 -2.8698 -1.0596 -0.1987
   61THY    CA4 1517   6.641   5.212   3.920 -0.6533 -0.2239  0.3537
   61THY    HA4 1518   6.695   5.300   3.886  0.7304 -1.3138 -0.3598
   61THY    CA5 1519   6.661   5.160   4.048  0.0885  0.0469 -0.3594
   61THY    CM1 1520   6.755   5.214   4.148  0.2671  0.0554 -0.0662
   61THY    HM1 1521   6.708   5.279   4.223  1.4951  2.6351 -1.4023
   61THY    HM2 1522   6.805   5.139   4.211  1.7785  0.5286 -0.6638
   61THY    HM3 1523   6.831   5.275   4.099 -2.0410  2.6696 -0.6307
   61THY    CA6 1524   6.584   5.043   4.084 -0.7580 -0.4216 -0.2044
   61THY    HA6 1525   6.602   5.001   4.183 -0.5672  1.9413  0.8182
   62THY      O 1526   1.888   7.075   8.024 -0.8165 -0.1367 -0.3237
   62THY     HO 1527   1.910   7.162   8.062 -0.1771  0.3983 -1.8276
   62THY    CA1 1528   1.975   6.983   8.072  0.6319  0.4626  0.2742
   62THY    CA2 1529   2.011   6.869   8.007 -0.0366  0.9089  0.4223
   62THY    CP1 1530   1.958   6.825   7.870 -0.4490 -0.1704 -0.6390
   62THY    HP1 1531   1.887   6.904   7.842 -0.6079 -0.0807  0.0005
   62THY    CP2 1532   2.070   6.822   7.768  1.4106  0.8594 -0.7529
   62THY    HP2 1533   2.103   6.926   7.755 -0.5962  1.6120 -0.1907
   62THY    HP3 1534   2.151   6.751   7.791  0.0805 -0.1143  1.2369
   62THY    HP4 1535   2.030   6.783   7.673  0.8514  0.3703 -0.3228
   62THY    CP3 1536   1.885   6.684   7.864 -0.0627 -0.1864  0.6573
   62THY    HP5 1537   1.826   6.679   7.956 -1.1206  0.8388  0.0724
   62THY    HP6 1538   1.821   6.659   7.778  0.5955  1.0642 -0.2390
   62THY    HP7 1539   1.946   6.594   7.856 -2.1849 -1.5754 -1.3314
   62THY    CA3 1540   2.104   6.786   8.071 -0.0862  0.0474 -0.2232
   62THY    HA3 1541   2.134   6.695   8.019 -1.4509  0.1998 -1.3219
   62THY    CA4 1542   2.158   6.810   8.201 -0.3272 -0.4850  0.3782
   62THY    HA4 1543   2.223   6.735   8.243  0.6656 -0.5793 -1.2320
   62THY    CA5 1544   2.109   6.918   8.266 -0.3368  1.0669  0.6214
   62THY    CM1 1545   2.152   6.957   8.399 -0.0971  0.7197 -0.3214
   62THY    HM1 1546   2.211   7.049   8.400 -1.7387  1.9623 -3.6425
   62THY    HM2 1547   2.077   6.962   8.479 -1.2993 -1.3612 -1.2380
   62THY    HM3 1548   2.214   6.873   8.432  1.6879  1.1481 -2.3832
   62THY    CA6 1549   2.027   7.003   8.198 -0.6022  0.1560  0.1894
   62THY    HA6 1550   2.004   7.095   8.250  0.8897  0.5172  0.2363
   63THY      O 1551   5.429   2.606   6.597 -0.8435  0.0329  0.6203
   63THY     HO 1552   5.507   2.567   6.638 -0.7570 -0.0151  0.4126
   63THY    CA1 1553   5.391   2.512   6.502 -0.0444 -0.1698  0.9701
   63THY    CA2 1554   5.287   2.537   6.405 -0.3248 -0.0190 -0.9496
   63THY    CP1 1555   5.215   2.673   6.420 -0.7423 -1.0827  0.3629
   63THY    HP1 1556   5.260   2.746   6.487 -0.1910 -2.1343  1.1796
   63THY    CP2 1557   5.202   2.749   6.281 -0.0704  0.7909 -0.8086
   63THY    HP2 1558   5.142   2.839   6.297  2.0762  1.7282  3.7478
   63THY    HP3 1559   5.297   2.794   6.250 -0.6688  1.3506 -1.8834
   63THY    HP4 1560   5.163   2.688   6.198 -0.4625  0.7037 -0.5641
   63THY    CP3 1561   5.074   2.634   6.475 -0.5501  0.0659  0.0760
   63THY    HP5 1562   5.087   2.596   6.578  2.2101  1.4988  0.3524
   63THY    HP6 1563   5.012   2.724   6.472  0.0514  0.5091  0.6423
   63THY    HP7 1564   5.036   2.555   6.409 -0.0136  1.7501 -2.3602
   63THY    CA3 1565   5.255   2.438   6.312 -0.7468  0.5656 -0.1082
   63THY    HA3 1566   5.172   2.443   6.243 -1.6465 -2.2311  0.6342
   63THY    CA4 1567   5.322   2.318   6.326  0.5130 -0.0706 -0.2657
   63THY    HA4 1568   5.296   2.242   6.252  2.2058  0.1433 -1.1471
   63THY    CA5 1569   5.435   2.298   6.411 -0.7679 -0.2802 -0.0916
   63THY    CM1 1570   5.516   2.171   6.406 -0.5274 -0.6853  0.2259
   63THY    HM1 1571   5.481   2.093   6.474  0.6776  0.7298  2.6291
   63THY    HM2 1572   5.508   2.134   6.304 -1.8561 -0.6438  0.2881
   63THY    HM3 1573   5.621   2.194   6.426  0.1284 -1.6453 -1.8606
   63THY    CA6 1574   5.469   2.396   6.501  0.3790  0.3072 -0.3832
   63THY    HA6 1575   5.552   2.382   6.569 -0.5464 -0.8877  0.5537
   64THY      O 1576   8.896   3.788   4.559 -0.3084 -0.6319  0.3423
   64THY     HO 1577   8.904   3.863   4.497 -0.9215 -0.1653  0.8211
   64THY    CA1 1578   9.010   3.716   4.550  0.1190  0.0112 -0.3076
   64THY    CA2 1579   9.028   3.608   4.632  0.0658 -0.0388 -0.1907
   64THY    CP1 1580   8.923   3.559   4.730  0.0678 -0.7548 -0.9969
   64THY    HP1 1581   8.839   3.630   4.736  0.7461  0.0726 -1.1430
   64THY    CP2 1582   8.874   3.418   4.687 -0.0287  0.8223  0.0208
   64THY    HP2 1583   8.955   3.348   4.665 -0.5928 -0.2316  1.2180
   64THY    HP3 1584   8.805   3.376   4.761 -1.6456  0.0753 -1.8159
   64THY    HP4 1585   8.817   3.436   4.595 -3.1715  1.4435  1.9518
   64THY    CP3 1586   8.978   3.559   4.873  0.4439  0.6767 -0.6287
   64THY    HP5 1587   9.034   3.468   4.898 -0.1967  0.6948  0.9920
   64THY    HP6 1588   9.045   3.644   4.886  1.5736 -0.5389  2.2005
   64THY    HP7 1589   8.904   3.566   4.954  3.6132 -0.9247  2.6765
   64THY    CA3 1590   9.153   3.537   4.624 -0.7326  0.2334  0.1140
   64THY    HA3 1591   9.171   3.454   4.691 -0.1599  0.1189 -0.1757
   64THY    CA4 1592   9.251   3.579   4.530  0.5378  0.9142 -0.5734
   64THY    HA4 1593   9.338   3.515   4.520  2.4489  2.9731  1.6042
   64THY    CA5 1594   9.230   3.689   4.446  0.3343 -0.8563 -0.2762
   64THY    CM1 1595   9.331   3.731   4.336 -0.0698 -0.3837  0.6500
   64THY    HM1 1596   9.416   3.662   4.345 -0.0546 -0.3284  0.9269
   64THY    HM2 1597   9.287   3.712   4.237  0.3045 -1.8316  0.7378
   64THY    HM3 1598   9.361   3.836   4.330  1.0025 -0.7697 -2.0742
   64THY    CA6 1599   9.110   3.756   4.464  0.6038  0.3466  0.0569
   64THY    HA6 1600   9.085   3.840   4.400  0.5063  0.4757  0.2613
   65THY      O 1601   4.831   1.961   3.744  0.4203 -0.2247 -0.5281
   65THY     HO 1602   4.868   1.969   3.655 -0.8866  0.9331 -1.0119
   65THY    CA1 1603   4.914   1.882   3.808 -0.3244  0.2279  0.3137
   65THY    CA2 1604   4.928   1.888   3.952 -0.6088 -0.4317  1.1544
   65THY    CP1 1605   4.877   2.007   4.039 -0.0707 -0.1579  0.2300
   65THY    HP1 1606   4.850   2.095   3.979  1.0847 -0.2533 -0.4695
   65THY    CP2 1607   4.753   1.961   4.110  0.1322 -0.7906  0.1975
   65THY    HP2 1608   4.711   1.882   4.045  0.4349 -1.1724  0.4608
   65THY    HP3 1609   4.772   1.926   4.212  0.4615 -0.1499  0.3580
   65THY    HP4 1610   4.695   2.052   4.128  3.1292  1.0395  1.2332
   65THY    CP3 1611   4.982   2.061   4.146 -0.1028  0.5660  0.7946
   65THY    HP5 1612   5.079   2.079   4.099 -0.3897  0.3976  0.1393
   65THY    HP6 1613   4.943   2.148   4.200  0.8579 -0.1272  2.7040
   65THY    HP7 1614   4.996   1.982   4.221 -0.7410 -0.8590 -0.5330
   65THY    CA3 1615   5.013   1.798   4.007 -0.0389 -0.5716 -0.2559
   65THY    HA3 1616   5.020   1.792   4.115 -1.0985 -1.4676 -0.2215
   65THY    CA4 1617   5.083   1.705   3.928  0.0276 -0.1811  0.4108
   65THY    HA4 1618   5.160   1.646   3.976  0.8151  0.9463  0.5946
   65THY    CA5 1619   5.073   1.704   3.790 -0.0825  0.4849 -0.3941
   65THY    CM1 1620   5.161   1.613   3.712  0.2399 -0.2719  0.8108
   65THY    HM1 1621   5.200   1.524   3.763  1.2800  0.4085  1.2458
   65THY    HM2 1622   5.100   1.581   3.627 -0.5161  0.7616  0.9403
   65THY    HM3 1623   5.240   1.681   3.678 -1.2628  0.8657 -0.5323
   65THY    CA6 1624   4.984   1.785   3.726  0.2850 -1.2031  0.3154
   65THY    HA6 1625   4.975   1.786   3.618 -3.0726 -1.0121  0.4792
   66THY      O 1626   6.893   6.300   2.496 -0.1050  0.4836 -0.2594
   66THY     HO 1627   6.958   6.280   2.427 -0.9654 -1.1427 -0.6387
   66THY    CA1 1628   6.783   6.274   2.427 -0.7936 -0.1999  0.1313
   66THY    CA2 1629   6.663   6.219   2.475  0.2162  0.1574  0.2615
   66THY    CP1 1630   6.647   6.186   2.623 -0.1672  0.0103 -1.0466
   66THY    HP1 1631   6.745   6.167   2.670 -1.9185 -0.0811  2.9456
   66THY    CP2 1632   6.578   6.313   2.691 -0.3557  0.9337  0.5866
   66THY    HP2 1633   6.574   6.300   2.800  1.8691 -1.4472  0.4813
   66THY    HP3 1634   6.624   6.408   2.663 -0.2622  0.7728  0.1901
   66THY    HP4 1635   6.471   6.312   2.669 -0.5601  0.3665  1.5774
   66THY    CP3 1636   6.573   6.050   2.655  0.2679 -0.4228  0.2517
   66THY    HP5 1637   6.599   6.012   2.755  2.8635 -1.1425 -0.6044
   66THY    HP6 1638   6.465   6.041   2.637 -0.0197  0.9501  1.1339
   66THY    HP7 1639   6.615   5.975   2.587  0.3706 -0.1575  0.0209
   66THY    CA3 1640   6.559   6.197   2.383 -0.0383  0.6834 -0.3876
   66THY    HA3 1641   6.464   6.156   2.416  0.2848  1.2793  1.4124
   66THY    CA4 1642   6.578   6.227   2.246 -0.1898  0.6330 -0.3616
   66THY    HA4 1643   6.496   6.194   2.182 -1.7087  0.3467  1.6199
   66THY    CA5 1644   6.695   6.285   2.203 -0.3436  1.0643  1.1567
   66THY    CM1 1645   6.703   6.311   2.052  0.2944 -0.2478 -0.1062
   66THY    HM1 1646   6.615   6.274   1.999  1.4706 -0.1740 -2.1847
   66THY    HM2 1647   6.710   6.417   2.026 -1.2946 -0.5641 -2.0425
   66THY    HM3 1648   6.790   6.271   1.999  1.2010  1.9302 -0.3697
   66THY    CA6 1649   6.799   6.309   2.291 -0.9754  0.0448  0.0115
   66THY    HA6 1650   6.889   6.354   2.251 -1.1420 -0.4207 -0.8963
   67THY      O 1651   8.086   9.026   9.723 -0.4845 -0.2062  0.6514
   67THY     HO 1652   8.143   8.991   9.653 -1.0207 -1.2756  0.7359
   67THY    CA1 1653   7.961   9.018   9.661  0.0364 -0.0797  0.0978
   67THY    CA2 1654   7.850   9.097   9.705 -0.1824  0.1820 -0.0049
   67THY    CP1 1655   7.866   9.174   9.831  0.2678  1.0110 -0.0377
   67THY    HP1 1656   7.972   9.195   9.850  0.2220  1.7751 -0.5537
   67THY    CP2 1657   7.811   9.318   9.815 -0.1755  0.1504 -0.7480
   67THY    HP2 1658   7.826   9.364   9.913  3.7526  1.5926 -1.8308
   67THY    HP3 1659   7.858   9.374   9.734 -1.0487  3.8321  1.0918
   67THY    HP4 1660   7.702   9.314   9.801 -0.6379 -1.5406  2.3737
   67THY    CP3 1661   7.819   9.092   9.953  0.1838  0.1721  0.0783
   67THY    HP5 1662   7.870   8.997   9.973 -0.7688 -0.1223  1.1784
   67THY    HP6 1663   7.813   9.155  10.042  0.7988  1.3432 -0.6756
   67THY    HP7 1664   7.723   9.049   9.922  0.0689  0.8055 -0.4607
   67THY    CA3 1665   7.730   9.090   9.628 -0.0934  0.9769 -1.0885
   67THY    HA3 1666   7.636   9.135   9.660  0.6649  0.5418  2.0706
   67THY    CA4 1667   7.723   9.003   9.521  0.1508 -0.2462  0.4003
   67THY    HA4 1668   7.626   8.998   9.473  0.3352  0.4049 -0.0561
   67THY    CA5 1669   7.835   8.929   9.481 -0.4695  0.1191 -0.6113
   67THY    CM1 1670   7.829   8.862   9.356 -0.0825  0.3195  0.2313
   67THY    HM1 1671   7.933   8.838   9.329  0.4852  0.9260  1.7946
   67THY    HM2 1672   7.770   8.770   9.364 -2.8284  2.0301  0.9397
   67THY    HM3 1673   7.786   8.931   9.282  3.6841  1.7964 -0.8491
   67THY    CA6 1674   7.950   8.925   9.558 -0.0933 -0.3970 -1.0840
   67THY    HA6 1675   8.039   8.866   9.537  1.0405  0.0198  2.0109
   68THY      O 1676   1.012   6.087   8.448  0.0547 -0.2622  0.9605
   68THY     HO 1677   0.921   6.104   8.419  0.9889  1.0086 -1.5201
   68THY    CA1 1678   1.079   6.205   8.455  0.1438 -0.2013  0.1074
   68THY    CA2 1679   1.198   6.209   8.533 -0.2293  0.3423  0.0227
   68THY    CP1 1680   1.253   6.090   8.606 -0.4642 -0.3640 -0.8570
   68THY    HP1 1681   1.189   6.001   8.596  2.7192 -3.0536  0.5316
   68THY    CP2 1682   1.405   6.064   8.567 -0.2959 -0.1739 -0.4549
   68THY    HP2 1683   1.426   6.057   8.460 -0.5500 -4.9975 -0.3839
   68THY    HP3 1684   1.471   6.138   8.615  1.2275 -2.3455  1.0031
   68THY    HP4 1685   1.424   5.966   8.612 -1.4407 -0.4463 -0.5347
   68THY    CP3 1686   1.249   6.115   8.756  0.1176  0.3292  0.1879
   68THY    HP5 1687   1.260   6.016   8.802 -2.4366 -2.1458 -3.9047
   68THY    HP6 1688   1.330   6.182   8.788  0.6106 -0.1743  0.0031
   68THY    HP7 1689   1.154   6.153   8.797  0.1869  0.4587  0.2333
   68THY    CA3 1690   1.263   6.338   8.536  0.4912  0.2014 -0.3572
   68THY    HA3 1691   1.356   6.355   8.591 -1.3391  2.9769  2.1966
   68THY    CA4 1692   1.211   6.444   8.465 -0.0192  0.0965  0.2305
   68THY    HA4 1693   1.257   6.542   8.457  0.3654 -0.1711 -1.0086
   68THY    CA5 1694   1.094   6.431   8.388  0.7315  0.1245 -0.6232
   68THY    CM1 1695   1.053   6.530   8.283  0.0071 -0.4101 -0.3419
   68THY    HM1 1696   0.953   6.563   8.314  0.8114  1.4545  0.4253
   68THY    HM2 1697   1.112   6.620   8.305 -0.8319  0.1960 -0.5346
   68THY    HM3 1698   1.064   6.490   8.182  0.4023 -0.4849 -0.2725
   68THY    CA6 1699   1.021   6.312   8.395  0.4833 -0.6626 -0.3785
   68THY    HA6 1700   0.930   6.301   8.337 -0.4650 -1.4877  1.1955
   69THY      O 1701   7.061   7.212   2.376 -0.1036 -1.0213  0.0754
   69THY     HO 1702   7.076   7.283   2.441  1.9087  0.0074 -1.3932
   69THY    CA1 1703   6.926   7.197   2.371 -0.5628  0.5587  0.5655
   69THY    CA2 1704   6.854   7.221   2.254  0.2384 -0.5630  0.7458
   69THY    CP1 1705   6.926   7.267   2.118  0.5820  0.8657 -0.7761
   69THY    HP1 1706   7.028   7.288   2.154  0.1589  0.0446  0.9636
   69THY    CP2 1707   6.912   7.146   2.012  0.6774 -0.0826 -0.1809
   69THY    HP2 1708   6.916   7.048   2.061 -1.6077  0.6639  1.6465
   69THY    HP3 1709   6.819   7.159   1.956  0.2347 -2.8066 -0.1841
   69THY    HP4 1710   6.993   7.150   1.937 -0.2730  1.7387 -1.1804
   69THY    CP3 1711   6.891   7.408   2.068 -0.1675  0.4240  0.3193
   69THY    HP5 1712   6.784   7.431   2.063  0.1527  2.4950  1.5066
   69THY    HP6 1713   6.918   7.479   2.148 -1.6830  1.2436  0.1537
   69THY    HP7 1714   6.935   7.453   1.978  1.0275  1.2473  1.2817
   69THY    CA3 1715   6.715   7.196   2.259  0.6469  0.3819  0.2264
   69THY    HA3 1716   6.663   7.213   2.165  0.2996 -0.1532  0.3229
   69THY    CA4 1717   6.656   7.171   2.382 -0.8008 -0.1103 -0.3503
   69THY    HA4 1718   6.548   7.173   2.387 -0.7493  0.2120  0.9939
   69THY    CA5 1719   6.729   7.159   2.498  0.6457  0.2069  0.1314
   69THY    CM1 1720   6.668   7.133   2.637  0.5834 -0.0096 -0.1894
   69THY    HM1 1721   6.558   7.129   2.632  0.3093 -2.7999  3.5752
   69THY    HM2 1722   6.694   7.028   2.658 -0.0760 -1.0768 -3.8569
   69THY    HM3 1723   6.700   7.195   2.721 -1.5244  0.8163  0.0791
   69THY    CA6 1724   6.867   7.163   2.496  0.4117 -0.3804  0.2577
   69THY    HA6 1725   6.924   7.156   2.588  0.7910  1.0134  0.1469
   70THY      O 1726   8.722   1.442   6.853 -0.1321 -0.4189  0.1485
   70THY     HO 1727   8.681   1.357   6.831  0.4815 -1.1475  1.6510
   70THY    CA1 1728   8.780   1.489   6.749  0.0827  0.0511 -0.8730
   70THY    CA2 1729   8.865   1.600   6.757  0.8065 -0.0801  0.5522
   70THY    CP1 1730   8.910   1.657   6.893 -0.5669  0.4048 -0.2067
   70THY    HP1 1731   8.828   1.657   6.965  0.5991  0.4655  1.1612
   70THY    CP2 1732   9.028   1.559   6.930 -0.2076  0.6162  0.2906
   70THY    HP2 1733   9.080   1.585   7.023 -0.9590  1.0638  0.5969
   70THY    HP3 1734   8.984   1.462   6.957  0.1550  0.7011  1.2407
   70THY    HP4 1735   9.097   1.557   6.845 -0.8039  2.9090 -0.3127
   70THY    CP3 1736   8.943   1.812   6.889 -0.3469 -0.5642 -0.2780
   70THY    HP5 1737   9.048   1.825   6.860 -0.5152  1.8683 -0.0647
   70THY    HP6 1738   8.869   1.875   6.839 -1.2816 -0.0182  1.6751
   70THY    HP7 1739   8.937   1.859   6.988  1.5262 -0.5889 -0.1197
   70THY    CA3 1740   8.902   1.660   6.634 -0.6766 -0.5696  1.0423
   70THY    HA3 1741   8.973   1.743   6.629  0.4540 -1.5662 -2.3137
   70THY    CA4 1742   8.849   1.610   6.512 -0.0034  0.2734  1.3614
   70THY    HA4 1743   8.881   1.645   6.414 -1.2828 -1.4437  0.2866
   70THY    CA5 1744   8.769   1.500   6.508 -0.4873  0.5972 -0.7816
   70THY    CM1 1745   8.714   1.445   6.377  0.3487  0.3026 -0.1740
   70THY    HM1 1746   8.617   1.399   6.396 -0.1721  2.1959  2.3054
   70THY    HM2 1747   8.707   1.520   6.298  0.0158  1.5802  1.0241
   70THY    HM3 1748   8.771   1.358   6.344 -2.1587 -1.4217 -0.2344
   70THY    CA6 1749   8.733   1.440   6.627 -0.0370 -0.8286 -1.3297
   70THY    HA6 1750   8.653   1.367   6.638 -2.8018  1.8394 -2.0908
   71THY      O 1751   0.242   3.708   8.045  0.1599  0.5201  0.5219
   71THY     HO 1752   0.269   3.615   8.036  0.1688  0.5656  0.0390
   71THY    CA1 1753   0.143   3.725   7.951 -0.7551  0.3372 -0.1329
   71THY    CA2 1754   0.049   3.826   7.965 -0.5001 -0.4214 -0.1179
   71THY    CP1 1755   0.041   3.911   8.092  0.3082  0.4078  0.3343
   71THY    HP1 1756   0.068   3.846   8.176 -2.1316 -0.5987  0.4251
   71THY    CP2 1757   0.141   4.026   8.092  0.3766  0.3555  0.2049
   71THY    HP2 1758   0.245   3.998   8.076  0.2604 -0.5716  0.9635
   71THY    HP3 1759   0.106   4.090   8.010 -0.6316 -1.8410 -1.1864
   71THY    HP4 1760   0.127   4.092   8.178  2.3834  1.4148 -0.2346
   71THY    CP3 1761  -0.103   3.967   8.133 -0.2582 -0.4591 -0.6227
   71THY    HP5 1762  -0.099   4.011   8.233 -0.0984 -0.9064 -0.4320
   71THY    HP6 1763  -0.137   4.036   8.054 -2.2264 -2.4135 -1.6158
   71THY    HP7 1764  -0.170   3.880   8.138 -0.5078 -0.2668 -0.5592
   71THY    CA3 1765  -0.043   3.847   7.860  0.6058 -0.1713 -0.7365
   71THY    HA3 1766  -0.114   3.928   7.871 -0.2963 -0.9186 -0.8429
   71THY    CA4 1767  -0.043   3.770   7.742 -0.0312  0.6146 -0.1035
   71THY    HA4 1768  -0.102   3.799   7.655 -0.6660 -2.8986 -0.9888
   71THY    CA5 1769   0.056   3.672   7.727  0.4492  0.2506 -0.3171
   71THY    CM1 1770   0.079   3.597   7.604  0.3424 -0.5684  0.2367
   71THY    HM1 1771  -0.003   3.525   7.592  0.1455 -1.1358  3.9136
   71THY    HM2 1772   0.082   3.673   7.525 -1.0809  0.2103  0.9012
   71THY    HM3 1773   0.180   3.555   7.603  1.6306  2.3126  0.6330
   71THY    CA6 1774   0.147   3.646   7.833  0.0454 -0.3410 -0.2463
   71THY    HA6 1775   0.222   3.569   7.818 -1.0790 -1.6742  0.7397
   72THY      O 1776   3.482   1.860   2.609 -0.3039 -0.1885  0.5025
   72THY     HO 1777   3.501   1.822   2.696  1.0301  0.1749  0.3934
   72THY    CA1 1778   3.550   1.976   2.602  0.5305 -0.1617 -0.5309
   72THY    CA2 1779   3.549   2.057   2.486 -0.1668 -0.4489 -0.3775
   72THY    CP1 1780   3.486   2.010   2.353 -0.0915  0.4643  0.6121
   72THY    HP1 1781   3.404   1.944   2.381  0.2849  0.5713  2.0099
   72THY    CP2 1782   3.438   2.128   2.268 -0.8760 -0.2851 -0.3164
   72THY    HP2 1783   3.355   2.096   2.202 -0.8068 -1.8313  0.2957
   72THY    HP3 1784   3.385   2.205   2.325  0.0569  0.8276 -0.9285
   72THY    HP4 1785   3.518   2.173   2.208  0.6442 -2.5986 -0.1211
   72THY    CP3 1786   3.590   1.933   2.262 -0.0248 -0.2966 -0.3255
   72THY    HP5 1787   3.663   2.005   2.222 -0.0604  0.1120  0.3377
   72THY    HP6 1788   3.639   1.849   2.313 -0.6005 -0.1853  0.4277
   72THY    HP7 1789   3.547   1.898   2.168  0.1701 -0.8869 -0.1988
   72THY    CA3 1790   3.610   2.187   2.500 -0.8575  0.1949  0.0663
   72THY    HA3 1791   3.625   2.259   2.420 -0.1395 -1.0418 -0.9546
   72THY    CA4 1792   3.674   2.219   2.621 -0.0418  0.4379 -0.1108
   72THY    HA4 1793   3.718   2.318   2.630 -1.0408  1.0943 -1.9765
   72THY    CA5 1794   3.672   2.134   2.731  0.9363 -0.7592  0.9588
   72THY    CM1 1795   3.720   2.184   2.857 -0.5138 -0.5545 -0.3514
   72THY    HM1 1796   3.759   2.099   2.915 -2.6433 -1.4882 -0.2133
   72THY    HM2 1797   3.799   2.260   2.844 -1.3341  0.3281 -0.2774
   72THY    HM3 1798   3.629   2.218   2.907 -1.4649 -4.2229  0.6617
   72THY    CA6 1799   3.607   2.013   2.720  0.2829  0.5896  0.3860
   72THY    HA6 1800   3.612   1.952   2.809  0.9145  1.6817  1.1244
   73THY      O 1801   7.924   7.694   4.300  0.2116 -0.0110 -0.0316
   73THY     HO 1802   8.004   7.716   4.249 -1.0835 -0.3747 -2.3491
   73THY    CA1 1803   7.911   7.756   4.422  0.3174 -0.1482  0.0949
   73THY    CA2 1804   7.793   7.747   4.491 -0.9329  1.2781 -0.6389
   73THY    CP1 1805   7.700   7.635   4.452  0.4383  0.9502 -0.2966
   73THY    HP1 1806   7.708   7.610   4.346 -0.0221 -0.6508  0.0152
   73THY    CP2 1807   7.733   7.505   4.530 -0.1765 -0.1039 -0.0907
   73THY    HP2 1808   7.672   7.427   4.482 -1.0042  0.1480  0.5385
   73THY    HP3 1809   7.838   7.473   4.518  0.5900  1.3519  2.1990
   73THY    HP4 1810   7.710   7.522   4.635  3.5735  2.7159  0.4854
   73THY    CP3 1811   7.552   7.676   4.464  0.2453  0.9907 -0.4340
   73THY    HP5 1812   7.533   7.768   4.407 -0.1884  0.2959 -1.4271
   73THY    HP6 1813   7.492   7.591   4.430  3.1987 -1.8782  0.9633
   73THY    HP7 1814   7.528   7.700   4.569 -1.7701  2.4842 -1.1634
   73THY    CA3 1815   7.777   7.813   4.611 -0.4241  0.6238 -0.1017
   73THY    HA3 1816   7.689   7.809   4.675  0.6053  1.6755  1.4626
   73THY    CA4 1817   7.872   7.902   4.658 -0.1148  0.1649 -0.0236
   73THY    HA4 1818   7.849   7.954   4.751  0.0798  2.1180 -1.0149
   73THY    CA5 1819   7.990   7.918   4.577  0.3511  0.0711 -0.6755
   73THY    CM1 1820   8.085   8.027   4.605  0.2740 -0.3546  0.7369
   73THY    HM1 1821   8.099   8.022   4.714  0.8101  0.8186  0.7373
   73THY    HM2 1822   8.181   7.998   4.560  0.2280 -0.4162  0.6786
   73THY    HM3 1823   8.054   8.128   4.576  1.9414 -0.1657 -0.5746
   73THY    CA6 1824   8.007   7.848   4.459  0.3343  0.2290  0.4224
   73THY    HA6 1825   8.099   7.860   4.402 -0.1877  1.9598 -0.1269
   74THY      O 1826   2.696   5.018   3.824 -0.5741  0.4388 -0.4037
   74THY     HO 1827   2.665   4.978   3.907  0.7310 -0.5694 -0.3657
   74THY    CA1 1828   2.593   5.094   3.778  0.3725 -0.1633  0.1210
   74THY    CA2 1829   2.607   5.224   3.718 -0.0273  0.3757  0.1370
   74THY    CP1 1830   2.741   5.292   3.709 -0.1939  0.0189 -0.0109
   74THY    HP1 1831   2.816   5.214   3.721  0.9229  0.8924 -1.0672
   74THY    CP2 1832   2.763   5.358   3.571 -0.0090  0.5535  0.5595
   74THY    HP2 1833   2.767   5.279   3.494  1.5178 -1.0278  2.1573
   74THY    HP3 1834   2.683   5.432   3.557 -0.2138  1.0359  3.5177
   74THY    HP4 1835   2.858   5.412   3.571 -0.4914  1.4177  0.7895
   74THY    CP3 1836   2.773   5.395   3.815 -0.4468 -0.0932 -0.1333
   74THY    HP5 1837   2.788   5.344   3.910  0.5120 -1.9695 -1.2485
   74THY    HP6 1838   2.854   5.467   3.802 -1.7466  1.5208  0.2622
   74THY    HP7 1839   2.691   5.466   3.835  0.9236  1.2062  1.0963
   74THY    CA3 1840   2.489   5.293   3.679  0.0877 -0.5909  0.4956
   74THY    HA3 1841   2.504   5.398   3.655 -0.8266 -0.8661 -1.5329
   74THY    CA4 1842   2.362   5.233   3.699  0.1671 -0.6394  0.2330
   74THY    HA4 1843   2.285   5.306   3.676  1.7148  1.2741  0.7538
   74THY    CA5 1844   2.350   5.101   3.741  0.8123 -0.2758 -0.7348
   74THY    CM1 1845   2.224   5.025   3.774  0.4209 -0.7433  0.1425
   74THY    HM1 1846   2.233   4.921   3.807 -2.8409 -0.9680  0.6891
   74THY    HM2 1847   2.169   5.084   3.849 -0.0526 -1.3597  0.2859
   74THY    HM3 1848   2.171   5.011   3.679 -3.0440 -2.3342  2.1041
   74THY    CA6 1849   2.466   5.038   3.797  0.1380 -0.7815  0.2196
   74THY    HA6 1850   2.456   4.936   3.833 -2.0133 -0.6246  0.2245
   75THY      O 1851   3.329   7.930   0.165  0.1700 -0.9915 -0.0313
   75THY     HO 1852   3.304   7.999   0.101  1.4695  0.7392  1.2003
   75THY    CA1 1853   3.264   7.956   0.286 -0.1849  0.2667 -0.6165
   75THY    CA2 1854   3.297   7.887   0.406 -1.0506  0.4442  0.6058
   75THY    CP1 1855   3.402   7.783   0.393  0.9401  0.2373 -0.3268
   75THY    HP1 1856   3.418   7.746   0.291 -1.1743  3.2080 -1.8690
   75THY    CP2 1857   3.528   7.830   0.457 -0.2652  0.1923  0.2350
   75THY    HP2 1858   3.565   7.906   0.386  1.6702 -1.0940 -0.2400
   75THY    HP3 1859   3.516   7.870   0.558 -0.3189  3.6142 -0.9754
   75THY    HP4 1860   3.591   7.740   0.454 -1.1621 -0.4766  1.0529
   75THY    CP3 1861   3.348   7.654   0.460 -0.5304  0.0542  0.2785
   75THY    HP5 1862   3.413   7.568   0.446 -1.5906 -1.4325  3.4417
   75THY    HP6 1863   3.325   7.666   0.567 -1.4828 -1.1467  0.2319
   75THY    HP7 1864   3.260   7.624   0.403  1.2174 -0.7721 -2.1241
   75THY    CA3 1865   3.240   7.932   0.533 -0.0768 -0.8115 -0.2490
   75THY    HA3 1866   3.272   7.876   0.620 -1.5075 -1.9902 -0.4276
   75THY    CA4 1867   3.144   8.038   0.534 -0.5027 -1.0189  0.0792
   75THY    HA4 1868   3.100   8.072   0.628  1.0545  0.0919  0.4616
   75THY    CA5 1869   3.114   8.104   0.414  0.5765 -0.1350  0.0418
   75THY    CM1 1870   3.002   8.203   0.426  0.1872 -0.0683  0.2009
   75THY    HM1 1871   2.987   8.256   0.330  1.3159  0.8298  0.4967
   75THY    HM2 1872   2.906   8.154   0.444 -0.3776  1.0144  0.2189
   75THY    HM3 1873   3.014   8.276   0.507 -0.8961  2.1529 -1.5153
   75THY    CA6 1874   3.170   8.060   0.295 -0.0096  0.4866  0.5150
   75THY    HA6 1875   3.132   8.110   0.206  0.3401  1.3339  0.8272
   76THY      O 1876   7.492   4.827   9.195  0.5579  0.0632  0.3315
   76THY     HO 1877   7.558   4.867   9.254 -1.1444  0.2974  2.1848
   76THY    CA1 1878   7.549   4.775   9.083 -0.2604 -0.8978 -0.0722
   76THY    CA2 1879   7.496   4.662   9.016 -0.5736 -0.3526 -0.0486
   76THY    CP1 1880   7.367   4.595   9.070 -0.3180 -0.5333  0.7009
   76THY    HP1 1881   7.360   4.619   9.177  1.0595 -0.1079  0.7110
   76THY    CP2 1882   7.241   4.653   8.994 -0.1066  0.0902 -0.2066
   76THY    HP2 1883   7.221   4.756   9.023 -1.6128 -0.3466  0.3862
   76THY    HP3 1884   7.255   4.647   8.885  0.5809 -1.7823 -0.0616
   76THY    HP4 1885   7.151   4.599   9.025  0.3306  0.7203  2.3428
   76THY    CP3 1886   7.362   4.438   9.066 -0.0912  0.0562  0.0168
   76THY    HP5 1887   7.458   4.417   9.114  1.5312  2.0045 -2.1559
   76THY    HP6 1888   7.272   4.397   9.113 -1.3129  2.0833 -0.3981
   76THY    HP7 1889   7.379   4.391   8.968  0.1321  0.9626 -0.3984
   76THY    CA3 1890   7.561   4.630   8.891  0.7677  0.6592 -0.3728
   76THY    HA3 1891   7.529   4.545   8.833 -0.3504  1.8488 -1.5883
   76THY    CA4 1892   7.674   4.701   8.853  0.0685 -0.1065 -0.9964
   76THY    HA4 1893   7.733   4.672   8.767  2.1451  1.6630 -0.2575
   76THY    CA5 1894   7.725   4.803   8.933  0.1093 -0.6023  0.7822
   76THY    CM1 1895   7.852   4.866   8.882 -0.5959  0.4127 -0.2772
   76THY    HM1 1896   7.896   4.818   8.794 -0.0378  0.9753 -0.3142
   76THY    HM2 1897   7.847   4.974   8.863  0.1708  0.4099 -0.5243
   76THY    HM3 1898   7.929   4.846   8.958  1.0392  0.6485 -1.8020
   76THY    CA6 1899   7.665   4.846   9.047 -0.8113 -0.0715 -0.4205
   76THY    HA6 1900   7.697   4.934   9.102  0.7468 -0.7162 -0.2656
   77THY      O 1901   1.121   0.293   1.324  0.2512 -0.4189 -0.0123
   77THY     HO 1902   1.185   0.360   1.354 -0.8291  0.7351 -0.1781
   77THY    CA1 1903   1.003   0.359   1.324  0.8452  0.1140  0.0437
   77THY    CA2 1904   0.889   0.311   1.240 -0.0951  0.5025 -0.5440
   77THY    CP1 1905   0.910   0.191   1.150  0.2143 -0.5869 -0.0342
   77THY    HP1 1906   1.004   0.145   1.185  0.1257  0.4413  1.6609
   77THY    CP2 1907   0.804   0.076   1.159 -0.5227  0.7160  0.0460
   77THY    HP2 1908   0.822   0.005   1.240  0.2343  0.8312 -0.0175
   77THY    HP3 1909   0.705   0.121   1.174  0.2458  2.0499  1.4163
   77THY    HP4 1910   0.795   0.013   1.070  1.9977 -2.7562  2.0073
   77THY    CP3 1911   0.934   0.235   1.003 -0.7773  0.0931 -0.7541
   77THY    HP5 1912   0.850   0.289   0.959 -1.1606  0.8054  0.7871
   77THY    HP6 1913   1.017   0.306   0.993  1.3773 -1.8628  1.5760
   77THY    HP7 1914   0.952   0.142   0.948  2.2879 -0.0355  0.2739
   77THY    CA3 1915   0.775   0.386   1.238 -0.0410 -0.3247 -0.2635
   77THY    HA3 1916   0.701   0.350   1.167 -1.1454 -0.2440  0.8174
   77THY    CA4 1917   0.756   0.496   1.328 -0.8851 -0.0940  0.3362
   77THY    HA4 1918   0.666   0.557   1.317 -0.4652  0.8501  1.9490
   77THY    CA5 1919   0.860   0.535   1.413 -0.2853 -0.1822  0.5155
   77THY    CM1 1920   0.853   0.667   1.477 -0.1892  0.0415 -0.3867
   77THY    HM1 1921   0.749   0.693   1.504  0.3437 -0.3121  2.3532
   77THY    HM2 1922   0.893   0.656   1.579 -0.6097 -0.8766 -0.3126
   77THY    HM3 1923   0.903   0.752   1.431  3.1706 -0.2407  2.3305
   77THY    CA6 1924   0.984   0.463   1.414 -0.5051  0.6993 -0.0431
   77THY    HA6 1925   1.066   0.505   1.471  0.4334  0.9518 -1.5274
   78THY      O 1926   9.787   9.555   3.695  0.3243 -0.3612 -0.6560
   78THY     HO 1927   9.716   9.536   3.758  0.7646  0.1082 -0.0017
   78THY    CA1 1928   9.755   9.483   3.586 -0.0558  0.0582 -0.7455
   78THY    CA2 1929   9.846   9.400   3.510  0.1941 -0.8406 -0.2683
   78THY    CP1 1930   9.999   9.423   3.536  0.5067  0.8609 -0.3900
   78THY    HP1 1931  10.001   9.500   3.614 -2.7074 -2.4195  3.4010
   78THY    CP2 1932  10.078   9.293   3.583 -0.0036  0.3039 -0.3599
   78THY    HP2 1933  10.029   9.227   3.656 -2.8967  2.0787 -0.5192
   78THY    HP3 1934  10.108   9.232   3.498 -1.3262 -0.2735 -0.4304
   78THY    HP4 1935  10.171   9.329   3.628  0.5105 -1.1225 -0.2290
   78THY    CP3 1936  10.071   9.466   3.406  0.3871  0.5161 -0.6080
   78THY    HP5 1937  10.170   9.509   3.422 -0.6958  3.1680 -0.5345
   78THY    HP6 1938  10.072   9.388   3.329 -0.6584  0.9368 -1.0708
   78THY    HP7 1939  10.015   9.548   3.361 -0.4420  2.0405  2.8685
   78THY    CA3 1940   9.797   9.309   3.415  0.5385 -0.1042 -0.2466
   78THY    HA3 1941   9.869   9.233   3.386  1.1430  0.1663  0.5116
   78THY    CA4 1942   9.654   9.297   3.405  0.2682 -0.3850 -0.1502
   78THY    HA4 1943   9.609   9.217   3.346 -1.2028 -0.6552  1.2684
   78THY    CA5 1944   9.571   9.383   3.476 -0.6400 -0.3676 -0.3971
   78THY    CM1 1945   9.428   9.381   3.444  0.4186  1.5403 -0.0114
   78THY    HM1 1946   9.407   9.417   3.343 -1.4279  1.3620  0.2711
   78THY    HM2 1947   9.385   9.280   3.446 -0.4716  1.9167  0.8566
   78THY    HM3 1948   9.364   9.451   3.499 -0.3996  0.1260  0.8997
   78THY    CA6 1949   9.619   9.466   3.578 -0.0710 -0.3745  0.2997
   78THY    HA6 1950   9.545   9.521   3.635  0.7735  1.9348 -0.7172
   79THY      O 1951   3.973   8.585   3.215  0.0983 -0.3889 -0.0553
   79THY     HO 1952   4.047   8.550   3.163  1.6708  1.2291  0.9409
   79THY    CA1 1953   4.043   8.649   3.314  0.2922 -0.1642 -0.5649
   79THY    CA2 1954   3.994   8.735   3.408  1.1620 -0.0382  0.7755
   79THY    CP1 1955   3.845   8.774   3.412  0.1222  0.2134  0.7031
   79THY    HP1 1956   3.787   8.717   3.339  0.2165  0.6877  0.2554
   79THY    CP2 1957   3.772   8.740   3.549 -0.4884 -0.1773  0.9364
   79THY    HP2 1958   3.830   8.784   3.630  1.3742 -0.4161 -0.2060
   79THY    HP3 1959   3.679   8.797   3.562  0.9517  2.1829  1.3775
   79THY    HP4 1960   3.764   8.631   3.561  2.5129 -0.7863 -1.4280
   79THY    CP3 1961   3.827   8.931   3.388 -0.4897  0.2878  0.5254
   79THY    HP5 1962   3.719   8.954   3.386 -0.4271  0.5680 -0.0494
   79THY    HP6 1963   3.873   8.998   3.461  2.7515 -0.9829 -0.1945
   79THY    HP7 1964   3.865   8.959   3.289 -1.0216 -0.7745 -0.0063
   79THY    CA3 1965   4.084   8.779   3.511 -0.1422 -0.7752  0.7273
   79THY    HA3 1966   4.053   8.834   3.600  2.4199 -0.2175  1.3646
   79THY    CA4 1967   4.218   8.756   3.504 -0.2754  0.3187  0.1963
   79THY    HA4 1968   4.281   8.792   3.585 -0.3385  0.2229  0.2884
   79THY    CA5 1969   4.270   8.674   3.405 -0.4076  0.1310  0.1345
   79THY    CM1 1970   4.417   8.633   3.406  0.4819  0.1632  0.3913
   79THY    HM1 1971   4.432   8.582   3.502  0.7724  1.4767  1.0570
   79THY    HM2 1972   4.437   8.562   3.325 -2.0557  0.1656 -0.3281
   79THY    HM3 1973   4.479   8.723   3.403  1.5335 -0.3983  2.8684
   79THY    CA6 1974   4.181   8.609   3.325 -0.2899 -0.0492  0.0045
   79THY    HA6 1975   4.223   8.531   3.262 -0.1569 -0.3102  0.4139
   80THY      O 1976   1.610   1.326   3.039  0.3325  0.2663 -0.6556
   80THY     HO 1977   1.637   1.405   3.089 -0.6045 -0.3059  0.8223
   80THY    CA1 1978   1.727   1.276   3.004 -0.5594 -0.3101  0.0893
   80THY    CA2 1979   1.749   1.133   2.994  0.5886 -0.8883  0.2429
   80THY    CP1 1980   1.636   1.026   3.018 -0.7842 -0.1117  0.1035
   80THY    HP1 1981   1.544   1.072   3.056 -1.8442 -2.5506  0.7508
   80THY    CP2 1982   1.583   0.970   2.887  0.2073 -0.0154  1.0796
   80THY    HP2 1983   1.504   0.896   2.905  0.4356 -0.3690  0.6431
   80THY    HP3 1984   1.550   1.048   2.818  2.6681  0.3766  0.2345
   80THY    HP4 1985   1.661   0.925   2.825  0.7934 -0.2572  1.9624
   80THY    CP3 1986   1.678   0.902   3.108  0.8315  0.0664 -0.0504
   80THY    HP5 1987   1.595   0.874   3.174  2.3374  0.3237  2.0489
   80THY    HP6 1988   1.715   0.815   3.053 -2.0435 -1.4146  0.1606
   80THY    HP7 1989   1.763   0.931   3.171  1.9959  0.6828 -1.8138
   80THY    CA3 1990   1.871   1.078   2.960  0.1995 -0.1334 -0.4649
   80THY    HA3 1991   1.880   0.971   2.948 -1.2336 -0.3622  0.2254
   80THY    CA4 1992   1.984   1.166   2.941  0.0990  1.1602 -0.0799
   80THY    HA4 1993   2.083   1.125   2.928  0.4633  2.3808 -1.3892
   80THY    CA5 1994   1.966   1.303   2.955 -0.2358 -0.2148 -0.2999
   80THY    CM1 1995   2.076   1.399   2.933  0.0539  0.0995  0.2784
   80THY    HM1 1996   2.169   1.352   2.969 -0.6134 -1.8414 -0.4353
   80THY    HM2 1997   2.088   1.419   2.826  0.8395 -0.2584  0.2883
   80THY    HM3 1998   2.076   1.496   2.984 -0.0567  0.3172 -0.1297
   80THY    CA6 1999   1.839   1.360   2.990 -0.5311  0.6289 -0.8588
   80THY    HA6 2000   1.823   1.463   3.022 -1.5430  0.5206 -0.9739
   81THY      O 2001   5.941   5.216   2.539 -0.0559 -0.6149 -0.2513
   81THY     HO 2002   5.891   5.235   2.620  0.8761 -0.8440  0.3858
   81THY    CA1 2003   6.062   5.275   2.554  0.2772 -0.2524 -0.7001
   81THY    CA2 2004   6.157   5.295   2.454  0.0358  0.0001  0.0329
   81THY    CP1 2005   6.124   5.252   2.311  0.8704 -0.8845  0.7287
   81THY    HP1 2006   6.036   5.187   2.302 -0.1477  0.7178 -2.8007
   81THY    CP2 2007   6.100   5.373   2.221  0.0503  0.2125 -0.5964
   81THY    HP2 2008   6.059   5.341   2.125  0.3201 -1.3995 -0.1908
   81THY    HP3 2009   6.025   5.443   2.261  0.2777 -0.2530  0.7108
   81THY    HP4 2010   6.187   5.434   2.194  0.1993 -0.9528 -2.9950
   81THY    CP3 2011   6.240   5.173   2.254 -0.3373  0.3460 -0.1027
   81THY    HP5 2012   6.253   5.075   2.302  0.0346  0.6411  0.3944
   81THY    HP6 2013   6.216   5.150   2.149 -1.3142  2.2905 -0.3425
   81THY    HP7 2014   6.336   5.225   2.249 -0.1716  0.1795  1.1973
   81THY    CA3 2015   6.283   5.361   2.476  0.3410  0.0966 -0.2427
   81THY    HA3 2016   6.348   5.388   2.394  0.9640  1.7069  0.7449
   81THY    CA4 2017   6.303   5.393   2.613  0.8555 -0.1814 -0.5361
   81THY    HA4 2018   6.398   5.429   2.651  1.4937  0.6415 -2.7490
   81THY    CA5 2019   6.206   5.369   2.714  0.2335  0.5858  0.9768
   81THY    CM1 2020   6.235   5.412   2.859  0.2008 -0.3287 -0.8632
   81THY    HM1 2021   6.183   5.506   2.879 -1.7327 -1.0006 -2.3485
   81THY    HM2 2022   6.191   5.331   2.918 -1.6670  0.4264 -1.1447
   81THY    HM3 2023   6.342   5.429   2.870  0.5271 -0.3319 -3.3418
   81THY    CA6 2024   6.091   5.304   2.683 -0.2119  0.1666 -0.2512
   81THY    HA6 2025   6.030   5.285   2.771 -1.3100  3.2918 -0.2133
   82THY      O 2026   8.767   6.622   0.344  0.4463  0.1860 -0.0795
   82THY     HO 2027   8.764   6.531   0.379 -1.7222  0.0320 -0.4837
   82THY    CA1 2028   8.706   6.611   0.227 -0.2110 -0.8968  0.1396
   82THY    CA2 2029   8.727   6.705   0.127 -0.4089  0.9582  0.2516
   82THY    CP1 2030   8.822   6.819   0.138  0.3189  0.0712 -0.1319
   82THY    HP1 2031   8.872   6.824   0.235 -1.7157 -0.2854  0.9859
   82THY    CP2 2032   8.929   6.824   0.034 -0.1908 -0.1235  0.8815
   82THY    HP2 2033   8.982   6.920   0.027  1.6503 -1.1789 -0.8614
   82THY    HP3 2034   9.007   6.747   0.038 -0.3773 -0.4577 -0.9022
   82THY    HP4 2035   8.896   6.804  -0.069  0.8832  2.9423 -0.1841
   82THY    CP3 2036   8.737   6.952   0.128 -0.0468  0.8148 -0.0197
   82THY    HP5 2037   8.630   6.938   0.150  0.2727 -1.2806  0.3681
   82THY    HP6 2038   8.789   7.004   0.209  1.4379 -1.6027  0.6765
   82THY    HP7 2039   8.749   7.002   0.031  0.7391 -2.8883 -1.9952
   82THY    CA3 2040   8.651   6.700   0.007  0.1705 -0.1149  0.3668
   82THY    HA3 2041   8.665   6.771  -0.074 -0.7530 -1.9823 -1.5378
   82THY    CA4 2042   8.561   6.597  -0.003 -0.3923  0.4440  0.6673
   82THY    HA4 2043   8.510   6.572  -0.096  1.5670 -1.4880  0.0052
   82THY    CA5 2044   8.546   6.496   0.097  0.9416  0.2736 -0.3124
   82THY    CM1 2045   8.454   6.380   0.069  0.4394 -0.2560  0.0755
   82THY    HM1 2046   8.366   6.410   0.011  1.3161  0.9595 -0.6576
   82THY    HM2 2047   8.505   6.305   0.007 -2.0206  0.5183 -3.1443
   82THY    HM3 2048   8.416   6.343   0.165 -2.0266  1.8712  0.0308
   82THY    CA6 2049   8.618   6.504   0.215 -0.6790  0.1733  0.2745
   82THY    HA6 2050   8.618   6.428   0.292  2.4266 -0.2458 -0.0345
   83THY      O 2051   6.969   7.622   6.259 -0.9009  0.3546  0.3208
   83THY     HO 2052   7.005   7.699   6.213 -1.3722  0.3691 -0.0383
   83THY    CA1 2053   7.084   7.556   6.309 -0.3730 -1.0678 -0.0183
   83THY    CA2 2054   7.094   7.511   6.449  0.4723 -0.0102  0.8116
   83THY    CP1 2055   6.970   7.512   6.536  0.1594 -0.0335 -0.4452
   83THY    HP1 2056   6.884   7.549   6.480  0.6987  1.1317 -0.5323
   83THY    CP2 2057   6.926   7.373   6.593  0.2986  0.1785  0.0738
   83THY    HP2 2058   6.830   7.381   6.646  2.0703 -1.5392  3.9184
   83THY    HP3 2059   6.933   7.298   6.513 -0.8992  0.9771 -0.8193
   83THY    HP4 2060   6.983   7.335   6.678 -1.8698 -1.9523  0.7104
   83THY    CP3 2061   6.973   7.620   6.645  0.4749  0.0530  0.3993
   83THY    HP5 2062   6.874   7.635   6.689  0.1724 -2.4414  0.7047
   83THY    HP6 2063   7.050   7.594   6.719  1.7648  2.8021  0.1309
   83THY    HP7 2064   7.005   7.712   6.596  1.8406  0.2080  1.5105
   83THY    CA3 2065   7.222   7.456   6.486  0.5075  0.3822 -0.1997
   83THY    HA3 2066   7.238   7.416   6.586  1.3033  1.6566  0.2092
   83THY    CA4 2067   7.327   7.453   6.399  0.3409  0.7347 -0.8973
   83THY    HA4 2068   7.418   7.415   6.445 -0.7359  0.6888  1.3620
   83THY    CA5 2069   7.320   7.508   6.275 -0.3323  0.7796  0.4133
   83THY    CM1 2070   7.444   7.517   6.187  0.4840  0.4441 -0.1385
   83THY    HM1 2071   7.533   7.553   6.239  1.2388  1.0587 -1.7726
   83THY    HM2 2072   7.466   7.417   6.147 -1.4169 -0.3880  0.7678
   83THY    HM3 2073   7.422   7.581   6.100 -0.0365  1.2189  0.5429
   83THY    CA6 2074   7.200   7.564   6.229 -0.9744 -0.2805  0.0592
   83THY    HA6 2075   7.195   7.610   6.131  0.3027 -1.2054 -0.4737
   84THY      O 2076   7.063   7.250   9.941  0.5003 -0.0738 -0.1177
   84THY     HO 2077   7.053   7.344   9.964  0.9939 -0.2860  1.0196
   84THY    CA1 2078   6.953   7.220   9.872 -0.2256 -0.1990 -0.6441
   84THY    CA2 2079   6.924   7.091   9.818  0.1721 -0.1364 -0.6402
   84THY    CP1 2080   7.009   6.980   9.861  0.1637 -0.0479 -0.3468
   84THY    HP1 2081   7.099   7.015   9.913  0.0401 -1.8035  1.1350
   84THY    CP2 2082   6.923   6.883   9.950 -0.3585  0.2433  0.3410
   84THY    HP2 2083   6.915   6.916  10.054 -0.9238  2.3038 -0.3015
   84THY    HP3 2084   6.826   6.860   9.904  1.2779 -3.7615 -1.5913
   84THY    HP4 2085   6.972   6.787   9.970 -0.0386  0.7426  2.0901
   84THY    CP3 2086   7.055   6.908   9.737 -0.8755  0.3210  0.1234
   84THY    HP5 2087   6.979   6.851   9.681  1.1371 -0.9245 -1.5228
   84THY    HP6 2088   7.091   6.982   9.664  1.0419  0.0970  0.7864
   84THY    HP7 2089   7.143   6.845   9.755  0.8224  2.1845 -1.1383
   84THY    CA3 2090   6.802   7.072   9.743 -0.6338  0.2985 -0.4091
   84THY    HA3 2091   6.778   6.971   9.711 -2.0139  0.7735 -0.9539
   84THY    CA4 2092   6.721   7.177   9.713  0.0051  0.0348 -0.4637
   84THY    HA4 2093   6.643   7.157   9.640  0.2106 -2.2324 -0.1474
   84THY    CA5 2094   6.754   7.303   9.760  0.3140  0.2182 -0.0121
   84THY    CM1 2095   6.662   7.410   9.733 -0.4417 -0.7558 -0.7707
   84THY    HM1 2096   6.704   7.511   9.725 -1.3947 -0.0512  2.1201
   84THY    HM2 2097   6.611   7.397   9.636 -1.7766  1.5218 -0.4605
   84THY    HM3 2098   6.588   7.408   9.814  0.5061  1.1534  0.2064
   84THY    CA6 2099   6.860   7.319   9.847  0.5058  1.1146  0.2378
   84THY    HA6 2100   6.876   7.414   9.897  1.6554  1.3014 -0.4493
   85THY      O 2101   6.290   0.832   7.579 -0.3659  0.3382 -0.1701
   85THY     HO 2102   6.345   0.887   7.520  2.4781  0.8575  2.6667
   85THY    CA1 2103   6.371   0.801   7.685  0.0387 -0.0200  0.2878
   85THY    CA2 2104   6.358   0.867   7.808 -0.2920 -0.0781 -0.5529
   85THY    CP1 2105   6.250   0.969   7.836 -0.0776 -0.6978 -0.9782
   85THY    HP1 2106   6.216   1.004   7.738 -2.5376 -0.6002 -0.1563
   85THY    CP2 2107   6.126   0.898   7.897 -0.8431 -0.4477 -0.0456
   85THY    HP2 2108   6.053   0.980   7.898  0.5200  0.8648  2.8435
   85THY    HP3 2109   6.093   0.817   7.831 -0.8286 -0.0736 -0.5182
   85THY    HP4 2110   6.142   0.868   8.001  0.5791  1.6839  0.4191
   85THY    CP3 2111   6.289   1.096   7.934 -0.0069 -0.4543 -0.2186
   85THY    HP5 2112   6.290   1.058   8.037  0.4164 -1.4423 -0.5668
   85THY    HP6 2113   6.383   1.139   7.898  0.5709 -0.4059  1.2974
   85THY    HP7 2114   6.213   1.175   7.931  2.8987  2.5473  0.1636
   85THY    CA3 2115   6.465   0.851   7.901  0.1367  0.2067 -0.3517
   85THY    HA3 2116   6.459   0.894   8.001 -1.7089 -0.3626 -0.1685
   85THY    CA4 2117   6.572   0.762   7.880 -0.0171  0.1523  0.6780
   85THY    HA4 2118   6.649   0.751   7.956 -1.0662  2.1879  2.1504
   85THY    CA5 2119   6.567   0.683   7.765 -0.4800 -0.8844 -1.1581
   85THY    CM1 2120   6.674   0.579   7.742 -0.3277 -0.3977  0.9867
   85THY    HM1 2121   6.744   0.606   7.662 -0.3399 -2.2816  0.2587
   85THY    HM2 2122   6.731   0.548   7.830 -0.7542 -1.7580  0.8192
   85THY    HM3 2123   6.615   0.492   7.708 -0.1501  0.4942 -1.9349
   85THY    CA6 2124   6.466   0.707   7.661 -0.4713 -0.8682 -0.6148
   85THY    HA6 2125   6.472   0.654   7.566 -2.7143 -1.1755 -0.6369
   86THY      O 2126   0.494   1.562   0.052  0.6491 -0.4843  0.1046
   86THY     HO 2127   0.503   1.549  -0.044 -2.2383  1.1368 -0.5242
   86THY    CA1 2128   0.373   1.505   0.082 -0.0360 -0.6590  0.3584
   86THY    CA2 2129   0.303   1.521   0.200 -0.1343  1.0881 -0.1117
   86THY    CP1 2130   0.365   1.595   0.315  0.3453 -0.0261 -1.4568
   86THY    HP1 2131   0.456   1.642   0.275  0.7262 -2.0782 -3.1336
   86THY    CP2 2132   0.270   1.718   0.356 -0.0700  0.2941 -0.3385
   86THY    HP2 2133   0.237   1.775   0.268  3.1858  0.7278 -1.4244
   86THY    HP3 2134   0.176   1.683   0.401 -0.1042 -1.3349 -1.5798
   86THY    HP4 2135   0.319   1.798   0.411 -1.1046  0.6812  0.0496
   86THY    CP3 2136   0.401   1.501   0.431  0.1290 -0.4700 -0.4150
   86THY    HP5 2137   0.313   1.470   0.488 -1.2689  2.0016 -1.0710
   86THY    HP6 2138   0.454   1.413   0.391  2.3203 -0.6068  2.4810
   86THY    HP7 2139   0.467   1.545   0.507  0.7437 -1.1080 -0.5660
   86THY    CA3 2140   0.193   1.430   0.215 -0.0292  0.1167 -0.6390
   86THY    HA3 2141   0.140   1.421   0.309  1.7554 -0.0321  0.3823
   86THY    CA4 2142   0.156   1.335   0.121  0.5549  0.5629  0.3215
   86THY    HA4 2143   0.074   1.265   0.134  1.9620 -1.4786 -1.0540
   86THY    CA5 2144   0.229   1.326   0.004 -0.3566  0.9212  0.8281
   86THY    CM1 2145   0.197   1.214  -0.096  0.1295 -0.5128  0.6543
   86THY    HM1 2146   0.233   1.227  -0.199 -3.9720 -0.5670 -0.9761
   86THY    HM2 2147   0.241   1.123  -0.054 -0.6596 -1.0269  0.3763
   86THY    HM3 2148   0.087   1.212  -0.101 -0.1642  2.8770  2.2803
   86THY    CA6 2149   0.338   1.409  -0.015 -0.6151  0.2094 -0.3869
   86THY    HA6 2150   0.402   1.390  -0.101 -2.2878  0.1864 -1.6760
   87THY      O 2151   4.702   5.232   9.689 -0.1980 -0.1071  0.1367
   87THY     HO 2152   4.723   5.196   9.601 -0.6902  1.4354 -0.6599
   87THY    CA1 2153   4.820   5.268   9.749  0.4955 -0.2670  0.9280
   87THY    CA2 2154   4.823   5.335   9.868 -0.3161  0.2737 -0.2213
   87THY    CP1 2155   4.688   5.388   9.933 -0.6496 -0.2061 -0.1553
   87THY    HP1 2156   4.598   5.334   9.900 -0.1781 -1.4029  0.4248
   87THY    CP2 2157   4.694   5.374  10.077  0.1186  0.3605 -0.5423
   87THY    HP2 2158   4.596   5.406  10.113  1.0239  3.6801 -0.6555
   87THY    HP3 2159   4.726   5.272  10.100  1.0262  1.0643  1.6779
   87THY    HP4 2160   4.757   5.454  10.118 -0.5648  1.2934 -1.2532
   87THY    CP3 2161   4.666   5.541   9.903 -0.1529  0.2793  0.0455
   87THY    HP5 2162   4.751   5.606   9.925 -0.1209  0.3385 -0.2564
   87THY    HP6 2163   4.637   5.560   9.799 -1.2840  2.7280  0.7433
   87THY    HP7 2164   4.580   5.583   9.956 -1.1755 -0.7413 -0.7430
   87THY    CA3 2165   4.945   5.369   9.920  0.2122  0.0379 -0.4443
   87THY    HA3 2166   4.949   5.422  10.015 -2.3942 -0.1259 -0.1780
   87THY    CA4 2167   5.062   5.332   9.856  0.2231  0.4371  0.7816
   87THY    HA4 2168   5.155   5.353   9.907 -0.5773  1.1057  2.0400
   87THY    CA5 2169   5.059   5.280   9.725 -0.7550 -0.0043 -0.2474
   87THY    CM1 2170   5.187   5.245   9.649 -0.2653 -0.3812  0.1028
   87THY    HM1 2171   5.185   5.312   9.563 -1.7116 -0.9982 -0.3812
   87THY    HM2 2172   5.279   5.259   9.707 -0.5761  3.1736 -0.0711
   87THY    HM3 2173   5.176   5.141   9.615 -0.0588 -0.5241  0.4682
   87THY    CA6 2174   4.935   5.241   9.677 -0.0438 -0.1354  0.1937
   87THY    HA6 2175   4.938   5.202   9.575  2.7737  0.7012 -0.1434
   88THY      O 2176   7.048   0.269   3.929  0.0594  0.1559 -0.2365
   88THY     HO 2177   7.054   0.283   4.025  1.6591 -2.5134  0.1616
   88THY    CA1 2178   6.924   0.305   3.896  0.5464  0.5801 -0.4613
   88THY    CA2 2179   6.890   0.338   3.769  0.3576 -0.9110  0.4978
   88THY    CP1 2180   6.990   0.325   3.652 -0.0971 -0.6268 -0.3984
   88THY    HP1 2181   7.090   0.302   3.690  0.3848 -1.2933 -2.0129
   88THY    CP2 2182   6.958   0.220   3.544  0.0065  0.4538  0.1914
   88THY    HP2 2183   6.850   0.214   3.523  0.3934  1.1663 -2.2240
   88THY    HP3 2184   7.003   0.241   3.447 -2.4597  0.8963 -0.9488
   88THY    HP4 2185   6.975   0.116   3.576 -1.3016 -0.3236 -1.4478
   88THY    CP3 2186   7.020   0.458   3.581 -0.5585  0.3821  0.1244
   88THY    HP5 2187   6.935   0.494   3.522 -0.6027  0.4566  0.2321
   88THY    HP6 2188   7.028   0.541   3.652 -1.6639  1.3403 -0.8302
   88THY    HP7 2189   7.112   0.450   3.522 -0.5843 -2.8096  0.3653
   88THY    CA3 2190   6.757   0.378   3.746  0.1392 -0.4521 -0.0764
   88THY    HA3 2191   6.735   0.402   3.643  0.8178  0.3227 -0.0492
   88THY    CA4 2192   6.669   0.387   3.852  0.0444  0.1829 -0.0611
   88THY    HA4 2193   6.564   0.415   3.847 -0.2523 -1.1462 -2.4954
   88THY    CA5 2194   6.710   0.351   3.979 -0.0684 -0.3610 -0.1531
   88THY    CM1 2195   6.619   0.367   4.100  0.2004 -0.3412  0.1031
   88THY    HM1 2196   6.635   0.466   4.145  1.0003  0.0674 -1.0594
   88THY    HM2 2197   6.512   0.374   4.077 -0.3428 -0.3446  2.3178
   88THY    HM3 2198   6.638   0.294   4.180  0.7749  0.0275  0.3161
   88THY    CA6 2199   6.845   0.318   4.000 -0.1000  0.0086 -0.8670
   88THY    HA6 2200   6.874   0.282   4.099 -1.6814 -0.2641 -0.4658
   89THY      O 2201   0.349   8.186   7.762 -0.3013 -0.6188  0.5576
   89THY     HO 2202   0.416   8.116   7.766 -0.5689 -0.9871 -1.1161
   89THY    CA1 2203   0.413   8.285   7.833  0.9969 -0.3233  0.2389
   89THY    CA2 2204   0.428   8.414   7.781 -0.1076  0.0318  0.3439
   89THY    CP1 2205   0.371   8.448   7.643 -0.4600 -0.3102  0.2513
   89THY    HP1 2206   0.276   8.393   7.652 -1.4337  1.4607  1.4926
   89THY    CP2 2207   0.341   8.596   7.619  0.3229 -0.0683 -0.2086
   89THY    HP2 2208   0.258   8.601   7.548  0.1320  1.5055  0.0840
   89THY    HP3 2209   0.297   8.641   7.709 -0.5311 -1.2505 -0.0207
   89THY    HP4 2210   0.426   8.647   7.571  0.7087 -2.3859 -2.1415
   89THY    CP3 2211   0.433   8.390   7.517 -0.3044 -0.2481 -0.7643
   89THY    HP5 2212   0.363   8.385   7.433 -1.6014  0.2658  0.2611
   89THY    HP6 2213   0.529   8.428   7.479 -0.9857  0.0510 -2.2378
   89THY    HP7 2214   0.449   8.283   7.538  1.1775 -0.1801 -1.4131
   89THY    CA3 2215   0.490   8.505   7.860  0.2007 -0.4365  0.2314
   89THY    HA3 2216   0.500   8.609   7.830 -0.5008 -0.2773  0.5393
   89THY    CA4 2217   0.519   8.476   7.991 -0.1399 -0.5788  0.0816
   89THY    HA4 2218   0.548   8.549   8.066  0.3315 -0.3234 -0.3426
   89THY    CA5 2219   0.496   8.348   8.040 -0.0915 -0.2096 -0.3125
   89THY    CM1 2220   0.524   8.312   8.182  0.1069 -0.2382 -0.0833
   89THY    HM1 2221   0.533   8.388   8.261 -0.8494  0.7442 -0.9003
   89THY    HM2 2222   0.450   8.240   8.218 -0.5108  0.2980 -0.2792
   89THY    HM3 2223   0.619   8.260   8.201  0.2560  0.4333  1.1222
   89THY    CA6 2224   0.446   8.251   7.963 -0.4562  0.3795  0.0011
   89THY    HA6 2225   0.461   8.147   7.991 -0.0142  0.3922 -0.1752
   90THY      O 2226   5.875   6.396   9.100  0.3368 -0.0001  0.2011
   90THY     HO 2227   5.810   6.469   9.098 -1.4709 -1.5075  0.5707
   90THY    CA1 2228   5.888   6.366   9.232 -0.0560 -0.0296  0.0582
   90THY    CA2 2229   5.982   6.276   9.279 -0.4062 -0.6599 -0.1948
   90THY    CP1 2230   6.066   6.196   9.181  0.4403 -0.1130  0.0520
   90THY    HP1 2231   6.059   6.247   9.084 -1.8663  0.2601  0.3605
   90THY    CP2 2232   6.214   6.188   9.214 -0.2599  0.3434  0.3036
   90THY    HP2 2233   6.261   6.284   9.239  0.0743  0.5107 -0.9217
   90THY    HP3 2234   6.226   6.125   9.304  2.1270  2.8855  1.9353
   90THY    HP4 2235   6.270   6.146   9.129  2.1805  0.2247  1.8618
   90THY    CP3 2236   6.016   6.059   9.159  0.0811 -0.2573  0.6035
   90THY    HP5 2237   5.907   6.059   9.169 -0.0015  0.9220 -0.1150
   90THY    HP6 2238   6.044   6.021   9.060 -1.0918  3.1258 -1.1780
   90THY    HP7 2239   6.046   5.994   9.242 -1.1797  0.1776  1.4373
   90THY    CA3 2240   5.984   6.240   9.412 -0.1937  1.0810 -0.1933
   90THY    HA3 2241   6.039   6.152   9.447 -0.3027  1.2256  0.3604
   90THY    CA4 2242   5.904   6.306   9.500 -0.4172  0.2263 -0.9984
   90THY    HA4 2243   5.897   6.285   9.606  0.8172  0.5587 -0.8417
   90THY    CA5 2244   5.827   6.410   9.460  1.0716  0.4073  0.1085
   90THY    CM1 2245   5.736   6.487   9.545 -0.7816  0.6246  0.4125
   90THY    HM1 2246   5.672   6.416   9.599  3.3762 -3.2086  0.9113
   90THY    HM2 2247   5.797   6.530   9.624  0.4936  0.9802 -0.7250
   90THY    HM3 2248   5.665   6.556   9.498 -1.7780 -0.2779  0.5235
   90THY    CA6 2249   5.819   6.437   9.324 -0.3341 -0.8484 -0.2840
   90THY    HA6 2250   5.760   6.524   9.295 -0.4024 -1.0222 -0.6640
   91THY      O 2251   1.268   0.016   3.863 -0.8956  0.6037  0.1635
   91THY     HO 2252   1.316  -0.049   3.809  0.9453  1.1820  1.0346
   91THY    CA1 2253   1.144  -0.031   3.867 -0.1925 -0.0276 -0.1686
   91THY    CA2 2254   1.045   0.036   3.940 -0.2388 -0.8076 -0.0654
   91THY    CP1 2255   1.074   0.186   3.986  0.0085  0.1753 -0.6165
   91THY    HP1 2256   1.177   0.216   3.964  0.0766 -0.0681 -0.6335
   91THY    CP2 2257   0.985   0.293   3.921 -0.2272 -0.5028 -0.3925
   91THY    HP2 2258   0.976   0.287   3.812 -0.5061 -1.0752 -0.3437
   91THY    HP3 2259   0.885   0.287   3.967 -1.4624 -0.7394 -2.9563
   91THY    HP4 2260   1.031   0.389   3.947 -0.5437 -0.5027  0.1863
   91THY    CP3 2261   1.055   0.208   4.140  0.1561  0.5371  0.6224
   91THY    HP5 2262   0.954   0.199   4.180 -0.0996  1.5277  0.2412
   91THY    HP6 2263   1.125   0.158   4.208  0.1586  0.5851  0.6548
   91THY    HP7 2264   1.076   0.315   4.154  1.1366  0.4470 -0.0478
   91THY    CA3 2265   0.922  -0.029   3.961 -0.0225 -0.1847  0.3284
   91THY    HA3 2266   0.848   0.003   4.034 -0.2327  0.6759 -0.2429
   91THY    CA4 2267   0.902  -0.157   3.904  0.0792 -0.1206  0.1376
   91THY    HA4 2268   0.812  -0.217   3.904  1.3470 -2.1034  1.0078
   91THY    CA5 2269   1.003  -0.212   3.826  0.0912 -0.4410 -0.4620
   91THY    CM1 2270   0.972  -0.346   3.759 -0.0665 -0.1462 -0.0270
   91THY    HM1 2271   1.061  -0.391   3.712  0.1236 -0.5770  0.7350
   91THY    HM2 2272   0.910  -0.416   3.815 -1.1857 -0.1516 -1.2346
   91THY    HM3 2273   0.906  -0.324   3.674  0.7761 -0.6777 -0.8531
   91THY    CA6 2274   1.124  -0.152   3.809  0.8322  0.2488 -0.4483
   91THY    HA6 2275   1.206  -0.194   3.752  0.8893  0.2664 -0.3791
   92THY      O 2276   0.463   9.053   2.872 -0.4415  0.0215 -0.0404
   92THY     HO 2277   0.427   9.077   2.785  2.0952  3.2584 -0.3977
   92THY    CA1 2278   0.523   9.169   2.909  0.1073  0.0327  0.3550
   92THY    CA2 2279   0.632   9.165   2.993  0.5199  0.0170 -0.5712
   92THY    CP1 2280   0.677   9.035   3.062 -0.5486 -0.0800 -0.2505
   92THY    HP1 2281   0.585   8.991   3.103  0.2606 -1.6564 -0.0350
   92THY    CP2 2282   0.731   8.934   2.965  0.3595 -0.2303  0.2464
   92THY    HP2 2283   0.684   8.838   2.989 -0.1819  0.1250  0.6286
   92THY    HP3 2284   0.716   8.959   2.860 -1.2555 -1.0392  0.2599
   92THY    HP4 2285   0.837   8.916   2.985  0.4395 -0.7114 -0.5653
   92THY    CP3 2286   0.780   9.056   3.181 -0.5998 -0.8106  0.1696
   92THY    HP5 2287   0.815   8.964   3.229 -0.9763 -1.2184 -0.3148
   92THY    HP6 2288   0.870   9.110   3.149 -0.5991 -0.2462  1.1035
   92THY    HP7 2289   0.729   9.119   3.254 -1.1211  0.3345 -1.1318
   92THY    CA3 2290   0.691   9.288   3.026  0.2943  0.5144  0.0676
   92THY    HA3 2291   0.768   9.298   3.101 -0.5550 -1.4338  1.2685
   92THY    CA4 2292   0.645   9.408   2.961  0.1314 -0.4351 -0.0757
   92THY    HA4 2293   0.699   9.499   2.987  1.3153 -1.0311 -0.3684
   92THY    CA5 2294   0.535   9.401   2.877 -0.2890 -0.1472 -0.1476
   92THY    CM1 2295   0.489   9.534   2.824  0.6054 -0.9959  0.0412
   92THY    HM1 2296   0.518   9.622   2.883 -2.0064 -0.4149  0.5645
   92THY    HM2 2297   0.543   9.532   2.729  1.9183 -0.1993  0.7400
   92THY    HM3 2298   0.380   9.527   2.811  0.7201 -0.1731 -1.5322
   92THY    CA6 2299   0.475   9.283   2.852 -0.2102 -0.1705  0.0378
   92THY    HA6 2300   0.386   9.294   2.791 -0.1409  1.5325  0.2149
   93THY      O 2301   2.245   8.794   4.179  0.0545  0.3557  0.1620
   93THY     HO 2302   2.224   8.805   4.084 -0.4490 -0.4112  0.1805
   93THY    CA1 2303   2.118   8.793   4.235  0.0398 -0.1115 -0.2898
   93THY    CA2 2304   2.092   8.718   4.353 -0.4627  0.3312  0.3594
   93THY    CP1 2305   2.207   8.637   4.420  0.0687  0.4891 -0.3051
   93THY    HP1 2306   2.302   8.681   4.388  0.2256 -1.2182 -2.3745
   93THY    CP2 2307   2.206   8.630   4.576  0.1555 -0.4381  0.6517
   93THY    HP2 2308   2.203   8.734   4.609 -0.2314 -0.0392 -0.5721
   93THY    HP3 2309   2.125   8.563   4.605  0.5111  0.0563  3.0362
   93THY    HP4 2310   2.301   8.586   4.608 -1.1531 -1.3921  3.5147
   93THY    CP3 2311   2.193   8.494   4.362  0.5877  0.8619 -0.2912
   93THY    HP5 2312   2.105   8.440   4.400  2.1978 -0.8773  1.1996
   93THY    HP6 2313   2.193   8.504   4.253 -0.0297  1.1614 -0.2642
   93THY    HP7 2314   2.263   8.421   4.404 -0.6974  0.0073  0.4566
   93THY    CA3 2315   1.961   8.713   4.407 -0.7781  0.1000  0.3744
   93THY    HA3 2316   1.932   8.654   4.494 -2.5717 -1.6949 -1.3432
   93THY    CA4 2317   1.862   8.791   4.345 -0.2007 -0.0885  0.2995
   93THY    HA4 2318   1.760   8.784   4.381 -0.9579  0.9972 -1.4863
   93THY    CA5 2319   1.898   8.878   4.241 -0.0087  0.2431  0.4082
   93THY    CM1 2320   1.799   8.982   4.198  0.3029 -0.2498 -0.2259
   93THY    HM1 2321   1.740   8.954   4.110  0.9211 -0.1417 -0.6775
   93THY    HM2 2322   1.729   8.993   4.281  0.1863  0.0406 -0.3629
   93THY    HM3 2323   1.847   9.079   4.183 -0.8000  0.4825  0.8376
   93THY    CA6 2324   2.024   8.880   4.185 -0.4291  0.3809 -0.6621
   93THY    HA6 2325   2.053   8.947   4.104  0.5630  1.1480  0.2788
   94THY      O 2326   6.059   2.693   1.653  0.7698 -0.3315 -0.5084
   94THY     HO 2327   6.116   2.640   1.593  1.1665  0.2901 -0.6891
   94THY    CA1 2328   5.932   2.667   1.627 -0.1379 -0.5422 -0.4638
   94THY    CA2 2329   5.832   2.731   1.691 -0.9577 -0.0958 -0.1452
   94THY    CP1 2330   5.872   2.833   1.801  0.2578  0.3332  0.5000
   94THY    HP1 2331   5.960   2.884   1.761  0.3494 -0.3083 -0.1455
   94THY    CP2 2332   5.768   2.947   1.816 -0.6610 -0.3521 -0.2159
   94THY    HP2 2333   5.747   2.985   1.716  0.5774 -1.0557 -0.7606
   94THY    HP3 2334   5.682   2.902   1.868  0.0428  0.4751  1.7486
   94THY    HP4 2335   5.802   3.025   1.885 -0.0260 -1.4351  0.7338
   94THY    CP3 2336   5.894   2.750   1.938 -0.2093  0.2055 -0.2606
   94THY    HP5 2337   5.925   2.816   2.020  3.0590 -1.1210 -0.2392
   94THY    HP6 2338   5.799   2.705   1.971 -0.3123  0.4298 -0.2540
   94THY    HP7 2339   5.980   2.681   1.937  0.4310  0.9983 -0.5986
   94THY    CA3 2340   5.698   2.684   1.667  0.1958  0.2276  0.1027
   94THY    HA3 2341   5.616   2.720   1.729 -0.5525  0.9998 -1.2940
   94THY    CA4 2342   5.679   2.578   1.578 -0.2863 -0.7445 -0.1567
   94THY    HA4 2343   5.580   2.545   1.551 -0.0595  0.0341 -2.1202
   94THY    CA5 2344   5.784   2.532   1.502  0.1365 -0.4083  0.5292
   94THY    CM1 2345   5.769   2.430   1.400  0.4420 -0.1825 -0.6620
   94THY    HM1 2346   5.812   2.332   1.422 -1.8938 -1.1586 -0.1168
   94THY    HM2 2347   5.668   2.387   1.397  0.8258 -1.3672  1.1801
   94THY    HM3 2348   5.797   2.471   1.302  0.1833  1.1119 -0.2220
   94THY    CA6 2349   5.912   2.579   1.522  0.3659  0.0241 -0.0272
   94THY    HA6 2350   5.991   2.540   1.458 -0.0433 -1.4042  0.3171
   95THY      O 2351   1.530   4.160   3.209  0.2161 -0.1172  0.0998
   95THY     HO 2352   1.458   4.187   3.269 -2.0327  1.3943 -2.9822
   95THY    CA1 2353   1.507   4.031   3.176 -0.0151 -0.4152 -0.0307
   95THY    CA2 2354   1.502   3.983   3.038 -0.6130  0.5659  0.3782
   95THY    CP1 2355   1.536   4.083   2.926  0.0819  0.1397  0.1256
   95THY    HP1 2356   1.556   4.189   2.948  0.1183  0.0894  0.3362
   95THY    CP2 2357   1.646   4.037   2.832  0.2906 -0.0982  0.5132
   95THY    HP2 2358   1.707   3.963   2.885 -0.5900  0.1782  1.9601
   95THY    HP3 2359   1.601   3.985   2.747  0.4934  3.7140 -2.1684
   95THY    HP4 2360   1.701   4.117   2.781  0.3497 -0.2889  0.2742
   95THY    CP3 2361   1.408   4.100   2.835 -0.2305 -0.0299 -0.2139
   95THY    HP5 2362   1.368   4.009   2.790  0.6332 -1.0142  0.9682
   95THY    HP6 2363   1.334   4.141   2.906  0.2904 -0.9484  0.8783
   95THY    HP7 2364   1.415   4.170   2.750 -2.8897 -1.5945 -1.8798
   95THY    CA3 2365   1.475   3.842   3.022  0.4583  0.0666  0.1232
   95THY    HA3 2366   1.460   3.804   2.921  0.7440 -0.2291  0.1918
   95THY    CA4 2367   1.460   3.762   3.136  0.2792  0.2778  0.2526
   95THY    HA4 2368   1.441   3.657   3.115 -1.5998  1.0328 -2.4243
   95THY    CA5 2369   1.459   3.813   3.267  0.1818  0.1857  0.2722
   95THY    CM1 2370   1.419   3.717   3.380  0.0309  0.5027  0.1319
   95THY    HM1 2371   1.311   3.699   3.380  0.1251 -0.2671  2.1080
   95THY    HM2 2372   1.457   3.616   3.360  0.9288  0.4712  1.8775
   95THY    HM3 2373   1.443   3.759   3.478  1.7354 -2.0449  0.9027
   95THY    CA6 2374   1.471   3.950   3.282 -1.0404 -0.5482  0.2356
   95THY    HA6 2375   1.465   3.996   3.380  0.0209  1.0419 -0.3908
   96THY      O 2376   7.482   2.848   1.323 -0.4282  0.4468  0.1678
   96THY     HO 2377   7.567   2.807   1.300 -1.3769 -3.5068  2.6751
   96THY    CA1 2378   7.465   2.958   1.251 -0.4627  0.7129 -0.0732
   96THY    CA2 2379   7.411   3.079   1.300  0.3537  0.1107  0.7596
   96THY    CP1 2380   7.348   3.093   1.435  0.0213 -0.6433  0.2725
   96THY    HP1 2381   7.397   3.019   1.499 -2.2787 -0.8275  1.9250
   96THY    CP2 2382   7.368   3.231   1.506  0.2317 -0.0439 -0.1313
   96THY    HP2 2383   7.434   3.292   1.444 -0.8152  0.2731 -0.9434
   96THY    HP3 2384   7.271   3.281   1.513 -1.0031 -2.1293 -1.4389
   96THY    HP4 2385   7.408   3.228   1.608  0.9192  0.6430 -0.3763
   96THY    CP3 2386   7.209   3.050   1.436 -0.1345  0.3090  0.6257
   96THY    HP5 2387   7.191   3.004   1.534 -1.4759  0.9770  0.7183
   96THY    HP6 2388   7.135   3.129   1.417 -1.1565 -0.8462 -0.3730
   96THY    HP7 2389   7.203   2.976   1.356  1.5636 -1.0752  1.7119
   96THY    CA3 2390   7.382   3.185   1.201 -0.2066 -0.0615 -0.1389
   96THY    HA3 2391   7.327   3.276   1.224 -0.6454 -0.4628  0.4467
   96THY    CA4 2392   7.428   3.169   1.063  0.4797 -1.0108 -0.9942
   96THY    HA4 2393   7.414   3.253   0.995 -0.0263 -1.6758 -1.7250
   96THY    CA5 2394   7.482   3.053   1.026 -0.2007 -0.0189  0.1538
   96THY    CM1 2395   7.506   3.030   0.879  0.6357  0.8872  0.0426
   96THY    HM1 2396   7.474   2.930   0.849  3.2678  0.1606 -0.5600
   96THY    HM2 2397   7.457   3.105   0.814 -0.5352 -0.9811 -1.3305
   96THY    HM3 2398   7.614   3.026   0.863  0.6300 -0.4811  0.2519
   96THY    CA6 2399   7.506   2.950   1.118 -0.0242  0.4029 -0.1869
   96THY    HA6 2400   7.541   2.856   1.075 -2.8357 -0.9355  0.1957
   97THY      O 2401   6.907   3.644   0.975 -0.5413  0.3692  0.5161
   97THY     HO 2402   6.840   3.652   1.046 -2.2864  0.5561 -1.0778
   97THY    CA1 2403   7.022   3.620   1.030  0.5811 -0.9841  0.1369
   97THY    CA2 2404   7.142   3.611   0.957  0.2051 -0.6715 -0.3764
   97THY    CP1 2405   7.149   3.616   0.803  0.5704  0.6763 -0.0253
   97THY    HP1 2406   7.050   3.642   0.764 -1.2448 -1.9703  2.3536
   97THY    CP2 2407   7.229   3.730   0.759 -0.1519  0.0452 -0.2622
   97THY    HP2 2408   7.333   3.722   0.794 -0.4559 -0.2982  0.6001
   97THY    HP3 2409   7.249   3.720   0.652  0.5489  2.7889 -0.4750
   97THY    HP4 2410   7.195   3.833   0.779  1.1415  0.5443 -0.5055
   97THY    CP3 2411   7.193   3.487   0.740 -0.2357 -0.0533  0.1940
   97THY    HP5 2412   7.169   3.496   0.633 -0.0304  1.8932  0.2809
   97THY    HP6 2413   7.295   3.461   0.773  0.0825 -1.5896 -1.7709
   97THY    HP7 2414   7.138   3.400   0.778  1.4385 -1.4543 -0.4299
   97THY    CA3 2415   7.264   3.585   1.031  0.5549  0.0666  0.9439
   97THY    HA3 2416   7.354   3.576   0.971  0.3172 -0.7631  0.7039
   97THY    CA4 2417   7.264   3.568   1.166  0.7979 -0.2796  0.4321
   97THY    HA4 2418   7.356   3.528   1.207  1.2674  0.3358  0.0016
   97THY    CA5 2419   7.145   3.579   1.237 -0.4269 -0.1602  0.1582
   97THY    CM1 2420   7.155   3.585   1.385  0.4807 -0.2167 -0.5768
   97THY    HM1 2421   7.071   3.611   1.450  1.4679 -1.6499  1.4061
   97THY    HM2 2422   7.180   3.483   1.417 -0.3585 -0.5275 -0.9132
   97THY    HM3 2423   7.241   3.646   1.418 -1.6061  1.6433  1.8071
   97THY    CA6 2424   7.024   3.616   1.173 -0.2670  0.1169  0.7151
   97THY    HA6 2425   6.932   3.618   1.231 -0.2236  1.4379  0.7528
   98THY      O 2426   3.470   8.090   6.748  0.4797 -0.5912 -0.2007
   98THY     HO 2427   3.381   8.112   6.716 -0.0944 -3.7245 -1.0476
   98THY    CA1 2428   3.445   7.965   6.784 -1.0861  0.3335 -0.0244
   98THY    CA2 2429   3.541   7.873   6.822  0.5103  0.5915  0.4319
   98THY    CP1 2430   3.687   7.909   6.825  1.0579 -0.3726 -0.4519
   98THY    HP1 2431   3.695   8.018   6.821  1.3448 -0.3686  0.1891
   98THY    CP2 2432   3.764   7.857   6.946  0.3844  0.3719 -0.1039
   98THY    HP2 2433   3.870   7.884   6.936 -0.1198  1.8219 -2.0012
   98THY    HP3 2434   3.733   7.918   7.032 -1.5531 -0.6089 -0.0629
   98THY    HP4 2435   3.760   7.748   6.957  1.6407  0.2988 -0.1738
   98THY    CP3 2436   3.751   7.851   6.704  0.3554  0.3007 -0.0774
   98THY    HP5 2437   3.855   7.879   6.686  0.4466  0.1260  0.1705
   98THY    HP6 2438   3.745   7.742   6.702  0.8632  0.2512  0.6010
   98THY    HP7 2439   3.683   7.884   6.624  2.2602 -0.0190 -1.9341
   98THY    CA3 2440   3.500   7.741   6.852 -0.2197 -0.1204  0.0154
   98THY    HA3 2441   3.575   7.663   6.865  2.5607  2.1774 -1.2597
   98THY    CA4 2442   3.362   7.709   6.842  0.0733  0.0527 -0.0482
   98THY    HA4 2443   3.328   7.607   6.857 -2.1879  0.8293  0.5465
   98THY    CA5 2444   3.270   7.810   6.830  0.1096  0.6944  0.0183
   98THY    CM1 2445   3.125   7.799   6.844 -0.6002  0.1658 -0.1363
   98THY    HM1 2446   3.059   7.867   6.789 -0.5972 -1.8511 -2.7831
   98THY    HM2 2447   3.081   7.701   6.825  1.2775 -1.3389  2.5286
   98THY    HM3 2448   3.103   7.809   6.951 -0.7956  1.7226 -0.2896
   98THY    CA6 2449   3.311   7.939   6.804  1.2287  0.1696  0.1349
   98THY    HA6 2450   3.231   8.012   6.790  0.7416 -0.9491 -4.1483
   99THY      O 2451   2.012   6.977   3.495 -0.1527  0.3790  0.0567
   99THY     HO 2452   2.071   6.994   3.420 -0.8883 -0.6356 -0.7827
   99THY    CA1 2453   1.906   7.057   3.461  0.4623 -0.1280 -0.0541
   99THY    CA2 2454   1.774   7.013   3.485  0.3845  0.1317 -0.0387
   99THY    CP1 2455   1.754   6.862   3.540 -0.0694  0.8513 -0.2940
   99THY    HP1 2456   1.846   6.805   3.526 -0.8266 -1.1026  2.0252
   99THY    CP2 2457   1.721   6.866   3.686  0.0239 -0.1311 -0.2841
   99THY    HP2 2458   1.724   6.768   3.735 -0.1098  0.7416  1.5792
   99THY    HP3 2459   1.790   6.924   3.749 -0.5947  0.9951 -0.6193
   99THY    HP4 2460   1.625   6.918   3.699  0.2651  0.1756  0.3331
   99THY    CP3 2461   1.647   6.784   3.467  0.0300  0.1899 -0.0901
   99THY    HP5 2462   1.653   6.796   3.358 -0.3372 -2.3789 -0.4570
   99THY    HP6 2463   1.653   6.675   3.475 -2.1933  0.0146 -0.3270
   99THY    HP7 2464   1.552   6.812   3.513  1.1223  1.5375  1.4894
   99THY    CA3 2465   1.661   7.098   3.472 -0.2444 -0.8539 -0.7335
   99THY    HA3 2466   1.563   7.071   3.509 -0.8100  0.1714 -1.4191
   99THY    CA4 2467   1.686   7.231   3.434 -0.2711  0.0709 -0.3508
   99THY    HA4 2468   1.602   7.300   3.424  0.5582  2.3458  4.9821
   99THY    CA5 2469   1.817   7.277   3.406 -0.2050  0.2288  0.3420
   99THY    CM1 2470   1.838   7.418   3.377  0.3713  0.2453  0.0297
   99THY    HM1 2471   1.846   7.479   3.469  0.4761  0.9857 -0.4605
   99THY    HM2 2472   1.940   7.433   3.340  1.1649 -1.8027  1.2183
   99THY    HM3 2473   1.756   7.454   3.314 -1.5602 -2.0312  1.0952
   99THY    CA6 2474   1.926   7.188   3.419  0.0233 -0.4736 -0.2553
   99THY    HA6 2475   2.027   7.221   3.398  0.8062 -2.6244 -0.0483
  100THY      O 2476   9.503   1.726   0.618 -0.0686 -0.3465  0.2905
  100THY     HO 2477   9.593   1.712   0.584  0.0419 -1.5036  1.0185
  100THY    CA1 2478   9.494   1.671   0.738 -0.2362 -0.2899  0.2146
  100THY    CA2 2479   9.416   1.740   0.834  0.1541  0.6313 -0.0861
  100THY    CP1 2480   9.355   1.876   0.813  0.2887 -0.5323 -0.7905
  100THY    HP1 2481   9.380   1.917   0.715  0.4146  0.7867 -0.2295
  100THY    CP2 2482   9.205   1.856   0.810  0.3452 -0.0652 -0.1962
  100THY    HP2 2483   9.163   1.840   0.910 -0.1474  3.2871  0.2495
  100THY    HP3 2484   9.165   1.954   0.782  1.5764 -0.0106 -1.9512
  100THY    HP4 2485   9.179   1.781   0.734  1.5974 -0.3509 -0.3586
  100THY    CP3 2486   9.405   1.980   0.912  0.0032 -0.1348 -0.2588
  100THY    HP5 2487   9.506   2.018   0.888 -0.2508  1.5959  1.1527
  100THY    HP6 2488   9.337   2.066   0.916 -0.8053 -0.8003  0.4977
  100THY    HP7 2489   9.406   1.946   1.016  1.7112  2.2674  0.6111
  100THY    CA3 2490   9.405   1.684   0.961 -0.0372  0.4728  0.1081
  100THY    HA3 2491   9.333   1.723   1.033 -0.3031  2.0153 -0.9527
  100THY    CA4 2492   9.482   1.566   0.988 -0.9319 -0.4066 -0.2331
  100THY    HA4 2493   9.471   1.516   1.083 -3.2186 -0.0997 -0.2924
  100THY    CA5 2494   9.563   1.506   0.894 -0.2245  0.1813 -0.5966
  100THY    CM1 2495   9.646   1.387   0.938 -0.5069 -0.3038  0.1256
  100THY    HM1 2496   9.695   1.346   0.849  0.9881  1.8425 -0.1019
  100THY    HM2 2497   9.726   1.416   1.007  0.6316 -0.1550 -1.2118
  100THY    HM3 2498   9.590   1.305   0.985  2.0585 -2.5301 -0.4462
  100THY    CA6 2499   9.570   1.560   0.765 -0.1786  0.4474  0.2343
  100THY    HA6 2500   9.624   1.504   0.689  0.9973  0.0283  1.3325
  101THY      O 2501   8.246   6.097   6.164 -0.1348  0.6517  0.1891
  101THY     HO 2502   8.286   6.063   6.245  0.2785 -0.7057 -0.5564
  101THY    CA1 2503   8.163   5.999   6.122  0.1510 -0.3218  0.3663
  101THY    CA2 2504   8.149   5.968   5.988 -0.1846  0.5187 -0.0141
  101THY    CP1 2505   8.233   6.038   5.875 -0.1006 -0.1086 -0.5823
  101THY    HP1 2506   8.289   6.126   5.908  1.3591 -1.5924  1.1660
  101THY    CP2 2507   8.340   5.935   5.829 -0.7755 -0.2695 -0.1308
  101THY    HP2 2508   8.374   5.954   5.727 -2.6432  1.4233 -0.5028
  101THY    HP3 2509   8.433   5.934   5.886  1.4615 -0.4700 -3.5432
  101THY    HP4 2510   8.311   5.829   5.826  0.6328 -0.7157  1.1618
  101THY    CP3 2511   8.143   6.062   5.754 -0.5233 -0.0577 -0.0423
  101THY    HP5 2512   8.119   5.978   5.688  1.7089 -0.6734 -0.1139
  101THY    HP6 2513   8.063   6.131   5.784  0.2687  1.2128 -0.7586
  101THY    HP7 2514   8.202   6.117   5.679 -1.1495 -0.6009 -0.9595
  101THY    CA3 2515   8.065   5.854   5.957 -0.2749 -0.4614 -0.6446
  101THY    HA3 2516   8.056   5.826   5.853  1.3476  0.1491 -0.9826
  101THY    CA4 2517   7.994   5.787   6.057  0.8130 -0.2191  0.3563
  101THY    HA4 2518   7.920   5.714   6.028  2.2988 -0.7639 -2.4869
  101THY    CA5 2519   8.011   5.829   6.190  0.1695 -0.1542 -0.3858
  101THY    CM1 2520   7.945   5.757   6.309 -0.0747 -0.1006 -0.2148
  101THY    HM1 2521   7.981   5.787   6.409  1.7484 -0.3855 -0.7498
  101THY    HM2 2522   7.836   5.764   6.311 -0.1181 -0.7199  1.1742
  101THY    HM3 2523   7.963   5.650   6.298  0.0489 -0.1682  0.5849
  101THY    CA6 2524   8.105   5.928   6.222  0.4793  0.0557 -0.0310
  101THY    HA6 2525   8.116   5.953   6.327 -3.0425 -2.7485  1.1883
  102THY      O 2526   7.217   7.860   4.968 -0.1145 -0.0493 -0.0777
  102THY     HO 2527   7.213   7.789   5.034  1.2274 -0.3177 -0.2531
  102THY    CA1 2528   7.352   7.881   4.953 -0.4192 -0.3413  0.5108
  102THY    CA2 2529   7.407   7.963   4.852 -0.3389 -0.3271  0.4501
  102THY    CP1 2530   7.313   8.007   4.736 -0.0169  0.4171  0.9671
  102THY    HP1 2531   7.207   7.995   4.761 -0.3908  0.0574 -0.6828
  102THY    CP2 2532   7.327   8.150   4.687  0.1002 -0.1803  0.6607
  102THY    HP2 2533   7.351   8.226   4.762  2.2905  2.1936 -2.2408
  102THY    HP3 2534   7.412   8.154   4.618 -0.0596 -4.1570 -0.0393
  102THY    HP4 2535   7.244   8.186   4.625  0.0256 -0.4067  0.6273
  102THY    CP3 2536   7.332   7.923   4.619 -0.7749  0.6232  0.2290
  102THY    HP5 2537   7.306   7.820   4.649  0.1918  0.7996  1.7697
  102THY    HP6 2538   7.259   7.956   4.544 -0.5389 -0.5986 -0.5800
  102THY    HP7 2539   7.428   7.930   4.567 -1.4715  0.5275 -1.1017
  102THY    CA3 2540   7.542   7.986   4.839 -0.5183  0.0580  0.2808
  102THY    HA3 2541   7.564   8.041   4.748 -3.9973  0.7452 -0.2823
  102THY    CA4 2542   7.631   7.927   4.938 -0.3015 -0.1811 -0.3130
  102THY    HA4 2543   7.738   7.942   4.928 -0.5174  1.0625 -0.8524
  102THY    CA5 2544   7.576   7.838   5.029 -0.1000  0.7002 -0.0499
  102THY    CM1 2545   7.670   7.746   5.106 -0.2620  0.3443  0.9947
  102THY    HM1 2546   7.748   7.707   5.041  0.0101  0.6213  1.1518
  102THY    HM2 2547   7.720   7.784   5.196 -0.0893 -1.3368  1.6470
  102THY    HM3 2548   7.624   7.657   5.150  1.9993 -1.4092 -0.0229
  102THY    CA6 2549   7.437   7.815   5.032 -0.7982  0.4803 -0.2244
  102THY    HA6 2550   7.406   7.734   5.097 -1.3008 -0.0250 -1.0823
  103THY      O 2551   3.585   2.929   5.284  0.0785  0.1464  0.4856
  103THY     HO 2552   3.668   2.878   5.282  0.2694  0.4741 -1.0501
  103THY    CA1 2553   3.474   2.848   5.250 -0.2415 -0.5277  0.2003
  103THY    CA2 2554   3.342   2.892   5.248  1.2831  0.3161  0.4868
  103THY    CP1 2555   3.303   3.033   5.273 -0.4242 -0.1544  0.0978
  103THY    HP1 2556   3.390   3.099   5.260  0.6337 -1.3278  0.9538
  103THY    CP2 2557   3.192   3.084   5.176  0.1535  0.0255 -0.2648
  103THY    HP2 2558   3.215   3.062   5.072  1.6433 -0.7330  0.2062
  103THY    HP3 2559   3.095   3.043   5.207 -0.5477  2.1159  0.5050
  103THY    HP4 2560   3.182   3.193   5.187  1.3833  0.1642 -0.4570
  103THY    CP3 2561   3.263   3.059   5.416 -0.6759  0.2421  0.3005
  103THY    HP5 2562   3.172   3.009   5.453 -1.2421  0.9334 -0.1313
  103THY    HP6 2563   3.345   3.025   5.480 -1.6622 -1.1468  0.8772
  103THY    HP7 2564   3.262   3.167   5.433  0.6990  0.2738  0.2790
  103THY    CA3 2565   3.237   2.794   5.217 -0.1186 -0.1373  0.3474
  103THY    HA3 2566   3.133   2.825   5.209  0.1582  0.6837 -0.2499
  103THY    CA4 2567   3.262   2.664   5.187 -0.2672 -0.3876  0.1195
  103THY    HA4 2568   3.178   2.598   5.165 -0.8237 -0.1837  1.5231
  103THY    CA5 2569   3.396   2.622   5.194  0.4719  0.2858 -0.2679
  103THY    CM1 2570   3.418   2.475   5.175 -0.5378  0.3328  0.3313
  103THY    HM1 2571   3.515   2.476   5.123  0.2937  1.1411  1.8238
  103THY    HM2 2572   3.446   2.435   5.273 -0.4613  1.5862  0.8455
  103THY    HM3 2573   3.343   2.418   5.119  0.1638 -1.4117  1.1132
  103THY    CA6 2574   3.496   2.717   5.226 -0.4684  0.3657  0.1191
  103THY    HA6 2575   3.599   2.684   5.229 -0.8409 -0.9799 -1.0558
  104THY      O 2576   1.552   6.326   4.335 -0.1390  0.9807 -0.3736
  104THY     HO 2577   1.533   6.374   4.253  1.4835 -2.6622 -3.1396
  104THY    CA1 2578   1.508   6.198   4.314  0.0134  0.4107 -0.0193
  104THY    CA2 2579   1.379   6.160   4.360 -0.5102  0.0587  0.4781
  104THY    CP1 2580   1.290   6.266   4.428 -0.3206 -0.0249 -0.2063
  104THY    HP1 2581   1.339   6.361   4.452 -0.0955 -0.6056  1.7686
  104THY    CP2 2582   1.168   6.317   4.344 -0.2132 -0.5372 -0.2992
  104THY    HP2 2583   1.206   6.382   4.265  0.3119 -1.0588 -0.4799
  104THY    HP3 2584   1.110   6.240   4.291 -1.3483  0.2816 -0.2876
  104THY    HP4 2585   1.096   6.379   4.399 -0.0145 -0.2113 -0.4071
  104THY    CP3 2586   1.248   6.211   4.563  0.0603 -0.4317 -0.4234
  104THY    HP5 2587   1.341   6.180   4.612 -0.5567 -1.0896  0.3594
  104THY    HP6 2588   1.205   6.293   4.621 -1.1560 -1.6924  0.5346
  104THY    HP7 2589   1.167   6.139   4.544  0.6436 -1.1189 -0.3320
  104THY    CA3 2590   1.339   6.028   4.343  0.0331 -0.1706  0.2328
  104THY    HA3 2591   1.242   5.988   4.370 -0.8586  0.8391 -1.3229
  104THY    CA4 2592   1.430   5.935   4.288  0.0749  0.3030 -0.9364
  104THY    HA4 2593   1.412   5.828   4.283 -1.2801  0.4245  0.5346
  104THY    CA5 2594   1.558   5.981   4.241  0.5485  0.5048 -0.4374
  104THY    CM1 2595   1.652   5.879   4.196  0.4193 -0.5073  0.1855
  104THY    HM1 2596   1.623   5.773   4.190  0.8633 -0.5553 -2.3701
  104THY    HM2 2597   1.679   5.905   4.093  2.1493 -2.4550  0.0715
  104THY    HM3 2598   1.744   5.896   4.253  0.7676  0.0025 -0.5035
  104THY    CA6 2599   1.590   6.113   4.252 -0.1929 -0.1341  0.6745
  104THY    HA6 2600   1.690   6.146   4.225 -0.3586 -0.7404 -0.7818
  105THY      O 2601   2.794   3.069   9.541  0.3622  0.6242 -0.6735
  105THY     HO 2602   2.830   3.006   9.476 -0.2856 -0.1579 -0.2907
  105THY    CA1 2603   2.813   2.994   9.654 -0.5503 -0.8302 -0.7177
  105THY    CA2 2604   2.777   3.063   9.769  0.3343  0.0558 -0.2896
  105THY    CP1 2605   2.740   3.212   9.769 -0.0295 -0.1999 -0.2321
  105THY    HP1 2606   2.711   3.251   9.670  2.1052  1.2398 -0.3551
  105THY    CP2 2607   2.615   3.234   9.852  1.3339 -0.4148 -0.9609
  105THY    HP2 2608   2.559   3.327   9.852 -1.2191 -1.8378 -2.6784
  105THY    HP3 2609   2.539   3.172   9.803  1.1476 -1.2185  0.2872
  105THY    HP4 2610   2.632   3.209   9.958 -1.1298  0.8465 -0.2111
  105THY    CP3 2611   2.849   3.304   9.821 -0.0146  0.2590  0.0360
  105THY    HP5 2612   2.944   3.274   9.775 -0.1911  0.4903 -0.4828
  105THY    HP6 2613   2.835   3.405   9.781  0.1041  0.3636  0.2543
  105THY    HP7 2614   2.862   3.298   9.930 -1.4162 -0.0659  0.2096
  105THY    CA3 2615   2.799   2.998   9.894  0.2745  0.1527  0.3748
  105THY    HA3 2616   2.772   3.050   9.985 -1.7764  1.6189 -0.9737
  105THY    CA4 2617   2.847   2.867   9.901 -0.1296  0.1547 -0.8057
  105THY    HA4 2618   2.866   2.818   9.996 -0.9718  3.4893  1.2438
  105THY    CA5 2619   2.877   2.797   9.783 -0.4766  0.9455 -0.3502
  105THY    CM1 2620   2.909   2.644   9.793  0.5478 -0.6625  0.4695
  105THY    HM1 2621   2.833   2.581   9.745 -0.1340 -0.0350  0.7113
  105THY    HM2 2622   3.013   2.628   9.763  1.1642 -1.6502  2.8829
  105THY    HM3 2623   2.898   2.612   9.897 -1.3405  2.5133  1.3882
  105THY    CA6 2624   2.852   2.861   9.660 -0.3996 -0.9405  0.0963
  105THY    HA6 2625   2.872   2.802   9.570 -0.1973 -0.9767  0.1640
  106THY      O 2626   5.108   6.339   8.169 -0.2848 -0.2669  0.2060
  106THY     HO 2627   5.130   6.298   8.254 -2.0463  1.0884  1.3907
  106THY    CA1 2628   5.036   6.455   8.196 -0.0804  0.6743  0.3779
  106THY    CA2 2629   4.959   6.481   8.311  0.3284  0.3933  0.7468
  106THY    CP1 2630   4.948   6.374   8.412 -0.0305  0.8417 -0.3921
  106THY    HP1 2631   4.953   6.277   8.361  0.4123  1.5121 -1.6766
  106THY    CP2 2632   5.058   6.382   8.519  0.5720  0.4568  0.5281
  106THY    HP2 2633   5.023   6.464   8.582 -3.6626  0.0118 -0.8593
  106THY    HP3 2634   5.050   6.287   8.573 -1.2717  0.1405 -0.2058
  106THY    HP4 2635   5.157   6.394   8.474  1.5076 -0.3882  2.2564
  106THY    CP3 2636   4.810   6.351   8.475 -0.1298 -0.5723  0.9094
  106THY    HP5 2637   4.737   6.364   8.395  0.8932 -0.5773 -0.0400
  106THY    HP6 2638   4.804   6.251   8.519  0.6366 -0.9336  0.2183
  106THY    HP7 2639   4.792   6.433   8.545 -0.0062  1.1050 -0.9430
  106THY    CA3 2640   4.894   6.606   8.328 -0.3022  0.5180 -0.3412
  106THY    HA3 2641   4.830   6.617   8.415 -2.4549 -1.1168 -1.6125
  106THY    CA4 2642   4.901   6.696   8.225 -0.1887 -0.2692  0.7232
  106THY    HA4 2643   4.836   6.783   8.227 -0.5274 -0.5030  2.8878
  106THY    CA5 2644   4.983   6.673   8.117  0.3638  0.2335 -0.2176
  106THY    CM1 2645   4.971   6.774   8.008  0.8340 -0.6237 -0.0375
  106THY    HM1 2646   4.958   6.877   8.042  0.5736 -0.6274 -0.1297
  106THY    HM2 2647   5.061   6.765   7.945  0.7062 -3.0625  0.0541
  106THY    HM3 2648   4.893   6.749   7.936 -0.3700  0.8987  0.6877
  106THY    CA6 2649   5.046   6.554   8.103 -0.7774  0.0492  0.1586
  106THY    HA6 2650   5.093   6.530   8.008  0.4152  0.9161  0.5117
  107THY      O 2651   4.711   1.972   3.352 -0.0453 -0.4426  0.1419
  107THY     HO 2652   4.735   1.884   3.319 -0.6944 -0.6412  0.1890
  107THY    CA1 2653   4.611   2.007   3.268  0.4244  0.8708 -0.2191
  107THY    CA2 2654   4.557   2.136   3.269 -0.9226 -0.4793  0.4904
  107THY    CP1 2655   4.634   2.251   3.334  0.1209 -0.7651 -0.1875
  107THY    HP1 2656   4.704   2.216   3.411 -0.8826  2.2426  2.2732
  107THY    CP2 2657   4.711   2.311   3.213  0.2022  0.0116  0.7206
  107THY    HP2 2658   4.789   2.375   3.257 -0.5785  0.9975  0.6883
  107THY    HP3 2659   4.767   2.242   3.149 -0.4445 -0.5282  0.7255
  107THY    HP4 2660   4.649   2.377   3.151  1.5052  3.1091  2.4551
  107THY    CP3 2661   4.546   2.354   3.424  0.0333 -0.0598  0.1256
  107THY    HP5 2662   4.611   2.431   3.465 -0.6622  0.0349  1.0840
  107THY    HP6 2663   4.469   2.406   3.366 -0.0022 -0.5219 -0.2459
  107THY    HP7 2664   4.492   2.307   3.507 -1.4314 -0.7498 -1.1709
  107THY    CA3 2665   4.450   2.170   3.180 -0.4555 -0.0754 -0.2354
  107THY    HA3 2666   4.416   2.273   3.182  0.9990  0.4668 -1.2803
  107THY    CA4 2667   4.388   2.072   3.108 -0.5538 -0.1729 -0.1669
  107THY    HA4 2668   4.303   2.097   3.044  1.0286 -1.0999 -2.7976
  107THY    CA5 2669   4.435   1.938   3.108 -0.2387 -0.1074 -0.0528
  107THY    CM1 2670   4.370   1.827   3.027 -0.2767  0.6828  0.5181
  107THY    HM1 2671   4.362   1.737   3.088  1.1975 -2.4154 -3.4274
  107THY    HM2 2672   4.273   1.853   2.985  0.4698 -0.6704 -2.2558
  107THY    HM3 2673   4.436   1.808   2.942  1.3347 -1.6597  2.1647
  107THY    CA6 2674   4.552   1.905   3.181  0.0550  1.2493 -0.0398
  107THY    HA6 2675   4.580   1.800   3.189  0.4484  1.3527 -0.0273
  108THY      O 2676   8.676   3.644   2.630 -0.0725  0.8637 -0.1073
  108THY     HO 2677   8.659   3.729   2.675  0.4619 -0.1140  2.0668
  108THY    CA1 2678   8.698   3.662   2.495 -0.1636 -0.2051  0.1647
  108THY    CA2 2679   8.722   3.552   2.402  0.1998 -0.3905 -0.5291
  108THY    CP1 2680   8.705   3.408   2.457  0.3635  1.1046  0.1670
  108THY    HP1 2681   8.671   3.419   2.561 -0.9137 -0.8853  0.0091
  108THY    CP2 2682   8.591   3.336   2.377 -0.1194 -0.9540  0.1081
  108THY    HP2 2683   8.498   3.396   2.379  1.3902  1.5659 -0.4468
  108THY    HP3 2684   8.621   3.325   2.273  1.4406  5.2133 -0.4929
  108THY    HP4 2685   8.565   3.238   2.419  0.8616 -1.3944 -0.2952
  108THY    CP3 2686   8.841   3.333   2.465 -0.2601  0.5022  0.3713
  108THY    HP5 2687   8.876   3.308   2.364 -0.4184 -2.6871  1.0204
  108THY    HP6 2688   8.914   3.396   2.517  0.6015 -0.8724  0.8800
  108THY    HP7 2689   8.841   3.232   2.507 -0.4897  0.1903 -0.3596
  108THY    CA3 2690   8.748   3.572   2.265  0.1427 -0.3372  0.6716
  108THY    HA3 2691   8.749   3.492   2.193  2.1799 -0.3293  0.6348
  108THY    CA4 2692   8.751   3.709   2.225  0.1327 -0.0618  0.4121
  108THY    HA4 2693   8.776   3.724   2.121  0.0199 -1.6630  0.1190
  108THY    CA5 2694   8.731   3.810   2.313  0.5571 -0.2237 -0.3623
  108THY    CM1 2695   8.749   3.955   2.265 -0.1152 -0.2775 -0.0618
  108THY    HM1 2696   8.758   3.970   2.157 -2.7235 -0.0580 -0.3144
  108THY    HM2 2697   8.658   4.015   2.284  0.6109  0.4287  1.3845
  108THY    HM3 2698   8.827   3.998   2.329  0.8958 -1.8114 -0.2252
  108THY    CA6 2699   8.702   3.788   2.447  0.3870  0.0270  0.3660
  108THY    HA6 2700   8.675   3.873   2.510  0.6171  0.9710 -0.7681
  109THY      O 2701   4.409   2.880   8.110 -0.0029 -0.0413 -0.1146
  109THY     HO 2702   4.365   2.796   8.090  0.8269 -0.8929  1.4343
  109THY    CA1 2703   4.510   2.895   8.012  0.7026 -0.2568 -0.5997
  109THY    CA2 2704   4.565   3.021   7.985  0.1011  0.0483 -0.4513
  109THY    CP1 2705   4.524   3.149   8.074  0.2174 -0.2742  0.3605
  109THY    HP1 2706   4.485   3.120   8.172  1.5554  0.0336  1.0143
  109THY    CP2 2707   4.656   3.227   8.114  0.0666 -0.2813  0.7140
  109THY    HP2 2708   4.643   3.289   8.203 -2.1971  0.5349 -0.1026
  109THY    HP3 2709   4.741   3.158   8.121  1.1538  0.5890 -2.4721
  109THY    HP4 2710   4.679   3.300   8.036 -0.4011 -0.6241  0.2452
  109THY    CP3 2711   4.422   3.250   8.018  0.1562 -0.1509  0.8863
  109THY    HP5 2712   4.470   3.300   7.932  1.1112 -0.3748  1.2831
  109THY    HP6 2713   4.326   3.208   7.986 -1.2995  4.2302 -1.4138
  109THY    HP7 2714   4.398   3.314   8.104 -3.0145  0.7235 -0.4898
  109THY    CA3 2715   4.659   3.030   7.880 -0.2180 -0.2240 -0.6922
  109THY    HA3 2716   4.714   3.122   7.863  0.8774  0.0165  3.1854
  109THY    CA4 2717   4.690   2.917   7.812  0.4366 -0.5371 -0.2325
  109THY    HA4 2718   4.760   2.926   7.729 -0.9700  1.8519 -1.2590
  109THY    CA5 2719   4.642   2.795   7.848 -0.7437  0.3667 -0.2943
  109THY    CM1 2720   4.692   2.672   7.782  0.0073  0.5715 -0.1924
  109THY    HM1 2721   4.702   2.698   7.676  1.9876 -1.0233 -0.4745
  109THY    HM2 2722   4.788   2.642   7.826  0.6611  1.7541 -0.7663
  109THY    HM3 2723   4.621   2.590   7.797 -0.6213  0.8103 -1.7068
  109THY    CA6 2724   4.546   2.787   7.944 -0.7599  0.3126 -0.2903
  109THY    HA6 2725   4.504   2.691   7.970 -0.6212  0.3765  0.1697
  110THY      O 2726   3.726   9.173   2.608 -0.0020 -0.2315 -0.0667
  110THY     HO 2727   3.632   9.167   2.630 -0.1941 -1.6851 -1.0920
  110THY    CA1 2728   3.783   9.198   2.731 -0.2769 -0.2585 -0.6383
  110THY    CA2 2729   3.923   9.231   2.736  0.4175  0.1871  0.2785
  110THY    CP1 2730   4.005   9.230   2.603 -0.6950 -1.3730 -1.0950
  110THY    HP1 2731   3.947   9.217   2.511 -0.1861 -0.8406 -1.5033
  110THY    CP2 2732   4.077   9.361   2.595 -0.0064 -0.3105  0.1814
  110THY    HP2 2733   4.147   9.377   2.678  0.8096  1.0494 -0.7213
  110THY    HP3 2734   4.125   9.369   2.497  2.4478 -0.6034  1.2620
  110THY    HP4 2735   4.011   9.448   2.601 -0.9921 -0.9945 -0.4909
  110THY    CP3 2736   4.118   9.124   2.602  0.0140  0.1976 -0.1970
  110THY    HP5 2737   4.178   9.142   2.692  1.3200  0.4463 -1.0907
  110THY    HP6 2738   4.064   9.029   2.600 -2.1438  1.3645 -1.1803
  110THY    HP7 2739   4.182   9.120   2.513  1.0098  1.2007  0.4482
  110THY    CA3 2740   3.985   9.253   2.862 -0.3281  0.1173 -0.8377
  110THY    HA3 2741   4.090   9.277   2.875 -0.6935  2.1127 -1.3569
  110THY    CA4 2742   3.902   9.244   2.978 -0.1138 -0.2858  0.0907
  110THY    HA4 2743   3.940   9.260   3.079  0.3895 -0.2730 -0.0997
  110THY    CA5 2744   3.765   9.213   2.972 -0.3039  0.2222  0.1165
  110THY    CM1 2745   3.681   9.212   3.099 -0.5098 -0.3802 -0.0721
  110THY    HM1 2746   3.743   9.207   3.190  0.9683 -0.0510 -1.0174
  110THY    HM2 2747   3.619   9.302   3.109  0.8010  0.8370 -2.2065
  110THY    HM3 2748   3.617   9.123   3.096 -0.5835 -0.3010 -1.3249
  110THY    CA6 2749   3.704   9.190   2.846 -0.5497  0.1459  0.0642
  110THY    HA6 2750   3.598   9.177   2.827 -0.4621 -1.6337  0.6007
  111THY      O 2751   1.412   5.822   0.886  1.1906 -0.3765 -0.6851
  111THY     HO 2752   1.422   5.812   0.982  0.1602  0.0829 -0.5159
  111THY    CA1 2753   1.517   5.759   0.838 -0.0263 -0.0831  0.4607
  111THY    CA2 2754   1.593   5.800   0.719  0.6394 -0.6964 -0.0354
  111THY    CP1 2755   1.559   5.933   0.646  0.3085 -0.7120  0.0411
  111THY    HP1 2756   1.504   6.001   0.711 -0.6910  0.6236 -2.0717
  111THY    CP2 2757   1.675   6.008   0.587 -0.0822  0.0154  0.2763
  111THY    HP2 2758   1.751   5.997   0.665 -0.3605  0.9265  0.6832
  111THY    HP3 2759   1.716   5.982   0.488  0.2114  0.5209  0.2610
  111THY    HP4 2760   1.632   6.109   0.585 -2.3987 -0.8978 -1.3884
  111THY    CP3 2761   1.465   5.896   0.531  0.3686 -0.5823 -0.1247
  111THY    HP5 2762   1.448   5.987   0.472  2.0984  0.6287  1.1184
  111THY    HP6 2763   1.502   5.807   0.478 -0.0694 -0.7962 -0.0707
  111THY    HP7 2764   1.365   5.862   0.559  0.6739 -0.8288  0.6813
  111THY    CA3 2765   1.689   5.712   0.671 -1.0657  0.0467  0.0583
  111THY    HA3 2766   1.745   5.741   0.582  0.6430 -0.2220  1.0022
  111THY    CA4 2767   1.725   5.603   0.744 -0.3268 -0.4716 -0.8257
  111THY    HA4 2768   1.815   5.548   0.718  0.7025  0.6787  0.1646
  111THY    CA5 2769   1.650   5.566   0.857 -0.2597  0.2999  0.4495
  111THY    CM1 2770   1.688   5.445   0.933  0.3277 -0.5792  0.5012
  111THY    HM1 2771   1.793   5.441   0.965  0.4849  2.0554  0.5438
  111THY    HM2 2772   1.630   5.433   1.025  0.4467  1.7125  0.9224
  111THY    HM3 2773   1.666   5.353   0.877 -2.2014 -0.4869  1.2335
  111THY    CA6 2774   1.551   5.642   0.904  0.2772 -1.2019  0.0226
  111THY    HA6 2775   1.502   5.605   0.994 -0.1140 -1.0965 -0.1454
  112THY      O 2776   6.124   0.972   6.059  0.2831 -0.2994 -0.3174
  112THY     HO 2777   6.085   0.987   5.971 -3.7925 -3.3198  0.6610
  112THY    CA1 2778   6.261   0.960   6.049  0.7161 -0.2606 -0.5596
  112THY    CA2 2779   6.329   0.873   6.136 -1.0966  0.3076 -0.3929
  112THY    CP1 2780   6.262   0.778   6.236 -0.1606 -0.4279 -0.0051
  112THY    HP1 2781   6.155   0.782   6.212 -0.0991  1.5960 -0.1212
  112THY    CP2 2782   6.305   0.637   6.228 -1.0907  0.9488 -0.3592
  112THY    HP2 2783   6.412   0.630   6.207 -0.5271 -4.2690  2.7372
  112THY    HP3 2784   6.283   0.591   6.324 -1.4268  2.7200  0.4640
  112THY    HP4 2785   6.262   0.569   6.153 -0.8938 -1.6899  1.8013
  112THY    CP3 2786   6.300   0.838   6.377 -0.2992  0.3660  0.4193
  112THY    HP5 2787   6.265   0.942   6.380  1.2122  0.9354 -0.6575
  112THY    HP6 2788   6.250   0.779   6.456  0.9669 -1.3336  0.0171
  112THY    HP7 2789   6.405   0.822   6.404 -0.1674 -0.0907 -0.3315
  112THY    CA3 2790   6.466   0.870   6.122  0.6989  0.3157  0.9242
  112THY    HA3 2791   6.524   0.803   6.186  0.3910 -0.0595  0.8150
  112THY    CA4 2792   6.536   0.951   6.027 -0.7107 -1.5477 -0.6318
  112THY    HA4 2793   6.644   0.947   6.016 -0.6200  0.1260 -0.6172
  112THY    CA5 2794   6.467   1.050   5.950  0.2596  0.2804  0.0777
  112THY    CM1 2795   6.533   1.135   5.850 -0.2479  0.0270  0.3649
  112THY    HM1 2796   6.484   1.231   5.831  0.1889  0.5926  1.9540
  112THY    HM2 2797   6.639   1.155   5.869  0.2495 -0.7310 -1.3955
  112THY    HM3 2798   6.525   1.086   5.752  0.8501  2.4638 -1.0213
  112THY    CA6 2799   6.324   1.047   5.963 -0.6915  0.3825 -0.1150
  112THY    HA6 2800   6.265   1.124   5.914 -0.9332 -0.7433 -1.6813
  113THY      O 2801   9.328   1.737   6.235 -0.9112  0.0572  0.7135
  113THY     HO 2802   9.326   1.658   6.293  2.0998 -1.1664 -0.6275
  113THY    CA1 2803   9.353   1.840   6.324  0.0799 -0.4412 -0.2764
  113THY    CA2 2804   9.383   1.970   6.275 -0.1368  0.3209 -0.0457
  113THY    CP1 2805   9.405   2.010   6.128 -0.4492 -0.3549  0.8238
  113THY    HP1 2806   9.381   1.926   6.062 -2.9994  0.4583  0.5931
  113THY    CP2 2807   9.294   2.107   6.087 -0.8803 -1.2732 -0.3063
  113THY    HP2 2808   9.307   2.140   5.983 -0.5756  0.7921  0.3458
  113THY    HP3 2809   9.195   2.063   6.105 -1.1134 -0.7272 -0.2251
  113THY    HP4 2810   9.301   2.194   6.153  1.7451 -0.6619 -1.2806
  113THY    CP3 2811   9.542   2.069   6.111  0.2353 -0.2320  0.1615
  113THY    HP5 2812   9.542   2.167   6.160 -2.4004 -0.5842  1.0032
  113THY    HP6 2813   9.614   2.012   6.170 -0.0939 -0.1520  0.6513
  113THY    HP7 2814   9.563   2.090   6.005  1.2859 -0.5362  0.3004
  113THY    CA3 2815   9.396   2.072   6.375  0.4125  0.3311 -0.0532
  113THY    HA3 2816   9.420   2.174   6.345  2.0076 -0.3202 -1.0991
  113THY    CA4 2817   9.364   2.041   6.509  0.4404  0.7699  0.1038
  113THY    HA4 2818   9.357   2.123   6.580  3.4574  1.1255  0.1393
  113THY    CA5 2819   9.348   1.909   6.552 -0.2179  0.6179 -1.0144
  113THY    CM1 2820   9.333   1.875   6.702 -0.0323 -0.4027  0.2878
  113THY    HM1 2821   9.347   1.768   6.720  1.8568 -0.2115  0.1923
  113THY    HM2 2822   9.410   1.926   6.761  2.7071 -2.8158 -0.9584
  113THY    HM3 2823   9.238   1.916   6.736  0.6003  1.8510 -0.4703
  113THY    CA6 2824   9.341   1.808   6.455  0.7519 -0.0496 -0.2775
  113THY    HA6 2825   9.328   1.706   6.490 -1.2050 -0.4714 -2.0035
  114THY      O 2826   4.386   4.058   4.355 -0.7212  0.3805  0.0866
  114THY     HO 2827   4.333   4.099   4.425 -0.0654  0.1832  0.7149
  114THY    CA1 2828   4.412   4.158   4.269  0.3183 -0.5415  0.0098
  114THY    CA2 2829   4.542   4.206   4.255 -0.6771  0.2225 -0.2452
  114THY    CP1 2830   4.657   4.164   4.350  0.4499  0.3037  0.2013
  114THY    HP1 2831   4.627   4.074   4.406 -0.4947  0.9408  0.7352
  114THY    CP2 2832   4.800   4.131   4.290  0.4091  0.0123 -0.2308
  114THY    HP2 2833   4.865   4.084   4.364  1.5509 -0.5075 -1.5241
  114THY    HP3 2834   4.780   4.062   4.207 -1.9266 -0.6083  0.7770
  114THY    HP4 2835   4.841   4.224   4.247 -0.8501  1.6743  1.9455
  114THY    CP3 2836   4.662   4.266   4.470 -0.4138 -0.3132  1.4100
  114THY    HP5 2837   4.686   4.366   4.431 -2.0755  0.1645  1.5114
  114THY    HP6 2838   4.561   4.267   4.514 -0.9242  2.0791  0.3876
  114THY    HP7 2839   4.727   4.222   4.545 -1.6716 -0.7199  2.2975
  114THY    CA3 2840   4.559   4.317   4.172 -0.2587  0.1349  0.2381
  114THY    HA3 2841   4.651   4.375   4.176  0.0164 -0.3503  1.1683
  114THY    CA4 2842   4.455   4.363   4.091  0.4251 -1.2673 -0.3986
  114THY    HA4 2843   4.481   4.437   4.016  1.0244  2.4882  3.1712
  114THY    CA5 2844   4.325   4.321   4.110 -0.7258  0.1193  0.1026
  114THY    CM1 2845   4.210   4.384   4.034 -0.1620 -0.1001 -0.1680
  114THY    HM1 2846   4.179   4.321   3.949  2.0646  1.7357 -2.5128
  114THY    HM2 2847   4.117   4.397   4.090 -1.4582 -1.3570 -1.9307
  114THY    HM3 2848   4.233   4.485   3.998 -1.3498  0.7565  1.3688
  114THY    CA6 2849   4.300   4.210   4.195 -0.3304 -0.0195 -0.0735
  114THY    HA6 2850   4.199   4.175   4.212 -1.0150  1.5514 -0.6947
  115THY      O 2851   3.266   5.693   0.849 -0.4856  0.2486  0.5188
  115THY     HO 2852   3.202   5.730   0.913 -2.1662 -2.7015  0.7310
  115THY    CA1 2853   3.234   5.558   0.848 -0.0125 -0.5184  0.3219
  115THY    CA2 2854   3.284   5.480   0.741  0.5646 -0.2253 -0.8275
  115THY    CP1 2855   3.374   5.532   0.632  0.2013  0.1066  0.6350
  115THY    HP1 2856   3.391   5.640   0.640  1.2606 -0.0514  0.6999
  115THY    CP2 2857   3.519   5.476   0.635  0.2195  0.1991 -0.3008
  115THY    HP2 2858   3.521   5.376   0.590  0.8345  0.0257  0.1119
  115THY    HP3 2859   3.585   5.543   0.579  2.8693 -1.3501  0.8089
  115THY    HP4 2860   3.550   5.465   0.739  0.2570  2.5569 -0.0203
  115THY    CP3 2861   3.304   5.494   0.499  0.1842  0.7442  0.4657
  115THY    HP5 2862   3.310   5.385   0.493 -0.0952  0.5914  2.4403
  115THY    HP6 2863   3.201   5.530   0.506 -0.3274 -0.9372  2.6283
  115THY    HP7 2864   3.355   5.537   0.412 -2.8831 -1.0391 -2.4485
  115THY    CA3 2865   3.260   5.346   0.741  0.2647  0.4115 -0.1676
  115THY    HA3 2866   3.311   5.281   0.669  0.3426  0.1046  0.1648
  115THY    CA4 2867   3.168   5.285   0.837 -0.1851  0.2563  1.0524
  115THY    HA4 2868   3.144   5.179   0.840  0.6739  0.0606  1.3475
  115THY    CA5 2869   3.106   5.368   0.930 -0.4653  0.3735 -0.3892
  115THY    CM1 2870   3.020   5.317   1.036 -0.5556  0.1560  0.4040
  115THY    HM1 2871   2.923   5.366   1.019  0.2912  1.1875 -1.8680
  115THY    HM2 2872   3.015   5.208   1.036 -1.2750  0.1797 -0.3510
  115THY    HM3 2873   3.063   5.334   1.136 -0.1507 -1.5595  0.5469
  115THY    CA6 2874   3.143   5.502   0.941  0.2779 -0.4911 -0.1034
  115THY    HA6 2875   3.100   5.568   1.016  1.8233  0.1138  0.2840
  116THY      O 2876   0.592   6.263   6.098 -0.9265  0.4062  0.1181
  116THY     HO 2877   0.498   6.242   6.083 -0.8341 -1.3277  1.6890
  116THY    CA1 2878   0.593   6.386   6.149  0.1364  0.0964 -0.2349
  116THY    CA2 2879   0.711   6.440   6.207  0.2104 -0.2196  0.5150
  116THY    CP1 2880   0.829   6.351   6.237 -1.1970  0.7112 -0.1285
  116THY    HP1 2881   0.835   6.265   6.169  3.2174  0.2585  0.5668
  116THY    CP2 2882   0.965   6.407   6.198 -0.4034 -0.0252 -1.6865
  116THY    HP2 2883   0.981   6.408   6.090 -0.9171 -0.3626 -1.7683
  116THY    HP3 2884   0.986   6.504   6.244  1.7073 -0.3565 -1.8380
  116THY    HP4 2885   1.045   6.343   6.238 -1.0014  1.1831  1.7575
  116THY    CP3 2886   0.824   6.304   6.385  0.3975 -0.2465  0.3372
  116THY    HP5 2887   0.736   6.239   6.393 -2.7691  3.0401 -3.2478
  116THY    HP6 2888   0.920   6.262   6.415 -0.7096 -1.8758  1.8003
  116THY    HP7 2889   0.804   6.387   6.454 -0.6225  0.0942 -0.3419
  116THY    CA3 2890   0.708   6.569   6.250  0.1527 -0.6709  0.3761
  116THY    HA3 2891   0.790   6.615   6.305  1.9131 -0.2595 -2.3927
  116THY    CA4 2892   0.596   6.649   6.229  0.1065 -0.5062 -0.3265
  116THY    HA4 2893   0.599   6.751   6.266  0.8813 -0.5719 -0.1725
  116THY    CA5 2894   0.486   6.600   6.170  0.0674 -0.1389 -0.5314
  116THY    CM1 2895   0.359   6.680   6.163  0.0080  0.5280  0.5978
  116THY    HM1 2896   0.328   6.688   6.059  1.3034 -1.4654  0.0088
  116THY    HM2 2897   0.279   6.628   6.217 -0.1710 -1.8251 -1.7646
  116THY    HM3 2898   0.387   6.781   6.195  3.2314 -0.2011  0.5059
  116THY    CA6 2899   0.488   6.464   6.129 -0.0017 -0.0032 -0.0600
  116THY    HA6 2900   0.399   6.433   6.075  0.5057 -0.7528 -0.4965
  117THY      O 2901   3.728   4.696   3.072  0.4114 -0.2093 -0.3426
  117THY     HO 2902   3.674   4.775   3.054 -1.3818 -1.8974 -3.0828
  117THY    CA1 2903   3.734   4.632   2.952  0.2266  0.1601  0.0694
  117THY    CA2 2904   3.853   4.573   2.909  0.3560 -0.3146 -0.1625
  117THY    CP1 2905   3.980   4.577   2.998  0.3553 -0.1427  0.0887
  117THY    HP1 2906   3.991   4.680   3.034  0.2286  0.1640 -0.7217
  117THY    CP2 2907   3.966   4.497   3.124 -0.0021  0.7085 -0.4143
  117THY    HP2 2908   4.068   4.484   3.161  0.3293  2.0538 -0.7810
  117THY    HP3 2909   3.899   4.547   3.196  0.1137 -1.5870  1.3869
  117THY    HP4 2910   3.920   4.399   3.108  0.1453  0.8175 -1.5702
  117THY    CP3 2911   4.106   4.535   2.923  0.7754  0.7469  0.1260
  117THY    HP5 2912   4.100   4.426   2.909  0.0027  0.8398 -0.3250
  117THY    HP6 2913   4.103   4.595   2.831 -0.4425  0.1081 -0.2723
  117THY    HP7 2914   4.201   4.552   2.976  0.5930 -2.4405  1.7235
  117THY    CA3 2915   3.843   4.499   2.787  0.4918 -0.2443 -0.2691
  117THY    HA3 2916   3.925   4.437   2.752  2.0471  1.5732 -0.0373
  117THY    CA4 2917   3.727   4.497   2.714  0.2040  0.1248 -0.2043
  117THY    HA4 2918   3.717   4.453   2.616 -4.3902  2.4373 -1.0779
  117THY    CA5 2919   3.614   4.565   2.761 -0.8835 -0.3592  0.5209
  117THY    CM1 2920   3.487   4.573   2.680 -0.2214  0.1361  0.2762
  117THY    HM1 2921   3.446   4.471   2.683  2.8418 -1.1882  0.2338
  117THY    HM2 2922   3.416   4.647   2.719 -0.0294  0.5119 -0.0836
  117THY    HM3 2923   3.506   4.597   2.575 -0.8278 -1.1769 -0.1565
  117THY    CA6 2924   3.613   4.622   2.887  0.5768 -0.5116  0.3060
  117THY    HA6 2925   3.520   4.658   2.930  0.4652 -0.4586  0.0261
  118THY      O 2926   6.977   8.776   4.235 -0.2688 -0.1682  0.4687
  118THY     HO 2927   6.918   8.772   4.158 -0.7586  3.0636  0.5424
  118THY    CA1 2928   7.103   8.769   4.188  0.4124 -0.5111 -0.4029
  118THY    CA2 2929   7.212   8.737   4.276 -0.2659 -0.0373  0.3517
  118THY    CP1 2930   7.192   8.715   4.426  0.0381 -0.1367 -0.3288
  118THY    HP1 2931   7.090   8.705   4.465 -0.2767  1.2673 -0.7385
  118THY    CP2 2932   7.276   8.594   4.463  0.6777 -0.8066 -0.5743
  118THY    HP2 2933   7.308   8.600   4.568  2.5048  1.8406 -1.1700
  118THY    HP3 2934   7.204   8.515   4.441 -2.3078  1.3673  0.7109
  118THY    HP4 2935   7.371   8.579   4.410  1.1965  1.2331 -0.2929
  118THY    CP3 2936   7.253   8.838   4.497  0.2093  0.5330 -0.9271
  118THY    HP5 2937   7.205   8.930   4.462  0.8336  0.7388 -1.2490
  118THY    HP6 2938   7.251   8.818   4.605  1.0236  1.5003 -0.7147
  118THY    HP7 2939   7.359   8.834   4.470  0.6894 -1.2085  0.9699
  118THY    CA3 2940   7.344   8.733   4.212  0.0393  0.0001 -0.7970
  118THY    HA3 2941   7.427   8.706   4.276 -1.2307 -0.9404  0.5186
  118THY    CA4 2942   7.360   8.744   4.071 -0.2119 -1.0083 -0.5561
  118THY    HA4 2943   7.458   8.747   4.025  0.6741  0.3629  1.2715
  118THY    CA5 2944   7.244   8.759   3.996 -0.7473 -0.4761  0.2206
  118THY    CM1 2945   7.262   8.771   3.848  0.0598  0.5173  0.7066
  118THY    HM1 2946   7.179   8.712   3.807  1.0704 -1.3652  1.2663
  118THY    HM2 2947   7.254   8.873   3.811 -0.5299  0.6904  1.2855
  118THY    HM3 2948   7.354   8.725   3.809  0.2072 -1.2928  2.9717
  118THY    CA6 2949   7.118   8.767   4.045 -0.2974  0.3761 -0.1679
  118THY    HA6 2950   7.031   8.778   3.982  0.3895  0.2207 -1.1567
  119THY      O 2951   0.850   1.656   4.644  0.4344 -0.0462 -0.0512
  119THY     HO 2952   0.847   1.559   4.648  2.9260 -0.1763  0.2306
  119THY    CA1 2953   0.973   1.687   4.594  0.3834 -0.3354  0.4087
  119THY    CA2 2954   1.018   1.818   4.561  0.6938 -0.3660 -0.4615
  119THY    CP1 2955   0.926   1.936   4.583  0.6914 -0.7157  0.1171
  119THY    HP1 2956   0.833   1.901   4.629  1.0128 -2.9290 -0.7838
  119THY    CP2 2957   0.980   2.054   4.673  0.2434 -0.0667 -0.0479
  119THY    HP2 2958   1.053   2.121   4.628  0.6917  0.2549  1.1405
  119THY    HP3 2959   0.890   2.117   4.677  0.9882  1.0216 -0.1091
  119THY    HP4 2960   1.010   2.031   4.776  0.5397  0.9250  0.0939
  119THY    CP3 2961   0.875   1.995   4.451  0.3827  0.3352  0.3596
  119THY    HP5 2962   0.955   2.034   4.386 -1.1484  1.6650 -0.8113
  119THY    HP6 2963   0.809   1.932   4.391  0.5816 -0.4808  0.9861
  119THY    HP7 2964   0.810   2.079   4.478  0.9947  1.2787 -0.9724
  119THY    CA3 2965   1.147   1.833   4.508  0.2459  0.5108 -0.3678
  119THY    HA3 2966   1.189   1.926   4.470  0.5213  0.1647 -0.9277
  119THY    CA4 2967   1.235   1.728   4.503 -0.3783  0.1514 -0.1636
  119THY    HA4 2968   1.338   1.736   4.470 -0.3838 -0.4483 -0.3448
  119THY    CA5 2969   1.194   1.601   4.544  0.3601  0.5764  0.1848
  119THY    CM1 2970   1.296   1.488   4.546 -0.1337 -0.1733  0.0145
  119THY    HM1 2971   1.246   1.393   4.523  0.5278  0.1479 -3.2425
  119THY    HM2 2972   1.370   1.517   4.470  1.0525  0.5011  1.3923
  119THY    HM3 2973   1.347   1.493   4.643 -2.2435 -0.5570  1.1997
  119THY    CA6 2974   1.060   1.580   4.580 -0.1402  0.3493  0.1631
  119THY    HA6 2975   1.016   1.481   4.585 -1.1633  0.7502 -0.4725
  120THY      O 2976   2.008   3.258   2.900  0.0720 -0.6177  1.0869
  120THY     HO 2977   2.093   3.234   2.859 -0.5010  2.4729 -2.4832
  120THY    CA1 2978   1.996   3.393   2.872  0.0206 -0.0148 -0.2400
  120THY    CA2 2979   1.872   3.457   2.880  0.3319 -0.6474  0.7334
  120THY    CP1 2980   1.736   3.386   2.926 -0.8222 -0.2960  0.3378
  120THY    HP1 2981   1.765   3.296   2.982  1.3573 -0.5160 -1.0091
  120THY    CP2 2982   1.654   3.476   3.020 -0.4627 -0.9416  0.4407
  120THY    HP2 2983   1.579   3.435   3.088 -1.0608  0.9168  0.9754
  120THY    HP3 2984   1.715   3.540   3.085 -1.8436  1.8508 -0.8203
  120THY    HP4 2985   1.591   3.541   2.958  0.2090  1.4455  2.1276
  120THY    CP3 2986   1.646   3.348   2.814  0.6846 -0.7085  0.1521
  120THY    HP5 2987   1.548   3.305   2.837  0.5305 -0.0988  0.6472
  120THY    HP6 2988   1.623   3.439   2.757  3.4998 -0.5835 -0.9784
  120THY    HP7 2989   1.706   3.280   2.752  0.4392  0.7788 -1.8436
  120THY    CA3 2990   1.870   3.588   2.848  0.5378  0.1171 -0.3375
  120THY    HA3 2991   1.778   3.647   2.850  1.8303  2.2135  0.5333
  120THY    CA4 2992   1.977   3.652   2.797  0.6634  0.0242 -0.0156
  120THY    HA4 2993   1.961   3.751   2.754  0.8007 -0.8874 -2.3478
  120THY    CA5 2994   2.105   3.585   2.786  0.1939 -0.4841 -0.3073
  120THY    CM1 2995   2.221   3.666   2.738 -0.3385  0.3818 -0.4865
  120THY    HM1 2996   2.205   3.775   2.732  2.7438  1.1157  2.0065
  120THY    HM2 2997   2.298   3.652   2.814  1.4444  1.9719 -1.8777
  120THY    HM3 2998   2.263   3.624   2.646  1.8826 -0.7288  0.9522
  120THY    CA6 2999   2.113   3.450   2.826  0.9071 -0.5800  0.2628
  120THY    HA6 3000   2.205   3.394   2.817  1.8611  1.0595 -0.7482
  121THY      O 3001   0.974   2.291   5.854  0.7569 -0.0507  0.2503
  121THY     HO 3002   0.899   2.328   5.804  0.4762 -1.3771 -0.3718
  121THY    CA1 3003   0.929   2.166   5.881 -0.4525 -0.2022 -0.2560
  121THY    CA2 3004   1.007   2.053   5.888 -0.4646  0.2302  0.2617
  121THY    CP1 3005   1.161   2.070   5.895  0.8663 -0.6669  0.3073
  121THY    HP1 3006   1.198   2.174   5.900  0.2189 -0.3453 -1.0324
  121THY    CP2 3007   1.216   1.995   6.015 -0.0578 -0.5814 -0.1572
  121THY    HP2 3008   1.160   2.033   6.101 -0.7261  1.5795 -1.4647
  121THY    HP3 3009   1.216   1.887   5.999  0.8935 -0.4526 -1.2091
  121THY    HP4 3010   1.319   2.033   6.018 -0.0039 -0.5571 -1.5001
  121THY    CP3 3011   1.212   2.008   5.763  0.0309 -0.3772 -0.4170
  121THY    HP5 3012   1.231   1.900   5.766  1.7818 -0.0898 -0.0760
  121THY    HP6 3013   1.153   2.051   5.681  1.0582  5.2685  1.3815
  121THY    HP7 3014   1.316   2.042   5.753  0.1306 -1.3127 -3.7161
  121THY    CA3 3015   0.940   1.929   5.895  0.6161 -0.1252 -0.0871
  121THY    HA3 3016   0.994   1.834   5.892 -2.8065 -2.2526 -3.3076
  121THY    CA4 3017   0.801   1.924   5.914  0.3539  0.3016  1.2965
  121THY    HA4 3018   0.760   1.824   5.923 -0.9912  0.7150  0.1110
  121THY    CA5 3019   0.725   2.037   5.907  0.3214  0.0832  0.4551
  121THY    CM1 3020   0.574   2.035   5.912 -0.2251 -0.2297  0.4604
  121THY    HM1 3021   0.535   2.119   5.854  1.6374  0.7349  0.5527
  121THY    HM2 3022   0.549   1.941   5.860  0.8463 -0.0819 -0.3682
  121THY    HM3 3023   0.543   2.046   6.016 -0.6336 -0.2707  0.3444
  121THY    CA6 3024   0.791   2.161   5.885 -0.1927 -0.9882  0.3704
  121THY    HA6 3025   0.732   2.252   5.880 -0.5957 -1.1728  1.4422
  122THY      O 3026   9.548   3.163   3.645 -0.0071  0.2319  0.9380
  122THY     HO 3027   9.505   3.232   3.593 -2.1845 -1.9912 -0.4549
  122THY    CA1 3028   9.664   3.205   3.691 -0.4266 -0.7209 -0.2613
  122THY    CA2 3029   9.747   3.121   3.778  0.5158 -0.6309  0.7644
  122THY    CP1 3030   9.697   2.978   3.806 -0.0912  0.7989  0.5162
  122THY    HP1 3031   9.663   2.942   3.709  3.3607 -1.9091  0.1263
  122THY    CP2 3032   9.807   2.878   3.852 -0.2195  0.1771 -0.3324
  122THY    HP2 3033   9.900   2.874   3.795  0.8894 -1.7404  1.4946
  122THY    HP3 3034   9.823   2.888   3.960 -0.6114  2.3859 -0.4314
  122THY    HP4 3035   9.763   2.779   3.840  0.7140 -0.1909 -0.8076
  122THY    CP3 3036   9.581   2.975   3.904  0.1565  0.4466  0.0851
  122THY    HP5 3037   9.542   2.873   3.918 -0.8677  0.9426  1.0140
  122THY    HP6 3038   9.623   3.005   4.001  2.0301 -0.2884 -0.4554
  122THY    HP7 3039   9.502   3.044   3.874 -2.5848 -1.7097  1.8172
  122THY    CA3 3040   9.871   3.172   3.809 -0.2929 -0.0196  0.4256
  122THY    HA3 3041   9.940   3.110   3.865 -1.4520 -1.1382  0.6651
  122THY    CA4 3042   9.894   3.312   3.788  0.4314 -0.3066 -0.8986
  122THY    HA4 3043   9.987   3.351   3.829  0.5844 -1.2987 -0.2526
  122THY    CA5 3044   9.797   3.395   3.723 -0.0973 -0.2331  0.1993
  122THY    CM1 3045   9.822   3.539   3.704  0.1472  0.2109  0.4008
  122THY    HM1 3046   9.853   3.561   3.601 -0.7800 -1.5961 -0.3005
  122THY    HM2 3047   9.731   3.594   3.730 -0.0643 -0.2665  0.6741
  122THY    HM3 3048   9.896   3.569   3.779 -0.4812  1.5339  0.5263
  122THY    CA6 3049   9.694   3.333   3.652 -0.2897 -0.5730  0.3955
  122THY    HA6 3050   9.633   3.393   3.585  0.5905  0.3305  0.3746
  123THY      O 3051   9.332   0.757   5.772 -0.1955 -0.5992  0.4996
  123THY     HO 3052   9.392   0.761   5.696 -0.4420  0.7356  0.3569
  123THY    CA1 3053   9.253   0.865   5.782 -0.1021 -0.5425  0.5222
  123THY    CA2 3054   9.201   0.937   5.669  0.6890 -0.1321  0.0498
  123THY    CP1 3055   9.240   0.897   5.529 -0.1577  0.3192 -0.1168
  123THY    HP1 3056   9.291   0.800   5.531 -0.1181  0.3409 -0.0644
  123THY    CP2 3057   9.105   0.868   5.444 -0.2240  0.2792  0.4579
  123THY    HP2 3058   9.075   0.958   5.388 -0.2905  0.7175  1.1905
  123THY    HP3 3059   9.100   0.780   5.378 -0.8523 -1.8498  3.1886
  123THY    HP4 3060   9.021   0.842   5.510  0.3585 -0.7765  0.8058
  123THY    CP3 3061   9.340   1.000   5.464  0.5814  0.0266 -0.7587
  123THY    HP5 3062   9.284   1.092   5.444 -0.0208 -0.0719  0.3891
  123THY    HP6 3063   9.430   1.014   5.525 -0.6831  1.1015  0.9756
  123THY    HP7 3064   9.362   0.952   5.368  0.6470 -1.2365 -0.1346
  123THY    CA3 3065   9.106   1.038   5.681  0.4483  0.3876  0.1887
  123THY    HA3 3066   9.078   1.095   5.592 -0.2718  1.8033  1.2889
  123THY    CA4 3067   9.061   1.067   5.808 -0.6181 -0.9438 -1.0469
  123THY    HA4 3068   8.992   1.150   5.818  0.8941  0.2870 -0.2129
  123THY    CA5 3069   9.110   0.996   5.919  0.9975  0.0685 -0.6439
  123THY    CM1 3070   9.073   1.045   6.059  0.4382 -0.1221 -0.3870
  123THY    HM1 3071   9.027   1.144   6.052 -0.1289 -0.4381 -1.3267
  123THY    HM2 3072   8.998   0.985   6.112  1.0293 -0.4881  0.0450
  123THY    HM3 3073   9.161   1.037   6.123 -0.0776 -2.0506  0.1421
  123THY    CA6 3074   9.212   0.901   5.902  0.2484  0.0327 -0.9246
  123THY    HA6 3075   9.247   0.847   5.989 -1.0328  0.5787 -0.0324
  124THY      O 3076   8.161   5.628   7.067  0.0718  0.1812  0.0670
  124THY     HO 3077   8.249   5.636   7.027 -1.1457  0.0908 -2.8398
  124THY    CA1 3078   8.139   5.744   7.132  0.9765 -0.0486  0.2847
  124THY    CA2 3079   8.008   5.780   7.163  0.2050 -0.1049  0.0348
  124THY    CP1 3080   7.886   5.688   7.139 -0.4390 -0.5014 -0.6335
  124THY    HP1 3081   7.912   5.607   7.070  0.6257  1.2545 -2.3939
  124THY    CP2 3082   7.850   5.620   7.278  0.0000  0.0645  0.2859
  124THY    HP2 3083   7.810   5.687   7.355 -2.1309  0.6343 -1.2243
  124THY    HP3 3084   7.772   5.545   7.263  0.2690  0.2157 -2.3605
  124THY    HP4 3085   7.943   5.571   7.311 -0.3682 -1.2659 -0.5687
  124THY    CP3 3086   7.765   5.774   7.089  0.0969  0.3591 -0.1123
  124THY    HP5 3087   7.803   5.830   7.003  0.5362  0.6357  0.2559
  124THY    HP6 3088   7.685   5.709   7.053 -1.2249  0.4204  2.4787
  124THY    HP7 3089   7.721   5.855   7.148 -0.5773  0.0922 -0.2505
  124THY    CA3 3090   7.987   5.900   7.232  0.6017 -0.1583  0.3590
  124THY    HA3 3091   7.889   5.927   7.269  0.1348  0.3070 -1.1220
  124THY    CA4 3092   8.096   5.979   7.271  0.0612  0.7909  0.0879
  124THY    HA4 3093   8.078   6.074   7.321 -2.7377 -0.5135  1.8675
  124THY    CA5 3094   8.226   5.944   7.235 -0.3336 -0.5899  0.1515
  124THY    CM1 3095   8.349   6.025   7.277 -0.5711  0.0984  0.7526
  124THY    HM1 3096   8.433   5.959   7.303  0.7969  0.6500 -1.9264
  124THY    HM2 3097   8.394   6.076   7.191 -0.9658 -2.9962 -1.4527
  124THY    HM3 3098   8.340   6.106   7.350 -1.9986  2.5697 -1.9403
  124THY    CA6 3099   8.245   5.825   7.161  0.6206  0.6929 -0.2509
  124THY    HA6 3100   8.344   5.791   7.133  0.9263  1.0652  0.3808
  125THY      O 3101   0.030   7.257   8.373 -0.5926  0.0264  0.5370
  125THY     HO 3102   0.108   7.211   8.409 -0.0672  0.2027 -0.3416
  125THY    CA1 3103   0.047   7.379   8.416  0.1031  0.0437 -0.6093
  125THY    CA2 3104  -0.000   7.489   8.337 -0.5773 -0.2532 -0.4605
  125THY    CP1 3105  -0.085   7.466   8.216  0.4637 -0.0387  0.4110
  125THY    HP1 3106  -0.043   7.382   8.160 -1.0419 -0.9260  0.5428
  125THY    CP2 3107  -0.224   7.421   8.275 -0.1177 -0.8475 -0.4419
  125THY    HP2 3108  -0.225   7.325   8.328  1.3556 -1.4254 -1.4111
  125THY    HP3 3109  -0.256   7.499   8.345 -1.0170 -1.2439 -0.3953
  125THY    HP4 3110  -0.306   7.410   8.203 -0.2514 -0.9889 -0.2712
  125THY    CP3 3111  -0.092   7.590   8.121  0.1806  0.8097 -0.6862
  125THY    HP5 3112  -0.156   7.669   8.162 -0.6306 -1.2972  2.4491
  125THY    HP6 3113   0.012   7.611   8.093  0.3187 -1.2456 -1.8949
  125THY    HP7 3114  -0.139   7.560   8.026 -2.7333  1.1161  0.5603
  125THY    CA3 3115   0.039   7.615   8.376  0.1744 -0.4439  0.0054
  125THY    HA3 3116   0.014   7.704   8.320  1.9266 -0.8962 -1.6303
  125THY    CA4 3117   0.123   7.633   8.490 -0.7262  0.4128  0.0385
  125THY    HA4 3118   0.159   7.728   8.529  2.4024 -1.0656  0.9946
  125THY    CA5 3119   0.156   7.520   8.565 -0.0330 -0.8931 -0.3751
  125THY    CM1 3120   0.239   7.542   8.689 -0.1978  0.6712 -0.6205
  125THY    HM1 3121   0.308   7.626   8.676  0.4093  0.4379  0.8626
  125THY    HM2 3122   0.178   7.560   8.778  2.8485  0.2535  1.7583
  125THY    HM3 3123   0.305   7.462   8.724  0.3374  0.6718 -1.6035
  125THY    CA6 3124   0.122   7.392   8.528  0.2811 -0.3901 -0.6641
  125THY    HA6 3125   0.151   7.303   8.583 -2.1187  0.6112  2.4469
  126THY      O 3126   5.419   2.859   6.654 -0.1015  0.3271 -0.1752
  126THY     HO 3127   5.396   2.766   6.638  0.4355  0.1772 -0.1029
  126THY    CA1 3128   5.365   2.875   6.774 -0.6841 -0.8423 -0.3088
  126THY    CA2 3129   5.427   2.958   6.878  0.4393 -0.0983  0.4320
  126THY    CP1 3130   5.564   3.028   6.855 -0.3745 -0.2464 -0.9466
  126THY    HP1 3131   5.593   3.029   6.750  0.2533 -0.1252 -0.7740
  126THY    CP2 3132   5.554   3.173   6.903 -0.1666 -1.0440  0.8017
  126THY    HP2 3133   5.552   3.177   7.013 -0.7920 -0.3869  0.7764
  126THY    HP3 3134   5.644   3.230   6.878 -0.7932 -0.6721 -0.6772
  126THY    HP4 3135   5.459   3.217   6.871 -1.3469 -2.9682  1.4813
  126THY    CP3 3136   5.666   2.956   6.936 -0.2235 -0.4723  0.0727
  126THY    HP5 3137   5.764   3.000   6.912  0.0958 -0.9176  0.5461
  126THY    HP6 3138   5.644   2.962   7.043 -3.1705  0.1338 -0.4940
  126THY    HP7 3139   5.673   2.850   6.909  2.4898 -0.7966  1.6263
  126THY    CA3 3140   5.360   2.956   7.001 -0.2564 -0.2509 -0.3633
  126THY    HA3 3141   5.402   3.012   7.084  0.9819 -0.7356 -0.6360
  126THY    CA4 3142   5.245   2.880   7.012  0.0568 -0.2614 -0.0703
  126THY    HA4 3143   5.182   2.879   7.101 -0.6051 -1.2582 -0.5396
  126THY    CA5 3144   5.190   2.816   6.908 -0.3824 -0.0393  0.6576
  126THY    CM1 3145   5.047   2.764   6.921  0.2803  0.2468  0.3432
  126THY    HM1 3146   5.051   2.659   6.951  1.7611 -0.7675 -2.9062
  126THY    HM2 3147   4.987   2.822   6.993 -1.2103  1.2249 -1.5936
  126THY    HM3 3148   4.987   2.774   6.830 -1.4512 -0.5025  1.3396
  126THY    CA6 3149   5.249   2.812   6.784  0.0668  0.1852  0.2442
  126THY    HA6 3150   5.216   2.758   6.696  4.6651 -0.9090 -1.0927
  127THY      O 3151   5.566   8.689   6.798  0.7003  0.2572  0.1338
  127THY     HO 3152   5.602   8.778   6.814  2.8508 -0.4558 -0.4381
  127THY    CA1 3153   5.456   8.710   6.718 -0.0582 -0.2659 -0.0059
  127THY    CA2 3154   5.329   8.652   6.748  0.3925  0.4169  0.0339
  127THY    CP1 3155   5.305   8.561   6.873  0.2941  0.2393 -0.1851
  127THY    HP1 3156   5.399   8.542   6.927  0.4739  1.3546 -0.0703
  127THY    CP2 3157   5.194   8.625   6.962  0.1951 -0.1427 -0.2755
  127THY    HP2 3158   5.189   8.571   7.057 -1.1090 -1.0886 -0.8510
  127THY    HP3 3159   5.228   8.723   6.997  1.5205 -0.5641 -0.3274
  127THY    HP4 3160   5.090   8.627   6.928  0.4285 -1.8740 -1.2564
  127THY    CP3 3161   5.257   8.428   6.821 -0.7647  0.8434  0.4524
  127THY    HP5 3162   5.157   8.434   6.778 -1.7047 -1.8338  2.0512
  127THY    HP6 3163   5.330   8.373   6.761 -0.0138 -1.3830  3.1852
  127THY    HP7 3164   5.255   8.359   6.907  1.6904 -1.0937 -0.9240
  127THY    CA3 3165   5.217   8.694   6.659 -0.1178 -0.1315 -0.0261
  127THY    HA3 3166   5.119   8.652   6.682 -0.0053  1.1247  3.3921
  127THY    CA4 3167   5.239   8.779   6.550  0.5504 -0.1510  0.4184
  127THY    HA4 3168   5.157   8.813   6.488  1.2271 -1.9957 -1.6134
  127THY    CA5 3169   5.370   8.824   6.521 -0.3871  0.1955  0.3877
  127THY    CM1 3170   5.413   8.922   6.419 -0.7699  0.5479  0.5922
  127THY    HM1 3171   5.508   8.892   6.374 -1.0536 -1.9201  1.4714
  127THY    HM2 3172   5.339   8.927   6.338  1.2359  1.1778 -1.2754
  127THY    HM3 3173   5.412   9.020   6.468  0.4430  0.2328  1.2868
  127THY    CA6 3174   5.473   8.791   6.609  0.2836  0.2104  0.7274
  127THY    HA6 3175   5.574   8.829   6.599  0.3225 -0.5898 -4.5299
  128THY      O 3176   3.037   8.776   2.420  0.5258  0.0498  1.0099
  128THY     HO 3177   3.094   8.741   2.349 -2.4355 -1.4051 -0.8704
  128THY    CA1 3178   2.910   8.798   2.368 -0.1805 -0.1442  0.0143
  128THY    CA2 3179   2.794   8.810   2.455 -0.2105  0.5288  0.2103
  128THY    CP1 3180   2.804   8.821   2.604  0.0152  0.2071 -0.3095
  128THY    HP1 3181   2.910   8.845   2.619  0.1912 -0.4089 -0.5061
  128THY    CP2 3182   2.718   8.934   2.671  0.4373  0.1906 -0.0257
  128THY    HP2 3183   2.755   8.960   2.770 -0.2270  0.2650  0.2070
  128THY    HP3 3184   2.710   9.024   2.610 -0.0185  1.0754  1.3087
  128THY    HP4 3185   2.617   8.898   2.696  0.4349  1.6226  2.2624
  128THY    CP3 3186   2.784   8.686   2.684  0.2909 -0.7268 -0.1227
  128THY    HP5 3187   2.683   8.644   2.672  0.6806 -1.2764 -1.8875
  128THY    HP6 3188   2.863   8.616   2.653  1.3083  1.4804 -2.9839
  128THY    HP7 3189   2.801   8.702   2.791  0.4077  0.1201 -0.2621
  128THY    CA3 3190   2.670   8.813   2.387 -0.3452 -0.3055 -0.4137
  128THY    HA3 3191   2.586   8.819   2.456  0.1384 -0.6371  0.2040
  128THY    CA4 3192   2.660   8.798   2.252  0.1725  0.1698  0.3433
  128THY    HA4 3193   2.566   8.793   2.198  0.4936 -2.5757 -0.0877
  128THY    CA5 3194   2.774   8.780   2.174 -0.2136 -0.3392  0.0270
  128THY    CM1 3195   2.763   8.760   2.025  0.0528 -0.7338 -0.1188
  128THY    HM1 3196   2.730   8.847   1.967  1.7611 -0.0309 -0.0799
  128THY    HM2 3197   2.859   8.731   1.981  0.6170 -1.2627  1.3816
  128THY    HM3 3198   2.687   8.681   2.015 -2.1890  0.9934  2.0692
  128THY    CA6 3199   2.902   8.772   2.231 -0.1015  0.4857 -0.1953
  128THY    HA6 3200   2.991   8.756   2.171 -0.6243  0.2442 -0.9246
  129THY      O 3201   7.899   0.253   2.062 -0.0107 -0.3236  0.0837
  129THY     HO 3202   7.939   0.209   2.138 -2.8554 -0.2690  1.7615
  129THY    CA1 3203   7.883   0.151   1.974 -0.0575 -0.3802  0.4975
  129THY    CA2 3204   7.795   0.150   1.862 -0.4076 -0.1013 -0.2619
  129THY    CP1 3205   7.728   0.276   1.820  0.3632  0.3839  0.6986
  129THY    HP1 3206   7.698   0.329   1.911  3.7526  0.0984  2.1369
  129THY    CP2 3207   7.825   0.370   1.753 -0.5551 -0.2254 -0.1845
  129THY    HP2 3208   7.853   0.321   1.659  0.6087  1.8016 -0.9557
  129THY    HP3 3209   7.774   0.465   1.733 -0.8594 -0.6353 -1.4148
  129THY    HP4 3210   7.904   0.401   1.822 -1.8632 -0.1038  1.3276
  129THY    CP3 3211   7.606   0.251   1.734 -1.1257  0.3983 -0.2085
  129THY    HP5 3212   7.553   0.159   1.764  1.0217 -0.3053  1.7196
  129THY    HP6 3213   7.531   0.330   1.745 -1.0898  0.5512 -0.9666
  129THY    HP7 3214   7.629   0.243   1.627  0.4239 -1.3048  0.1894
  129THY    CA3 3215   7.804   0.038   1.777 -0.1146 -0.1434  0.2514
  129THY    HA3 3216   7.766   0.045   1.676  0.4916 -1.6720 -0.1176
  129THY    CA4 3217   7.876  -0.077   1.812  0.1864  0.5336 -0.3009
  129THY    HA4 3218   7.903  -0.160   1.748  3.4024  0.2691  1.1831
  129THY    CA5 3219   7.942  -0.073   1.936 -0.4349 -0.0876 -0.5535
  129THY    CM1 3220   8.049  -0.172   1.975  0.0219  1.5230  0.6115
  129THY    HM1 3221   8.033  -0.206   2.078 -0.4748 -0.0154  0.0411
  129THY    HM2 3222   8.048  -0.267   1.920 -1.2780 -0.2738  3.5038
  129THY    HM3 3223   8.151  -0.132   1.964  0.2852  0.5512 -0.7881
  129THY    CA6 3224   7.952   0.039   2.009 -0.3643  0.0679  0.4400
  129THY    HA6 3225   8.016   0.038   2.097  0.0162 -0.5115  0.1681
  130THY      O 3226   8.300   8.474   1.103 -0.4867  0.5455 -0.4377
  130THY     HO 3227   8.316   8.476   1.199  0.6596 -1.2337 -0.5478
  130THY    CA1 3228   8.300   8.602   1.054 -0.1118  0.2413 -0.3635
  130THY    CA2 3229   8.275   8.623   0.918 -0.1196 -0.2371  0.5108
  130THY    CP1 3230   8.224   8.517   0.825 -0.1113  0.4821 -0.4721
  130THY    HP1 3231   8.232   8.419   0.873  0.9049  1.3470  1.2319
  130THY    CP2 3232   8.073   8.541   0.806  0.2904  0.2914 -0.3685
  130THY    HP2 3233   8.060   8.639   0.757  0.2647 -1.0817 -3.3375
  130THY    HP3 3234   8.028   8.459   0.749 -0.4737 -0.3088  1.0564
  130THY    HP4 3235   8.021   8.541   0.902  0.9032 -0.2338 -0.0285
  130THY    CP3 3236   8.300   8.506   0.689  0.8095 -0.6519 -0.0888
  130THY    HP5 3237   8.230   8.481   0.608 -0.3374  1.7850  0.0648
  130THY    HP6 3238   8.339   8.605   0.665 -1.4171  0.5652  1.0140
  130THY    HP7 3239   8.377   8.429   0.699  1.3370 -0.2443 -0.9197
  130THY    CA3 3240   8.292   8.755   0.867 -0.5064 -0.6057 -0.6822
  130THY    HA3 3241   8.268   8.787   0.765 -0.0405  0.4203 -0.4872
  130THY    CA4 3242   8.337   8.854   0.961  0.2098 -0.6334  0.0933
  130THY    HA4 3243   8.354   8.952   0.918 -2.1076 -0.0272  0.3956
  130THY    CA5 3244   8.368   8.830   1.097  0.2338 -0.4159  0.5498
  130THY    CM1 3245   8.425   8.939   1.178 -0.1879 -0.7051  0.0298
  130THY    HM1 3246   8.397   8.944   1.284  2.3164  2.0562  0.6847
  130THY    HM2 3247   8.533   8.927   1.167 -0.3378 -0.7634 -1.6486
  130THY    HM3 3248   8.409   9.038   1.134 -1.2230 -0.8082  0.1452
  130THY    CA6 3249   8.346   8.701   1.139  0.3852  0.7019 -0.2157
  130THY    HA6 3250   8.370   8.674   1.241  1.0131 -0.2364 -0.5993
  131THY      O 3251   7.340   8.488   0.922  0.0554 -0.5479  0.5868
  131THY     HO 3252   7.289   8.543   0.984 -0.0040  0.0694  0.0030
  131THY    CA1 3253   7.372   8.375   0.986 -0.0181 -0.0752  0.0952
  131THY    CA2 3254   7.500   8.316   0.973  0.4576 -0.6254 -0.3659
  131THY    CP1 3255   7.607   8.387   0.888 -0.0377  0.4329 -0.2132
  131THY    HP1 3256   7.553   8.462   0.830 -2.9813 -1.4633 -0.1561
  131THY    CP2 3257   7.726   8.449   0.968  0.9127  0.4334  0.4001
  131THY    HP2 3258   7.783   8.525   0.914  0.8645  0.7448  0.7874
  131THY    HP3 3259   7.687   8.489   1.062 -2.4129 -0.9363 -0.2640
  131THY    HP4 3260   7.797   8.375   1.008  1.6288  2.0868  2.3086
  131THY    CP3 3261   7.663   8.290   0.779 -0.5153 -0.1750 -0.4138
  131THY    HP5 3262   7.735   8.341   0.716 -0.2176 -1.0205 -0.7764
  131THY    HP6 3263   7.710   8.213   0.842 -3.4193  1.1053  3.7388
  131THY    HP7 3264   7.584   8.244   0.718 -2.5782  0.1020  1.8694
  131THY    CA3 3265   7.527   8.195   1.044 -0.4137 -0.6042 -0.4276
  131THY    HA3 3266   7.626   8.149   1.044  0.0480  0.2470  1.9662
  131THY    CA4 3267   7.432   8.139   1.123 -0.0979 -0.8020 -0.6384
  131THY    HA4 3268   7.459   8.047   1.173  0.4182  0.8229  2.2764
  131THY    CA5 3269   7.314   8.205   1.147 -0.5512  0.1987 -0.6321
  131THY    CM1 3270   7.207   8.139   1.234 -0.1474 -0.1580  0.2794
  131THY    HM1 3271   7.185   8.044   1.184 -0.8588  1.0908 -1.9160
  131THY    HM2 3272   7.237   8.112   1.336  1.0094  1.4734  0.4117
  131THY    HM3 3273   7.117   8.201   1.244 -1.9327 -2.5957  0.1277
  131THY    CA6 3274   7.276   8.316   1.075 -0.3369  0.5924  0.3241
  131THY    HA6 3275   7.184   8.372   1.090  0.3261  1.4379  1.4213
  132THY      O 3276   5.207   8.808   8.825 -0.2686  0.3367  0.1785
  132THY     HO 3277   5.301   8.826   8.808 -0.0280 -0.3582  0.7072
  132THY    CA1 3278   5.199   8.796   8.957 -0.3605  0.9239  0.0042
  132THY    CA2 3279   5.099   8.714   9.020 -0.2880  0.6462  0.0876
  132THY    CP1 3280   4.979   8.667   8.936  0.0324  0.1056 -0.5336
  132THY    HP1 3281   5.014   8.649   8.833  2.1109  1.8124 -0.2044
  132THY    CP2 3282   4.923   8.527   8.977  0.0884 -0.1975  0.3866
  132THY    HP2 3283   4.851   8.536   9.058  0.5955  0.8649  0.7333
  132THY    HP3 3284   4.874   8.489   8.886 -0.1437  0.8904  0.0380
  132THY    HP4 3285   5.008   8.468   9.013  0.2722  0.4519  1.0243
  132THY    CP3 3286   4.866   8.771   8.946 -0.6233  0.2068  0.2094
  132THY    HP5 3287   4.775   8.739   8.893 -0.7388 -0.5750  0.8508
  132THY    HP6 3288   4.839   8.788   9.051 -0.2538  0.5103  0.2572
  132THY    HP7 3289   4.892   8.865   8.898  0.1012 -0.8193 -1.5007
  132THY    CA3 3290   5.108   8.693   9.158  0.0308  0.3294 -0.3362
  132THY    HA3 3291   5.038   8.627   9.209  0.2988 -0.5032 -1.0279
  132THY    CA4 3292   5.212   8.753   9.234  0.3532 -0.9616  1.0723
  132THY    HA4 3293   5.217   8.748   9.342 -0.2253  0.8301  1.2163
  132THY    CA5 3294   5.310   8.829   9.167 -0.0985  0.9024 -0.2354
  132THY    CM1 3295   5.422   8.889   9.245 -0.1436 -0.1065  0.0214
  132THY    HM1 3296   5.443   8.993   9.221  0.8545  0.0334  1.3291
  132THY    HM2 3297   5.401   8.896   9.353 -0.6793 -0.9307 -0.0195
  132THY    HM3 3298   5.520   8.839   9.240 -0.0893  0.1275 -1.9647
  132THY    CA6 3299   5.305   8.845   9.029 -0.2628  0.1994  0.8921
  132THY    HA6 3300   5.393   8.886   8.981 -0.3195  0.5029  1.0442
  133THY      O 3301   9.211   8.439   9.508 -0.2868 -0.4308 -0.1183
  133THY     HO 3302   9.292   8.412   9.461  0.9731  0.6654  1.3006
  133THY    CA1 3303   9.234   8.458   9.640 -0.3740  0.5159  0.2443
  133THY    CA2 3304   9.126   8.463   9.728  0.2974 -0.3733 -0.0871
  133THY    CP1 3305   8.982   8.447   9.686  0.3882 -0.0496 -0.1530
  133THY    HP1 3306   8.970   8.474   9.580  1.7996 -2.8399 -1.1137
  133THY    CP2 3307   8.937   8.302   9.703 -0.2394 -0.4027  0.4834
  133THY    HP2 3308   8.939   8.270   9.808  2.8100 -1.3766  0.2494
  133THY    HP3 3309   8.839   8.295   9.654 -1.2775  0.7555  2.3054
  133THY    HP4 3310   9.010   8.231   9.660 -0.8041 -0.8510  0.2576
  133THY    CP3 3311   8.890   8.537   9.773 -0.4856  0.3103  0.2559
  133THY    HP5 3312   8.852   8.499   9.869 -0.6718 -0.9699 -0.2981
  133THY    HP6 3313   8.943   8.632   9.789 -1.3703  0.7982  0.3292
  133THY    HP7 3314   8.802   8.573   9.719  0.7810  2.1083 -0.7034
  133THY    CA3 3315   9.160   8.487   9.866  0.1893  0.2595 -0.5770
  133THY    HA3 3316   9.087   8.502   9.945  2.2287 -0.3515  1.5553
  133THY    CA4 3317   9.298   8.497   9.906  0.0951 -0.3453 -0.1538
  133THY    HA4 3318   9.330   8.514  10.009  0.0685  0.3955 -0.2676
  133THY    CA5 3319   9.397   8.484   9.808 -0.1560  1.0450 -0.7519
  133THY    CM1 3320   9.545   8.480   9.845  0.3637 -0.0461 -0.2288
  133THY    HM1 3321   9.605   8.450   9.757  0.0581  2.2879 -1.3035
  133THY    HM2 3322   9.576   8.582   9.869 -1.8028  1.0063 -1.6107
  133THY    HM3 3323   9.575   8.414   9.927  0.6312  1.2816  0.7756
  133THY    CA6 3324   9.367   8.466   9.675  0.0441  0.4495  0.0385
  133THY    HA6 3325   9.445   8.449   9.602  0.8903  0.4774  0.9090
  134THY      O 3326   8.924   6.275   3.716  0.4068 -0.0156  0.1184
  134THY     HO 3327   9.007   6.224   3.712  0.2507 -0.2161 -1.0558
  134THY    CA1 3328   8.889   6.287   3.842  0.3237  0.5249 -0.5330
  134THY    CA2 3329   8.762   6.281   3.885  0.1999  0.6671 -0.5548
  134THY    CP1 3330   8.644   6.252   3.795 -0.2921  0.1148  0.8133
  134THY    HP1 3331   8.664   6.164   3.733 -2.3689  0.2516 -0.1243
  134THY    CP2 3332   8.508   6.209   3.866 -0.9307 -0.2012  0.0688
  134THY    HP2 3333   8.442   6.181   3.783 -1.0050  0.0395  0.0435
  134THY    HP3 3334   8.527   6.124   3.932 -1.3240 -1.2557 -1.1268
  134THY    HP4 3335   8.459   6.294   3.914  0.1896  0.6567 -0.2626
  134THY    CP3 3336   8.608   6.364   3.695  0.7508  0.2549 -0.3886
  134THY    HP5 3337   8.575   6.449   3.756 -1.6152 -0.4319 -0.6337
  134THY    HP6 3338   8.696   6.396   3.637  1.8491  0.9510  1.5695
  134THY    HP7 3339   8.543   6.326   3.615 -0.4045 -1.6816  1.3787
  134THY    CA3 3340   8.738   6.283   4.026 -0.3281  0.0284  0.6763
  134THY    HA3 3341   8.639   6.282   4.071 -0.4842  1.1371  0.3969
  134THY    CA4 3342   8.845   6.296   4.119  0.2791 -0.4513 -0.0184
  134THY    HA4 3343   8.828   6.308   4.225 -1.8287 -0.8395 -0.2824
  134THY    CA5 3344   8.980   6.291   4.066 -0.4115 -0.4584 -0.7744
  134THY    CM1 3345   9.098   6.336   4.155 -0.0171  0.0456 -0.4132
  134THY    HM1 3346   9.136   6.245   4.201  0.0540  0.7598  1.0061
  134THY    HM2 3347   9.184   6.392   4.116  1.8040 -1.3366  1.3596
  134THY    HM3 3348   9.046   6.392   4.234 -0.3247 -1.9144  0.8481
  134THY    CA6 3349   9.004   6.293   3.927  0.0027 -0.2543  0.0405
  134THY    HA6 3350   9.098   6.315   3.876  0.0397 -1.3000 -0.3571
  135THY      O 3351   3.849   3.369   8.100 -0.1988 -0.2066  0.3967
  135THY     HO 3352   3.916   3.298   8.098 -0.1541 -0.2256  1.6602
  135THY    CA1 3353   3.907   3.487   8.146  0.1515 -0.1141  0.1419
  135THY    CA2 3354   3.835   3.608   8.149 -1.8475 -0.3815  0.2726
  135THY    CP1 3355   3.690   3.606   8.117 -0.2051  0.2196 -0.8480
  135THY    HP1 3356   3.660   3.505   8.088  0.9298 -0.1157 -0.8970
  135THY    CP2 3357   3.597   3.643   8.234  0.5592 -0.2287 -0.5185
  135THY    HP2 3358   3.494   3.617   8.205  0.0358 -0.8301  1.7069
  135THY    HP3 3359   3.613   3.599   8.333 -2.0637 -1.6282 -0.6233
  135THY    HP4 3360   3.606   3.750   8.256  2.7187 -0.7761  1.7320
  135THY    CP3 3361   3.656   3.701   8.005 -0.0254  0.3385 -0.0640
  135THY    HP5 3362   3.551   3.677   7.980  0.1595 -1.5434  0.7624
  135THY    HP6 3363   3.660   3.809   8.020  0.3313  0.9486 -3.5695
  135THY    HP7 3364   3.726   3.682   7.923  0.9576 -1.6684  1.1704
  135THY    CA3 3365   3.904   3.727   8.168 -0.1271  0.6341  0.0821
  135THY    HA3 3366   3.849   3.820   8.164  2.1987  2.0617 -0.6408
  135THY    CA4 3367   4.041   3.733   8.192 -0.1447  0.4231 -0.4000
  135THY    HA4 3368   4.092   3.823   8.224 -1.1602  1.6247 -1.9883
  135THY    CA5 3369   4.110   3.610   8.200  0.0367  0.4484  0.2067
  135THY    CM1 3370   4.261   3.596   8.232 -0.6316  0.3889 -0.4807
  135THY    HM1 3371   4.325   3.684   8.215 -1.2326  0.6618 -1.4507
  135THY    HM2 3372   4.264   3.586   8.341 -1.9249  0.2860 -0.4386
  135THY    HM3 3373   4.308   3.516   8.173 -1.9739 -0.0797 -0.9601
  135THY    CA6 3374   4.046   3.490   8.173  0.0140 -0.7357 -0.8045
  135THY    HA6 3375   4.098   3.395   8.163  0.6553 -0.6522  1.2188
  136THY      O 3376   6.928   9.034   4.397 -0.1292  0.7645  0.2042
  136THY     HO 3377   6.911   8.947   4.357 -0.6191  1.3553 -0.9396
  136THY    CA1 3378   6.945   9.014   4.525  0.6475 -0.2111  0.4474
  136THY    CA2 3379   7.031   9.080   4.611  0.7569 -0.5102  0.0286
  136THY    CP1 3380   7.124   9.190   4.562  0.8181  0.7999  0.0954
  136THY    HP1 3381   7.141   9.178   4.454 -1.6680  0.8910 -0.3623
  136THY    CP2 3382   7.061   9.329   4.591  0.3088  0.3627  0.2378
  136THY    HP2 3383   6.967   9.346   4.537 -0.0036  0.0848  0.6833
  136THY    HP3 3384   7.042   9.342   4.698 -0.6405 -4.2365  0.8522
  136THY    HP4 3385   7.127   9.407   4.553 -0.4728 -0.0846 -2.2701
  136THY    CP3 3386   7.263   9.175   4.625 -0.1240  0.4039 -0.0967
  136THY    HP5 3387   7.268   9.214   4.728  2.9530 -0.3178  0.1077
  136THY    HP6 3388   7.287   9.068   4.637  0.5679  0.3348 -1.8711
  136THY    HP7 3389   7.326   9.233   4.558 -1.8828  0.7368 -1.5198
  136THY    CA3 3390   7.031   9.046   4.749  0.0546  0.6778 -0.3518
  136THY    HA3 3391   7.094   9.100   4.819  0.0223 -1.8411  1.7743
  136THY    CA4 3392   6.943   8.958   4.801  0.5466 -0.0411 -0.2419
  136THY    HA4 3393   6.945   8.940   4.908 -1.7774  3.1183  0.4725
  136THY    CA5 3394   6.859   8.887   4.713  0.6861  0.5894  0.2690
  136THY    CM1 3395   6.761   8.785   4.767 -0.2191  0.0959  0.5079
  136THY    HM1 3396   6.814   8.720   4.839  2.4851  0.5693 -0.9289
  136THY    HM2 3397   6.675   8.837   4.811 -0.5193 -0.1724  0.2408
  136THY    HM3 3398   6.723   8.725   4.684  0.1055  0.7925 -0.1571
  136THY    CA6 3399   6.858   8.916   4.577  0.6989 -0.0973  0.6731
  136THY    HA6 3400   6.781   8.866   4.519  0.7447 -1.1713  1.4962
  137THY      O 3401   0.031   2.645   1.172  0.2446 -0.1076 -0.0738
  137THY     HO 3402   0.055   2.686   1.087  0.8011 -1.4616 -0.6061
  137THY    CA1 3403  -0.040   2.534   1.146 -0.6633 -0.0836 -0.2242
  137THY    CA2 3404  -0.074   2.436   1.240  0.7063 -0.9859 -0.7295
  137THY    CP1 3405  -0.028   2.447   1.388  0.7420  0.0824 -0.3004
  137THY    HP1 3406   0.017   2.546   1.397 -0.7215  0.6530  1.0364
  137THY    CP2 3407  -0.150   2.428   1.490 -0.5939  0.2418 -0.2037
  137THY    HP2 3408  -0.111   2.445   1.591 -1.8139 -0.0911  0.3393
  137THY    HP3 3409  -0.233   2.492   1.460  0.4514  1.0803 -1.4073
  137THY    HP4 3410  -0.185   2.324   1.482  1.0134 -0.2472 -1.8909
  137THY    CP3 3411   0.073   2.339   1.432  0.2090  0.2509 -0.1644
  137THY    HP5 3412   0.175   2.377   1.417  0.1579  2.3507  3.6295
  137THY    HP6 3413   0.067   2.326   1.540  0.0118  1.9091  0.0479
  137THY    HP7 3414   0.062   2.245   1.377 -0.0352  0.8416 -1.1561
  137THY    CA3 3415  -0.151   2.328   1.199  0.5150  0.4765 -0.1136
  137THY    HA3 3416  -0.183   2.249   1.267 -0.2220  1.8719  1.2052
  137THY    CA4 3417  -0.188   2.318   1.064 -1.0020 -0.1457 -0.2640
  137THY    HA4 3418  -0.242   2.226   1.041 -1.9614 -0.0756  1.5505
  137THY    CA5 3419  -0.143   2.412   0.973 -0.3966  0.1174  1.4569
  137THY    CM1 3420  -0.179   2.398   0.830  0.2316  0.5805 -0.2250
  137THY    HM1 3421  -0.104   2.455   0.773 -0.6862  1.0456 -1.0042
  137THY    HM2 3422  -0.194   2.292   0.805 -0.6791  0.7341 -0.3446
  137THY    HM3 3423  -0.277   2.445   0.820  0.9095  1.8729 -1.2507
  137THY    CA6 3424  -0.069   2.523   1.014  0.4209  0.4415 -0.4658
  137THY    HA6 3425  -0.052   2.602   0.941 -1.7303  1.7337  0.3454
  138THY      O 3426   3.830   2.517   8.277 -0.2170 -0.4021 -0.0268
  138THY     HO 3427   3.840   2.611   8.300 -0.6267 -0.6557  1.2563
  138THY    CA1 3428   3.953   2.464   8.302  0.7209  0.0330 -0.0276
  138THY    CA2 3429   3.984   2.324   8.302  0.5522 -0.2450  0.1703
  138THY    CP1 3430   3.871   2.220   8.281  0.1421 -0.1435 -1.0418
  138THY    HP1 3431   3.778   2.273   8.260 -1.0227 -2.2432 -1.5020
  138THY    CP2 3432   3.883   2.136   8.157 -0.1564  0.3247 -0.5198
  138THY    HP2 3433   3.970   2.070   8.160  1.3505  2.2674 -0.2223
  138THY    HP3 3434   3.799   2.069   8.131 -1.0494  2.2347 -2.9686
  138THY    HP4 3435   3.887   2.204   8.071  0.4107  3.0507  1.5506
  138THY    CP3 3436   3.859   2.125   8.407 -0.1990 -0.6339  0.5426
  138THY    HP5 3437   3.776   2.055   8.393 -2.3185  1.5112  1.5845
  138THY    HP6 3438   3.954   2.075   8.428  0.8144  1.3841  0.9814
  138THY    HP7 3439   3.834   2.186   8.494  2.1618 -0.4185  1.1153
  138THY    CA3 3440   4.114   2.283   8.315 -0.1110 -0.4617  0.2048
  138THY    HA3 3441   4.139   2.178   8.317 -0.1786 -0.4774  0.2492
  138THY    CA4 3442   4.205   2.382   8.348 -0.3010  0.6854  0.0331
  138THY    HA4 3443   4.308   2.353   8.364  0.0946  1.6144 -0.7048
  138THY    CA5 3444   4.179   2.516   8.361  0.0080  0.5309 -0.3472
  138THY    CM1 3445   4.285   2.614   8.400  0.4230 -0.3172  0.0716
  138THY    HM1 3446   4.360   2.558   8.459  0.2411 -1.2675 -0.5700
  138THY    HM2 3447   4.323   2.654   8.306  2.8390  1.6377  1.7281
  138THY    HM3 3448   4.240   2.693   8.461  0.8065  0.5640 -0.7828
  138THY    CA6 3449   4.051   2.556   8.336 -0.0906 -0.5202  0.1200
  138THY    HA6 3450   4.029   2.662   8.342 -0.2879 -0.4756 -1.0678
  139THY      O 3451   9.282   5.225   1.088 -0.2499  0.3609  0.0793
  139THY     HO 3452   9.253   5.180   1.007  1.1974 -0.6075  0.0566
  139THY    CA1 3453   9.361   5.124   1.140  0.7558 -0.6368 -0.0333
  139THY    CA2 3454   9.470   5.153   1.222 -0.3702 -0.4311 -0.3230
  139THY    CP1 3455   9.469   5.290   1.292 -0.1853 -0.0113  0.1207
  139THY    HP1 3456   9.435   5.367   1.221 -1.7887  0.8472  1.7258
  139THY    CP2 3457   9.368   5.292   1.411 -0.1280 -0.1972  0.1056
  139THY    HP2 3458   9.285   5.224   1.387 -0.5576 -0.2398  1.6128
  139THY    HP3 3459   9.401   5.236   1.499  0.4481 -0.2694 -0.1497
  139THY    HP4 3460   9.334   5.393   1.436 -1.3565 -0.4772 -0.3629
  139THY    CP3 3461   9.608   5.336   1.341  0.5112 -0.8250  0.2070
  139THY    HP5 3462   9.689   5.315   1.271  1.1642 -1.6262  1.1760
  139THY    HP6 3463   9.594   5.442   1.364  0.0379 -0.8518  0.0601
  139THY    HP7 3464   9.651   5.295   1.433  0.0086 -0.7575  0.4751
  139THY    CA3 3465   9.542   5.040   1.271  0.6126  0.2549 -0.0569
  139THY    HA3 3466   9.609   5.045   1.356  1.2144 -0.5400 -0.4679
  139THY    CA4 3467   9.523   4.915   1.211 -0.0570  0.1650 -0.2678
  139THY    HA4 3468   9.575   4.835   1.262 -0.0981  0.0049 -0.4783
  139THY    CA5 3469   9.421   4.895   1.128 -0.1130  0.8772  0.0794
  139THY    CM1 3470   9.387   4.761   1.064  0.5450 -0.4050  0.7188
  139THY    HM1 3471   9.406   4.777   0.958 -2.0925 -0.4600  0.1618
  139THY    HM2 3472   9.439   4.676   1.110 -0.5371 -1.8406 -0.6069
  139THY    HM3 3473   9.280   4.738   1.062  0.7328 -1.8911  3.0714
  139THY    CA6 3474   9.342   4.998   1.092 -0.1511  0.5230 -0.0611
  139THY    HA6 3475   9.276   4.977   1.008 -0.0589  1.0744 -0.2811
  140THY      O 3476   4.998   9.315   5.081  0.1355 -0.0142 -0.5502
  140THY     HO 3477   5.092   9.295   5.090  0.4744  2.0484  1.2166
  140THY    CA1 3478   4.920   9.207   5.111  0.3163 -0.4397 -0.8010
  140THY    CA2 3479   4.782   9.234   5.128  0.2554 -0.1887  1.1955
  140THY    CP1 3480   4.724   9.371   5.104  0.4318 -0.4610 -0.1765
  140THY    HP1 3481   4.804   9.445   5.119  1.3819 -1.5395  0.2609
  140THY    CP2 3482   4.669   9.389   4.960 -0.3323 -0.3888 -0.2298
  140THY    HP2 3483   4.744   9.363   4.884 -0.0373  0.3763 -0.2082
  140THY    HP3 3484   4.580   9.326   4.956 -1.3730  0.9824  0.6051
  140THY    HP4 3485   4.638   9.493   4.944  0.1688 -0.1535  0.2816
  140THY    CP3 3486   4.614   9.419   5.209  0.0655  0.1467  0.3379
  140THY    HP5 3487   4.516   9.377   5.184 -0.6940  0.3512  2.7051
  140THY    HP6 3488   4.629   9.397   5.315  0.9967  1.7576  0.5731
  140THY    HP7 3489   4.599   9.528   5.200 -2.0094 -0.2661 -2.4635
  140THY    CA3 3490   4.703   9.124   5.170  0.0240  0.0003 -0.0146
  140THY    HA3 3491   4.601   9.151   5.196 -0.3035 -2.0637  1.0472
  140THY    CA4 3492   4.766   8.996   5.188  0.3831  0.5319  0.6372
  140THY    HA4 3493   4.695   8.913   5.192  0.1612  0.4549 -2.3637
  140THY    CA5 3494   4.896   8.971   5.147 -0.5183  0.2462 -0.9958
  140THY    CM1 3495   4.957   8.834   5.154 -0.2191 -0.2439  0.6523
  140THY    HM1 3496   5.052   8.830   5.207 -0.4473  1.3608  1.2363
  140THY    HM2 3497   4.896   8.749   5.186  0.9236 -0.9071  1.0959
  140THY    HM3 3498   4.989   8.805   5.053  0.4419  0.1614  0.7463
  140THY    CA6 3499   4.976   9.080   5.122  0.1930 -0.5954 -0.1269
  140THY    HA6 3500   5.078   9.061   5.091 -0.0247 -2.2281  0.0903
  141THY      O 3501   0.943   1.176   1.539  0.0172  0.5168 -0.0239
  141THY     HO 3502   0.952   1.239   1.465 -0.7303 -1.3964 -1.8296
  141THY    CA1 3503   0.867   1.237   1.634 -0.4466  0.3756 -0.2368
  141THY    CA2 3504   0.763   1.169   1.695  0.3677 -0.6592 -0.5515
  141THY    CP1 3505   0.738   1.023   1.661  0.4567 -0.3398 -0.3615
  141THY    HP1 3506   0.808   0.988   1.584  2.3363  1.9337  0.2100
  141THY    CP2 3507   0.764   0.935   1.778 -0.3148 -0.0275 -0.0421
  141THY    HP2 3508   0.870   0.941   1.806  0.5091  2.7185 -3.0788
  141THY    HP3 3509   0.705   0.961   1.866  2.7841  2.1997  1.5830
  141THY    HP4 3510   0.747   0.832   1.744 -1.1491 -0.1327  0.6718
  141THY    CP3 3511   0.596   1.004   1.630  0.7805 -0.1793  0.5777
  141THY    HP5 3512   0.565   1.082   1.560 -1.1208 -1.0374  0.3869
  141THY    HP6 3513   0.579   0.906   1.583 -2.6052 -0.7517  2.6413
  141THY    HP7 3514   0.526   1.008   1.715 -0.8933 -1.8913 -0.6398
  141THY    CA3 3515   0.682   1.236   1.797  0.4645  0.8742  0.0429
  141THY    HA3 3516   0.610   1.174   1.850  0.2910  0.5178 -0.5941
  141THY    CA4 3517   0.701   1.373   1.824  0.3884  0.5995 -0.2823
  141THY    HA4 3518   0.635   1.417   1.898  1.5929 -0.9129  1.7577
  141THY    CA5 3519   0.807   1.440   1.760  0.7721 -0.3842  0.5881
  141THY    CM1 3520   0.838   1.585   1.794 -0.1265 -0.4647 -0.1443
  141THY    HM1 3521   0.764   1.641   1.735  0.9174 -0.8679 -1.8973
  141THY    HM2 3522   0.831   1.614   1.900 -1.4056  2.4021 -0.9095
  141THY    HM3 3523   0.939   1.609   1.759 -0.1648  1.2770  0.7836
  141THY    CA6 3524   0.890   1.374   1.665 -0.0562 -0.1678 -0.1949
  141THY    HA6 3525   0.979   1.420   1.624 -0.5294 -0.4688 -1.6474
  142THY      O 3526   9.943   4.872   1.965  0.4724  0.0841 -0.1938
  142THY     HO 3527   9.883   4.949   1.956  0.8349  0.6978  2.0650
  142THY    CA1 3528   9.929   4.790   1.858 -0.3882  0.3300 -0.1682
  142THY    CA2 3529   9.948   4.655   1.866 -0.2368 -0.5449  0.2349
  142THY    CP1 3530  10.014   4.586   1.988 -0.9703 -0.9585  0.4465
  142THY    HP1 3531  10.034   4.670   2.055 -1.3930 -0.7064  0.2612
  142THY    CP2 3532   9.915   4.496   2.065 -0.2050  0.0123 -0.3396
  142THY    HP2 3533   9.872   4.421   1.997  1.8140 -1.8476  0.2922
  142THY    HP3 3534   9.958   4.461   2.160  1.2674 -0.8852 -1.2776
  142THY    HP4 3535   9.826   4.556   2.085 -0.7213 -1.1979  1.1917
  142THY    CP3 3536  10.143   4.513   1.943  0.2908 -0.4065  0.6967
  142THY    HP5 3537  10.217   4.581   1.900  0.6945 -1.4652 -0.3383
  142THY    HP6 3538  10.186   4.481   2.039  1.7071  0.3479  0.3299
  142THY    HP7 3539  10.113   4.429   1.879 -2.8684 -0.4323  2.0405
  142THY    CA3 3540   9.910   4.572   1.759  0.1057 -0.5884 -0.0516
  142THY    HA3 3541   9.924   4.465   1.768  0.6271 -0.3846  1.9931
  142THY    CA4 3542   9.843   4.637   1.645  1.2801 -0.2427 -0.7536
  142THY    HA4 3543   9.807   4.568   1.569 -1.4330  0.5696 -0.3293
  142THY    CA5 3544   9.821   4.773   1.643  0.1250  0.1244  0.1942
  142THY    CM1 3545   9.739   4.830   1.531  0.1763  0.4443  0.3780
  142THY    HM1 3546   9.788   4.806   1.435 -0.1866 -0.6543  0.4542
  142THY    HM2 3547   9.636   4.792   1.527  0.5697 -0.5660 -1.2474
  142THY    HM3 3548   9.717   4.937   1.535 -0.5556  0.5141 -2.5564
  142THY    CA6 3549   9.863   4.849   1.750 -0.0234  0.5304  0.1743
  142THY    HA6 3550   9.836   4.955   1.747  2.2004  1.1540  0.6026
  143THY      O 3551   3.689   6.457   9.739 -0.1538 -0.1864  0.1800
  143THY     HO 3552   3.743   6.409   9.805  1.2877 -0.1684 -0.9452
  143THY    CA1 3553   3.577   6.390   9.722 -0.1722 -0.2606 -0.2684
  143THY    CA2 3554   3.507   6.402   9.605  0.4695  0.6025 -0.7570
  143THY    CP1 3555   3.558   6.484   9.488  0.0667 -0.3101 -0.0749
  143THY    HP1 3556   3.644   6.541   9.525 -0.0241 -1.2641  1.6982
  143THY    CP2 3557   3.597   6.389   9.373 -0.6339  0.1989  0.0725
  143THY    HP2 3558   3.502   6.346   9.340 -1.9345  1.5346  1.8411
  143THY    HP3 3559   3.647   6.452   9.298  0.1736 -0.6771 -0.1362
  143THY    HP4 3560   3.663   6.307   9.403 -0.5679 -0.5804 -2.0638
  143THY    CP3 3561   3.452   6.588   9.436  0.1856 -0.2218  0.0412
  143THY    HP5 3562   3.361   6.543   9.395 -0.5511  0.8090  0.4948
  143THY    HP6 3563   3.414   6.658   9.511  0.5757 -0.9367  0.9227
  143THY    HP7 3564   3.497   6.651   9.359  2.6101 -1.2432  0.5207
  143THY    CA3 3565   3.379   6.337   9.598  0.1117 -1.3347  0.1070
  143THY    HA3 3566   3.316   6.348   9.510 -0.7608  1.1501  0.9674
  143THY    CA4 3567   3.331   6.267   9.706  0.0061  0.4331 -0.7203
  143THY    HA4 3568   3.236   6.215   9.710 -0.1611  0.7943  2.7074
  143THY    CA5 3569   3.405   6.255   9.824 -0.0105  0.2419 -0.1028
  143THY    CM1 3570   3.348   6.181   9.936 -0.9236  0.2673 -0.5248
  143THY    HM1 3571   3.366   6.074   9.924  0.9442  0.1482  2.3689
  143THY    HM2 3572   3.398   6.202  10.031 -0.7834  1.9838 -0.9391
  143THY    HM3 3573   3.242   6.205   9.948 -0.6802  1.0995  0.0441
  143THY    CA6 3574   3.533   6.316   9.831  0.5666  0.0604  0.4144
  143THY    HA6 3575   3.591   6.316   9.923 -0.2505 -1.1178  0.9605
  144THY      O 3576   0.562   1.467   4.642 -0.1378  0.2822  0.7650
  144THY     HO 3577   0.558   1.552   4.690  3.2571  0.2248  1.4181
  144THY    CA1 3578   0.494   1.493   4.525 -0.4519 -0.1473 -0.5980
  144THY    CA2 3579   0.467   1.383   4.442  0.1414 -0.3396  0.5027
  144THY    CP1 3580   0.488   1.238   4.497  0.7843  0.0234  0.4881
  144THY    HP1 3581   0.466   1.233   4.604  0.0483 -0.1369  0.3377
  144THY    CP2 3582   0.388   1.142   4.440  0.2463 -1.0488  0.5117
  144THY    HP2 3583   0.287   1.186   4.445  0.5520 -0.1721 -0.5646
  144THY    HP3 3584   0.408   1.123   4.334 -1.5492  0.1156 -0.0930
  144THY    HP4 3585   0.385   1.053   4.504 -0.6707  0.7849  3.2086
  144THY    CP3 3586   0.626   1.184   4.474  0.3470 -0.6989 -0.0959
  144THY    HP5 3587   0.642   1.088   4.524  1.6417 -0.3799  0.1477
  144THY    HP6 3588   0.648   1.183   4.366 -0.3391  0.2578 -0.2556
  144THY    HP7 3589   0.702   1.248   4.521  0.4079 -0.4437 -0.5293
  144THY    CA3 3590   0.399   1.414   4.324  0.7256  0.5540 -0.5374
  144THY    HA3 3591   0.373   1.333   4.257 -0.9092  0.3963  0.2399
  144THY    CA4 3592   0.369   1.544   4.290  0.2935 -0.3533  0.2450
  144THY    HA4 3593   0.315   1.559   4.197 -0.6413  0.8573  0.9518
  144THY    CA5 3594   0.407   1.651   4.368  0.1899  0.5899 -0.0847
  144THY    CM1 3595   0.385   1.788   4.326  0.3732  0.2951 -0.3369
  144THY    HM1 3596   0.374   1.856   4.411  1.6428 -0.2597  0.2999
  144THY    HM2 3597   0.470   1.830   4.271 -0.8970  0.6899 -2.0879
  144THY    HM3 3598   0.294   1.804   4.268 -0.8532  0.9370  1.6855
  144THY    CA6 3599   0.482   1.624   4.484  0.8596  0.4774 -0.5687
  144THY    HA6 3600   0.516   1.703   4.551  1.0599 -0.5680  0.6105
  145THY      O 3601   4.147   3.929   9.100 -0.3046  0.1356 -0.2809
  145THY     HO 3602   4.108   3.962   9.017  0.1261  0.7449 -0.2460
  145THY    CA1 3603   4.075   3.818   9.141  0.0752 -1.0459  0.8474
  145THY    CA2 3604   4.128   3.721   9.227 -0.0078  0.4482 -0.0334
  145THY    CP1 3605   4.266   3.727   9.293 -0.9213 -0.3266 -0.5602
  145THY    HP1 3606   4.318   3.814   9.252  0.1331 -1.4933 -1.7895
  145THY    CP2 3607   4.272   3.747   9.445 -0.3159  0.5957  0.0163
  145THY    HP2 3608   4.229   3.842   9.479  0.3470  0.5653  0.9880
  145THY    HP3 3609   4.244   3.659   9.504 -0.2343 -0.8368 -1.9920
  145THY    HP4 3610   4.378   3.762   9.470  0.1779  1.2274 -2.2374
  145THY    CP3 3611   4.359   3.613   9.253 -0.4500  1.1405 -0.3778
  145THY    HP5 3612   4.310   3.519   9.283 -1.7776  0.9753 -2.7908
  145THY    HP6 3613   4.385   3.610   9.146  0.1399 -3.4688 -0.3119
  145THY    HP7 3614   4.455   3.621   9.304 -0.5134 -2.3669  0.5673
  145THY    CA3 3615   4.037   3.616   9.257 -0.1491 -0.0354 -0.3165
  145THY    HA3 3616   4.069   3.544   9.331  1.1099 -0.3505 -1.1566
  145THY    CA4 3617   3.908   3.608   9.204 -0.8868 -0.3171  0.4931
  145THY    HA4 3618   3.841   3.523   9.218 -3.0039  0.7449 -2.1384
  145THY    CA5 3619   3.863   3.718   9.122  0.5889 -0.7329 -0.0890
  145THY    CM1 3620   3.719   3.709   9.071  0.1340  0.1148 -0.5297
  145THY    HM1 3621   3.644   3.697   9.151  1.6648 -0.5650  0.8690
  145THY    HM2 3622   3.692   3.800   9.017 -1.2711 -0.1362 -0.2957
  145THY    HM3 3623   3.703   3.618   9.013 -0.5704 -0.4449  0.4968
  145THY    CA6 3624   3.953   3.813   9.082 -0.0032 -0.3462  0.4966
  145THY    HA6 3625   3.911   3.897   9.027  2.8787  0.1601 -1.1455
  146THY      O 3626   8.329   9.005   2.467 -0.0118 -0.0245  0.3543
  146THY     HO 3627   8.334   9.090   2.514  3.4257 -0.6621  1.4269
  146THY    CA1 3628   8.252   8.914   2.536 -0.5723 -0.1257 -0.7886
  146THY    CA2 3629   8.291   8.778   2.551  0.3493  0.1625 -0.0276
  146THY    CP1 3630   8.426   8.724   2.498 -0.0850 -0.3801  0.1377
  146THY    HP1 3631   8.476   8.794   2.430  0.5960 -1.6068 -0.6652
  146THY    CP2 3632   8.517   8.700   2.621  0.1440  0.0754 -0.0009
  146THY    HP2 3633   8.462   8.641   2.695  0.4437  1.5016  1.3917
  146THY    HP3 3634   8.610   8.646   2.604  0.8241  1.1301  0.2965
  146THY    HP4 3635   8.552   8.798   2.654  0.7508 -0.2137  0.2124
  146THY    CP3 3636   8.401   8.592   2.420 -1.3909  0.7650 -0.1823
  146THY    HP5 3637   8.342   8.518   2.474  0.2581 -1.1039 -0.8161
  146THY    HP6 3638   8.344   8.621   2.330 -0.3156 -0.6540 -1.3677
  146THY    HP7 3639   8.503   8.569   2.388 -0.1918  2.3655  2.2016
  146THY    CA3 3640   8.199   8.703   2.637  0.2339  0.2173  0.1465
  146THY    HA3 3641   8.222   8.597   2.646 -0.3059 -0.0969 -1.7106
  146THY    CA4 3642   8.085   8.760   2.703 -0.0666  0.3315  0.2576
  146THY    HA4 3643   8.032   8.702   2.778  0.8918  0.6418  1.2068
  146THY    CA5 3644   8.052   8.890   2.665 -0.2864 -0.2393  0.5162
  146THY    CM1 3645   7.947   8.964   2.744  0.1007 -1.1304  0.2342
  146THY    HM1 3646   7.904   8.906   2.827  0.5696  0.6163  1.7606
  146THY    HM2 3647   7.992   9.052   2.792  3.2752 -2.2609 -0.3875
  146THY    HM3 3648   7.867   8.981   2.671  0.7238 -3.0953 -0.9915
  146THY    CA6 3649   8.132   8.964   2.595  0.3378  0.3051  0.2559
  146THY    HA6 3650   8.110   9.071   2.588  0.4289  0.4665  1.9950
  147THY      O 3651   1.450   9.347   2.693 -1.0095 -0.1314  0.3122
  147THY     HO 3652   1.414   9.271   2.645 -2.4079  0.8874 -0.3095
  147THY    CA1 3653   1.354   9.437   2.715 -0.3399  0.1618 -0.1812
  147THY    CA2 3654   1.379   9.551   2.791 -0.6332 -0.1534  0.4270
  147THY    CP1 3655   1.523   9.574   2.851  0.5080 -0.1292  0.2729
  147THY    HP1 3656   1.569   9.476   2.866  2.3686  0.1961 -2.5406
  147THY    CP2 3657   1.622   9.659   2.770  0.0308 -0.3173  0.1143
  147THY    HP2 3658   1.607   9.765   2.795  2.5615  0.1593 -0.1097
  147THY    HP3 3659   1.723   9.631   2.804  0.3701  1.1700  0.4106
  147THY    HP4 3660   1.607   9.639   2.664 -1.0207 -0.4078  0.2783
  147THY    CP3 3661   1.515   9.626   2.996 -0.0817  0.3427 -0.2000
  147THY    HP5 3662   1.614   9.609   3.040 -0.3076 -0.9913 -0.1492
  147THY    HP6 3663   1.487   9.731   3.006 -3.3954 -0.4504 -0.0140
  147THY    HP7 3664   1.454   9.553   3.051 -0.2743  0.2819 -0.4883
  147THY    CA3 3665   1.283   9.647   2.804 -0.0364 -0.0915  0.0914
  147THY    HA3 3666   1.306   9.737   2.860  3.3687 -0.8963  0.1991
  147THY    CA4 3667   1.165   9.636   2.731 -0.0858  0.6966  0.0023
  147THY    HA4 3668   1.096   9.719   2.721 -0.3467  0.4875  0.0783
  147THY    CA5 3669   1.131   9.516   2.660  0.3954  0.3152  0.5486
  147THY    CM1 3670   1.002   9.506   2.581 -0.0998 -0.5422  0.2090
  147THY    HM1 3671   1.019   9.535   2.477 -0.4863  0.1490  0.3378
  147THY    HM2 3672   0.961   9.404   2.582  0.8343 -0.9369  0.2664
  147THY    HM3 3673   0.928   9.577   2.619 -0.7454 -0.8704 -0.4142
  147THY    CA6 3674   1.226   9.413   2.659  0.3868  1.2525 -0.0289
  147THY    HA6 3675   1.197   9.324   2.604  0.4077  1.0837  0.2305
  148THY      O 3676   8.979   9.070   0.722  0.3000  0.2056  0.0199
  148THY     HO 3677   8.979   9.141   0.655  0.1490  2.7779  2.5518
  148THY    CA1 3678   9.100   9.010   0.730 -0.3448  0.0587 -0.0154
  148THY    CA2 3679   9.122   8.916   0.834  0.9477 -0.6988 -0.3616
  148THY    CP1 3680   9.016   8.887   0.942 -0.0385  0.0629 -0.0094
  148THY    HP1 3681   8.918   8.892   0.892  0.6058 -0.3003 -1.3366
  148THY    CP2 3682   9.029   8.752   1.016  0.2841 -0.0040  0.0850
  148THY    HP2 3683   8.948   8.751   1.089  0.8524 -1.6451  0.7523
  148THY    HP3 3684   9.007   8.667   0.950  0.8689  0.4219 -0.6818
  148THY    HP4 3685   9.119   8.739   1.078  0.4282 -0.4698 -0.2085
  148THY    CP3 3686   9.001   9.001   1.044  0.1491 -0.0306 -0.5426
  148THY    HP5 3687   9.094   9.023   1.098 -1.0799 -0.3334  1.8088
  148THY    HP6 3688   8.961   9.091   0.995 -1.2759  0.3096  1.1243
  148THY    HP7 3689   8.923   8.978   1.118 -0.1276  0.4791 -0.6695
  148THY    CA3 3690   9.249   8.863   0.838 -0.5176 -0.3027  0.1952
  148THY    HA3 3691   9.283   8.807   0.925  2.6819  1.9456  0.5349
  148THY    CA4 3692   9.339   8.877   0.732 -0.3387 -0.1327  0.0704
  148THY    HA4 3693   9.433   8.824   0.747 -0.4188 -0.6608 -1.1982
  148THY    CA5 3694   9.317   8.967   0.626  0.2022  0.0382  0.2232
  148THY    CM1 3695   9.422   8.988   0.515  0.2538  0.1512  0.0591
  148THY    HM1 3696   9.481   9.081   0.515  2.1660 -0.9775 -1.8799
  148THY    HM2 3697   9.499   8.914   0.537  0.5233  0.5722  0.5537
  148THY    HM3 3698   9.377   8.961   0.419 -0.7342  1.1586  0.2184
  148THY    CA6 3699   9.190   9.034   0.625  0.3520 -0.1192 -0.9146
  148THY    HA6 3700   9.160   9.095   0.540 -2.1291 -2.9838 -2.2577
  149THY      O 3701   4.942   7.464   2.626  0.2570 -0.1896  0.0629
  149THY     HO 3702   5.000   7.519   2.681  1.9025 -1.7699  0.0039
  149THY    CA1 3703   5.017   7.367   2.567 -0.2518  0.0859 -0.0610
  149THY    CA2 3704   4.971   7.267   2.467 -0.3728  0.0377 -1.1629
  149THY    CP1 3705   4.822   7.258   2.435  0.7433  0.1171 -0.2483
  149THY    HP1 3706   4.766   7.345   2.471 -1.0569 -0.4134 -1.6094
  149THY    CP2 3707   4.796   7.262   2.289 -0.1522 -0.5287  0.0224
  149THY    HP2 3708   4.875   7.216   2.229  0.0819 -3.2476  2.2266
  149THY    HP3 3709   4.699   7.219   2.260  1.0708 -1.9808 -2.1178
  149THY    HP4 3710   4.790   7.364   2.249  1.4196 -1.4049 -2.6524
  149THY    CP3 3711   4.767   7.135   2.507  0.3176 -0.4147  0.5468
  149THY    HP5 3712   4.772   7.151   2.616  0.1901 -3.2142  1.0260
  149THY    HP6 3713   4.662   7.121   2.482  0.5980 -1.3999 -0.1281
  149THY    HP7 3714   4.822   7.051   2.464 -0.6465  0.2387 -2.1658
  149THY    CA3 3715   5.072   7.185   2.414 -0.3880  0.8470 -0.2266
  149THY    HA3 3716   5.044   7.119   2.331 -0.2221  0.0067  0.3700
  149THY    CA4 3717   5.212   7.195   2.447 -0.7341  0.2997  0.3715
  149THY    HA4 3718   5.288   7.128   2.407  0.2551 -0.8955  3.9101
  149THY    CA5 3719   5.247   7.286   2.541  0.0633 -0.8334 -0.1426
  149THY    CM1 3720   5.393   7.295   2.589 -0.0135  0.2795 -0.9255
  149THY    HM1 3721   5.435   7.194   2.583 -0.5371 -0.1750  1.7724
  149THY    HM2 3722   5.455   7.363   2.530  1.4702  1.8682  2.2123
  149THY    HM3 3723   5.409   7.338   2.689  2.6455 -1.4027 -0.4993
  149THY    CA6 3724   5.153   7.367   2.600 -0.6195 -0.7008  1.0512
  149THY    HA6 3725   5.196   7.443   2.665 -0.7285 -1.2086  1.7341
  150THY      O 3726   9.471   0.445   0.817 -0.3929  0.5178 -0.4264
  150THY     HO 3727   9.439   0.371   0.872  2.8119 -1.4534 -0.9452
  150THY    CA1 3728   9.474   0.549   0.906 -0.2259  0.2758  0.2969
  150THY    CA2 3729   9.432   0.679   0.870 -0.0126  0.0977  0.2716
  150THY    CP1 3730   9.369   0.704   0.730 -0.4741  0.4047 -0.2528
  150THY    HP1 3731   9.335   0.612   0.681 -1.1270  0.4700  0.0813
  150THY    CP2 3732   9.244   0.788   0.725 -0.1902  0.5122 -0.5294
  150THY    HP2 3733   9.175   0.748   0.799  2.3836  1.3859  2.5718
  150THY    HP3 3734   9.265   0.888   0.765  1.4895 -0.8828  2.3913
  150THY    HP4 3735   9.197   0.788   0.626 -0.1087 -0.7964 -0.5831
  150THY    CP3 3736   9.473   0.768   0.633  0.6934  0.1754  0.3129
  150THY    HP5 3737   9.558   0.699   0.618  0.4005 -0.0317 -0.4269
  150THY    HP6 3738   9.428   0.776   0.533  0.9132 -1.7386  0.0183
  150THY    HP7 3739   9.502   0.867   0.670 -0.6932  1.1641 -1.1151
  150THY    CA3 3740   9.432   0.778   0.969 -0.4994  0.1116  0.6738
  150THY    HA3 3741   9.405   0.878   0.938 -2.6925 -0.8422 -0.7289
  150THY    CA4 3742   9.477   0.747   1.096 -0.5504 -0.2877 -0.7642
  150THY    HA4 3743   9.477   0.826   1.171 -2.7786 -1.0995  0.1719
  150THY    CA5 3744   9.520   0.618   1.131 -0.7124 -0.0260 -0.2759
  150THY    CM1 3745   9.593   0.602   1.268  0.0115  0.2876  1.0317
  150THY    HM1 3746   9.567   0.508   1.318  0.9594 -1.2710 -1.2423
  150THY    HM2 3747   9.703   0.599   1.263  0.0013 -3.0295  0.9697
  150THY    HM3 3748   9.574   0.688   1.333  1.5189  1.4346  0.0453
  150THY    CA6 3749   9.522   0.519   1.035 -0.4739  0.3290 -0.3290
  150THY    HA6 3750   9.553   0.418   1.062 -1.6916  0.3945  1.4980
  151THY      O 3751   8.460   2.775   8.138  0.4194  0.4543 -0.1338
  151THY     HO 3752   8.418   2.759   8.052 -0.2099 -2.5050  0.6089
  151THY    CA1 3753   8.536   2.886   8.130  0.2742  0.2968 -0.7094
  151THY    CA2 3754   8.561   2.966   8.243  0.2870 -0.9534 -0.6231
  151THY    CP1 3755   8.494   2.931   8.376  0.4175  0.0111  0.0476
  151THY    HP1 3756   8.452   2.830   8.374  1.5524 -0.5330  1.3781
  151THY    CP2 3757   8.591   2.943   8.500  0.5787 -0.7571  0.4340
  151THY    HP2 3758   8.529   2.917   8.587 -0.4244  0.6853  0.1893
  151THY    HP3 3759   8.683   2.883   8.494  1.7673  0.7904  1.9407
  151THY    HP4 3760   8.615   3.050   8.511 -0.8997 -0.4187  0.5489
  151THY    CP3 3761   8.377   3.025   8.405  0.4085 -0.0438  0.6173
  151THY    HP5 3762   8.325   2.993   8.496 -1.9806 -0.7932 -0.9310
  151THY    HP6 3763   8.401   3.131   8.421  1.1872  0.2452 -2.0482
  151THY    HP7 3764   8.297   3.012   8.332  0.2671 -0.1837  0.7941
  151THY    CA3 3765   8.641   3.084   8.225 -0.0436  0.3490 -0.0098
  151THY    HA3 3766   8.654   3.146   8.313  0.7198 -1.6235  1.3447
  151THY    CA4 3767   8.686   3.122   8.097 -0.0742  0.0606  0.0592
  151THY    HA4 3768   8.749   3.209   8.082  1.1581 -1.0011 -1.1639
  151THY    CA5 3769   8.682   3.022   8.002  0.1202  0.6210  0.2355
  151THY    CM1 3770   8.761   3.035   7.878 -0.9354  0.2895  0.6153
  151THY    HM1 3771   8.864   2.998   7.885 -0.1024  1.9503 -1.5301
  151THY    HM2 3772   8.711   2.973   7.802 -0.9164  0.3995  0.5140
  151THY    HM3 3773   8.772   3.130   7.825 -0.8814 -0.6480 -1.1411
  151THY    CA6 3774   8.590   2.913   8.012  0.2692 -0.0829  0.5359
  151THY    HA6 3775   8.576   2.851   7.924  2.9473 -0.8106  0.5184
  152THY      O 3776   5.371   4.103   7.176  0.4740  0.0849  0.1876
  152THY     HO 3777   5.371   4.200   7.183  0.8660  0.2371 -1.4039
  152THY    CA1 3778   5.502   4.070   7.197  0.5169  0.2928  0.2376
  152THY    CA2 3779   5.560   3.943   7.182  0.5781 -0.3133 -0.3788
  152THY    CP1 3780   5.472   3.822   7.155  0.4883  0.2276 -0.0389
  152THY    HP1 3781   5.369   3.852   7.133  0.0058 -1.0887  0.3307
  152THY    CP2 3782   5.526   3.737   7.035  0.1406  0.8601  0.2498
  152THY    HP2 3783   5.623   3.691   7.055 -0.7821 -1.7493 -0.8649
  152THY    HP3 3784   5.464   3.651   7.008  0.0296  0.3869  1.9442
  152THY    HP4 3785   5.529   3.804   6.948  0.0457  1.3701  0.6366
  152THY    CP3 3786   5.453   3.734   7.277 -0.9452 -0.1156  0.5739
  152THY    HP5 3787   5.403   3.793   7.356 -2.4009 -0.3643 -0.1403
  152THY    HP6 3788   5.396   3.644   7.252 -0.3915 -0.2246 -0.3330
  152THY    HP7 3789   5.555   3.705   7.305 -1.4227 -2.0392  0.4607
  152THY    CA3 3790   5.701   3.935   7.198 -0.4582 -0.3199  0.3883
  152THY    HA3 3791   5.752   3.841   7.183 -1.6522 -1.4450  2.7822
  152THY    CA4 3792   5.772   4.049   7.220  0.5090 -0.4821  0.4767
  152THY    HA4 3793   5.879   4.034   7.224  0.5817 -0.9954 -1.8373
  152THY    CA5 3794   5.709   4.180   7.231 -1.2405  0.4066  0.0437
  152THY    CM1 3795   5.788   4.303   7.246 -0.6937 -0.0379  0.3632
  152THY    HM1 3796   5.778   4.364   7.155 -1.3231 -0.3277  0.2330
  152THY    HM2 3797   5.755   4.373   7.323  0.4822  0.7274  0.2067
  152THY    HM3 3798   5.896   4.287   7.235 -0.4488 -0.2609  2.6309
  152THY    CA6 3799   5.570   4.186   7.218 -0.4779 -0.2183  0.2485
  152THY    HA6 3800   5.522   4.282   7.231 -1.2469 -0.7517  1.5722
  153THY      O 3801   1.193   4.547   8.363 -0.1956  0.5897 -0.4760
  153THY     HO 3802   1.266   4.579   8.307  2.1940 -0.8733  1.5998
  153THY    CA1 3803   1.187   4.415   8.340 -0.2392  0.7049  0.0656
  153THY    CA2 3804   1.109   4.326   8.409  0.3488 -0.3942  0.1636
  153THY    CP1 3805   1.032   4.360   8.535 -0.2655 -0.2213 -0.4165
  153THY    HP1 3806   1.064   4.461   8.563  1.5912 -0.1985 -2.3160
  153THY    CP2 3807   0.886   4.367   8.516  0.0554  0.1789  0.5210
  153THY    HP2 3808   0.884   4.394   8.410  1.0594  1.2348  0.7652
  153THY    HP3 3809   0.845   4.267   8.537  0.6435  0.1731  1.7382
  153THY    HP4 3810   0.840   4.436   8.588 -1.1218 -1.0811  1.0344
  153THY    CP3 3811   1.057   4.269   8.656  0.0116  1.0561 -0.3845
  153THY    HP5 3812   0.990   4.293   8.740  0.9119 -0.4112  0.8161
  153THY    HP6 3813   1.038   4.164   8.629  3.3731  0.4275 -0.7404
  153THY    HP7 3814   1.160   4.285   8.691 -0.4751  1.3680  0.9772
  153THY    CA3 3815   1.102   4.186   8.371  0.1504 -0.1548 -0.7988
  153THY    HA3 3816   1.023   4.128   8.418 -0.1672  0.7935 -0.1260
  153THY    CA4 3817   1.184   4.143   8.260  0.4522  0.5646  0.4622
  153THY    HA4 3818   1.180   4.040   8.227  1.4377  0.9372 -0.9202
  153THY    CA5 3819   1.279   4.232   8.201  0.5026 -0.7159  0.0884
  153THY    CM1 3820   1.364   4.184   8.084  0.6655 -0.4302  0.0250
  153THY    HM1 3821   1.420   4.098   8.121  1.1886  0.3552  1.1284
  153THY    HM2 3822   1.302   4.151   7.999  1.8346  1.4700 -1.6503
  153THY    HM3 3823   1.428   4.268   8.055  0.9007  0.9032  3.8318
  153THY    CA6 3824   1.270   4.366   8.234 -0.2411 -0.0835 -0.4802
  153THY    HA6 3825   1.326   4.435   8.171  1.7160 -1.6359 -0.5378
  154THY      O 3826   6.335   1.850   0.217 -0.4900  0.6240  0.4219
  154THY     HO 3827   6.364   1.780   0.157 -1.2543  1.3805 -0.8781
  154THY    CA1 3828   6.441   1.918   0.265 -0.5217  0.5900  0.2542
  154THY    CA2 3829   6.431   2.043   0.324  0.3801 -0.0282  0.0299
  154THY    CP1 3830   6.296   2.113   0.339  0.4197 -0.1668 -0.2567
  154THY    HP1 3831   6.226   2.069   0.268  0.9719 -1.1289 -0.2218
  154THY    CP2 3832   6.224   2.107   0.472  0.2204  0.5045  0.1925
  154THY    HP2 3833   6.282   2.150   0.554 -0.9984  0.5720  1.0499
  154THY    HP3 3834   6.128   2.159   0.469  1.6192  3.4524  2.0101
  154THY    HP4 3835   6.208   2.003   0.504 -3.9747  0.9223 -0.0678
  154THY    CP3 3836   6.304   2.259   0.291  0.4907 -0.5342 -0.3857
  154THY    HP5 3837   6.202   2.300   0.299  1.2803  1.2463  1.3711
  154THY    HP6 3838   6.369   2.323   0.352 -1.8990 -0.1594  1.9637
  154THY    HP7 3839   6.341   2.258   0.188  0.4907  1.5066 -0.4426
  154THY    CA3 3840   6.551   2.105   0.365  0.0850 -0.0103 -0.3023
  154THY    HA3 3841   6.551   2.202   0.414  0.2299 -0.1060 -0.1089
  154THY    CA4 3842   6.676   2.039   0.344 -0.0921  0.3084  0.3431
  154THY    HA4 3843   6.765   2.099   0.358  0.2289  0.9920 -3.6004
  154THY    CA5 3844   6.678   1.913   0.284  0.0002  0.3389 -0.8738
  154THY    CM1 3845   6.809   1.845   0.265 -0.1716  0.0137  0.4453
  154THY    HM1 3846   6.882   1.894   0.331  0.0061 -1.3327  1.2817
  154THY    HM2 3847   6.804   1.745   0.308 -2.0755 -1.1157 -2.1291
  154THY    HM3 3848   6.838   1.835   0.160  3.6587 -0.4830  1.4057
  154THY    CA6 3849   6.562   1.855   0.251 -0.2605  0.6075  0.8443
  154THY    HA6 3850   6.563   1.750   0.225  0.7827  0.4239  1.5689
  155THY      O 3851   6.327   9.939   4.805  0.5273 -0.0683 -0.6964
  155THY     HO 3852   6.266   9.910   4.875 -0.7027  0.2309 -1.6170
  155THY    CA1 3853   6.268   9.920   4.685 -0.0146 -1.0354  0.1243
  155THY    CA2 3854   6.329   9.931   4.559  0.3427 -0.0556  0.5488
  155THY    CP1 3855   6.477   9.959   4.549  0.3419  0.5526 -0.1513
  155THY    HP1 3856   6.515   9.968   4.651 -0.2731 -1.8839  0.3564
  155THY    CP2 3857   6.556   9.849   4.478  0.2629 -0.1345  0.2428
  155THY    HP2 3858   6.554   9.755   4.533  0.0963  0.0901  0.6266
  155THY    HP3 3859   6.514   9.834   4.377  1.6526 -0.1706 -0.3549
  155THY    HP4 3860   6.663   9.871   4.468  0.3045 -1.2575 -2.7956
  155THY    CP3 3861   6.508  10.085   4.462 -0.3286 -0.1363  0.4561
  155THY    HP5 3862   6.496  10.066   4.355 -1.5740  0.5478  0.4588
  155THY    HP6 3863   6.438  10.166   4.487 -0.7529 -0.4589  0.3166
  155THY    HP7 3864   6.604  10.118   4.504  0.5663 -1.6502 -0.3241
  155THY    CA3 3865   6.245   9.932   4.445 -0.8968 -0.3536 -0.2855
  155THY    HA3 3866   6.286   9.949   4.346 -1.8900  0.8983 -0.5167
  155THY    CA4 3867   6.108   9.933   4.459  0.4197 -0.3719 -0.3255
  155THY    HA4 3868   6.036   9.952   4.380  1.0834  1.1041 -0.5957
  155THY    CA5 3869   6.046   9.928   4.585 -0.3951 -0.7660 -0.0564
  155THY    CM1 3870   5.893   9.932   4.594  0.1303 -0.9366 -0.1068
  155THY    HM1 3871   5.873  10.028   4.643 -0.0559 -0.1811 -1.6033
  155THY    HM2 3872   5.845   9.927   4.495  1.1112 -0.4034 -0.6328
  155THY    HM3 3873   5.862   9.844   4.651 -3.0400 -1.2052 -2.0388
  155THY    CA6 3874   6.127   9.925   4.700  0.0696  0.8856  0.6361
  155THY    HA6 3875   6.081   9.944   4.796 -0.5869 -1.9376  0.9636
  156THY      O 3876   8.439   3.627   6.135  0.1562 -0.1097  0.1121
  156THY     HO 3877   8.501   3.574   6.187  0.2575 -3.3234 -2.8869
  156THY    CA1 3878   8.396   3.727   6.218  0.9103  0.5228  0.1230
  156THY    CA2 3879   8.262   3.776   6.224  0.2309  0.1737 -0.3035
  156THY    CP1 3880   8.157   3.727   6.124 -0.0792  0.7206  0.0461
  156THY    HP1 3881   8.207   3.671   6.044  0.9875  1.3154  0.2772
  156THY    CP2 3882   8.043   3.645   6.183 -0.5779 -0.1397  0.2371
  156THY    HP2 3883   7.996   3.592   6.099  1.5899 -0.5636 -0.7703
  156THY    HP3 3884   8.077   3.561   6.246 -0.2278 -2.7620 -3.1721
  156THY    HP4 3885   7.975   3.713   6.236 -0.5833 -0.1385  0.2287
  156THY    CP3 3886   8.100   3.847   6.060  0.3013  0.6243 -0.0818
  156THY    HP5 3887   8.178   3.895   5.998  0.5089 -2.7218 -2.6698
  156THY    HP6 3888   8.016   3.821   5.995 -0.3344 -0.7530  1.2452
  156THY    HP7 3889   8.055   3.909   6.139 -0.1393  1.5071 -0.9897
  156THY    CA3 3890   8.230   3.866   6.332 -0.4952 -0.6711  0.2549
  156THY    HA3 3891   8.132   3.907   6.352 -0.3128 -0.7810  1.4574
  156THY    CA4 3892   8.330   3.893   6.423  0.6272 -0.3778 -0.4148
  156THY    HA4 3893   8.304   3.953   6.510  1.6504 -2.7696  1.6593
  156THY    CA5 3894   8.457   3.840   6.413 -0.6234 -0.0246  0.3085
  156THY    CM1 3895   8.562   3.878   6.503 -0.4081 -0.3792  0.0072
  156THY    HM1 3896   8.527   3.961   6.565 -1.1984 -0.3235 -0.5001
  156THY    HM2 3897   8.584   3.788   6.562 -0.8060 -0.8426 -0.5282
  156THY    HM3 3898   8.649   3.917   6.448 -1.3795  1.0086 -0.5839
  156THY    CA6 3899   8.488   3.761   6.305  0.5011  0.3821 -0.2050
  156THY    HA6 3900   8.592   3.729   6.296  0.8461  0.5240  2.4332
  157THY      O 3901   2.117   4.363   1.097  0.2437  0.2847  0.0732
  157THY     HO 3902   2.108   4.266   1.103 -1.5077  0.5160  2.1788
  157THY    CA1 3903   1.997   4.410   1.053  0.0606  0.3322 -0.3450
  157THY    CA2 3904   1.970   4.550   1.037  0.4142  0.0827 -0.0651
  157THY    CP1 3905   2.070   4.663   1.079 -0.2573  0.6683  0.5351
  157THY    HP1 3906   2.175   4.633   1.089 -0.1806  0.6710 -0.1859
  157THY    CP2 3907   2.076   4.773   0.971 -0.0363 -0.2467  0.4513
  157THY    HP2 3908   2.161   4.838   0.993 -1.1650  0.7943  1.9455
  157THY    HP3 3909   2.076   4.719   0.875 -4.7067  2.9395 -1.7849
  157THY    HP4 3910   1.981   4.828   0.976 -0.8958 -1.6341  0.0206
  157THY    CP3 3911   2.027   4.720   1.212 -0.1486  0.0334 -0.4400
  157THY    HP5 3912   2.107   4.781   1.255 -2.8637  0.7597  4.2852
  157THY    HP6 3913   1.949   4.796   1.198  1.6775  1.8677 -1.1761
  157THY    HP7 3914   2.008   4.645   1.289 -0.8990  0.0140 -0.6352
  157THY    CA3 3915   1.840   4.586   0.989 -0.0700  0.1324  0.6123
  157THY    HA3 3916   1.811   4.691   0.984 -1.0414 -0.1229  0.6473
  157THY    CA4 3917   1.750   4.491   0.947  0.2190  0.2848 -0.2710
  157THY    HA4 3918   1.655   4.522   0.905 -0.0502 -0.0834  0.0709
  157THY    CA5 3919   1.776   4.355   0.964 -0.2520 -0.0977 -0.3393
  157THY    CM1 3920   1.681   4.247   0.909  0.1259 -0.3219 -0.1824
  157THY    HM1 3921   1.577   4.278   0.923  0.0084  0.4524 -2.3371
  157THY    HM2 3922   1.684   4.219   0.803 -4.4338 -1.4376 -0.2227
  157THY    HM3 3923   1.694   4.150   0.958  0.6445 -0.6728 -0.9890
  157THY    CA6 3924   1.903   4.318   1.015 -0.8546  0.2033  0.3269
  157THY    HA6 3925   1.926   4.212   1.007 -1.7121 -0.0340  0.8595
  158THY      O 3926   6.866   2.723   9.149 -0.4989 -0.2765 -0.1917
  158THY     HO 3927   6.924   2.693   9.076  0.3070  1.8628 -0.4948
  158THY    CA1 3928   6.775   2.798   9.086  0.1802  0.5309  0.1463
  158THY    CA2 3929   6.681   2.882   9.141  0.2913  0.7711 -0.1943
  158THY    CP1 3930   6.676   2.892   9.291 -0.9374 -0.6841 -0.1388
  158THY    HP1 3931   6.728   2.811   9.342 -1.8784 -0.6063  1.0027
  158THY    CP2 3932   6.758   3.019   9.345  0.2199 -0.1445 -0.6143
  158THY    HP2 3933   6.725   3.117   9.309  1.2257  0.2256 -0.5555
  158THY    HP3 3934   6.760   3.015   9.454 -0.7662 -0.4598 -0.5998
  158THY    HP4 3935   6.863   3.014   9.313 -0.2897 -1.3747 -2.2411
  158THY    CP3 3936   6.535   2.888   9.359  0.0286  0.0994 -0.1066
  158THY    HP5 3937   6.477   2.795   9.351  0.7708 -0.3329 -0.5911
  158THY    HP6 3938   6.543   2.901   9.468 -0.7593  1.2330 -0.1716
  158THY    HP7 3939   6.464   2.963   9.324  1.0599 -0.1987 -3.0906
  158THY    CA3 3940   6.603   2.968   9.061  0.3735  0.1383 -0.2367
  158THY    HA3 3941   6.537   3.042   9.105 -0.6009  0.5319 -2.2597
  158THY    CA4 3942   6.614   2.961   8.922  0.1082 -0.2770  0.2730
  158THY    HA4 3943   6.558   3.024   8.854 -1.3598  0.5723  2.1827
  158THY    CA5 3944   6.701   2.878   8.866  0.5511  0.1541 -0.2428
  158THY    CM1 3945   6.708   2.862   8.721 -0.0721 -0.9427  0.8500
  158THY    HM1 3946   6.658   2.771   8.685  0.0367 -0.2236 -1.2883
  158THY    HM2 3947   6.662   2.946   8.668  1.1687 -0.2351  0.8610
  158THY    HM3 3948   6.811   2.855   8.684 -0.8275 -0.1652 -1.6005
  158THY    CA6 3949   6.782   2.796   8.950 -0.5117 -0.1164  0.3746
  158THY    HA6 3950   6.856   2.741   8.893 -0.1843  0.6403  0.0449
  159THY      O 3951   3.601   3.504   1.057  0.1462 -0.2598 -1.0757
  159THY     HO 3952   3.595   3.421   1.107  2.3173 -0.5122 -1.1478
  159THY    CA1 3953   3.528   3.606   1.125 -0.1736  0.0793 -0.1561
  159THY    CA2 3954   3.444   3.691   1.047 -0.4005 -0.1192 -0.4704
  159THY    CP1 3955   3.427   3.670   0.896 -0.0697 -0.6195  0.5896
  159THY    HP1 3956   3.478   3.578   0.862  1.6803  0.3321  0.5146
  159THY    CP2 3957   3.276   3.635   0.868  0.0622 -0.2297 -0.0479
  159THY    HP2 3958   3.263   3.532   0.902 -0.0138 -0.0921  0.3378
  159THY    HP3 3959   3.202   3.697   0.918  0.7452 -1.1845  2.2549
  159THY    HP4 3960   3.255   3.629   0.760 -0.3017 -0.6313  0.0430
  159THY    CP3 3961   3.468   3.777   0.790  0.5658 -0.1542  0.4621
  159THY    HP5 3962   3.383   3.845   0.776  1.0456  0.5690  1.0070
  159THY    HP6 3963   3.552   3.837   0.827 -0.8486  0.5544  2.7507
  159THY    HP7 3964   3.482   3.727   0.694 -0.7930 -1.3903  0.8668
  159THY    CA3 3965   3.382   3.795   1.114 -0.3207  0.0062  0.2578
  159THY    HA3 3966   3.335   3.872   1.053  0.2752 -0.1877 -0.4727
  159THY    CA4 3967   3.385   3.799   1.256  0.5969 -0.5316 -0.4391
  159THY    HA4 3968   3.341   3.884   1.307  1.1954 -1.1269  1.1457
  159THY    CA5 3969   3.463   3.709   1.330  0.7811  0.0083  0.4600
  159THY    CM1 3970   3.482   3.715   1.474 -0.3400 -0.8015  0.2031
  159THY    HM1 3971   3.390   3.726   1.533  0.5513 -0.3586  1.5681
  159THY    HM2 3972   3.522   3.623   1.518  2.3014  0.3174  0.2841
  159THY    HM3 3973   3.553   3.793   1.502 -0.2012  0.0404 -2.2439
  159THY    CA6 3974   3.537   3.612   1.263  0.0785 -0.4349  0.0765
  159THY    HA6 3975   3.602   3.544   1.318  1.9391  1.1049 -0.0912
  160THY      O 3976   6.313   2.817   9.034  0.4206 -0.6271 -0.1276
  160THY     HO 3977   6.399   2.803   9.077 -0.8310  0.8957  3.2497
  160THY    CA1 3978   6.325   2.731   8.929 -0.5819  0.6265  0.4646
  160THY    CA2 3979   6.223   2.700   8.834 -0.0683 -0.1774  0.1208
  160THY    CP1 3980   6.099   2.787   8.839 -0.1503  0.5094 -0.1867
  160THY    HP1 3981   6.061   2.799   8.941 -2.2131 -0.2520 -0.8212
  160THY    CP2 3982   6.123   2.925   8.777  0.1670  0.2963  0.1330
  160THY    HP2 3983   6.212   2.972   8.820 -0.4413 -0.0764  1.8799
  160THY    HP3 3984   6.141   2.912   8.670  0.2047  0.6262  0.0994
  160THY    HP4 3985   6.042   2.997   8.791 -0.5013 -0.4428  0.1192
  160THY    CP3 3986   5.985   2.725   8.767  0.2658 -0.0026 -0.7835
  160THY    HP5 3987   6.002   2.698   8.662 -2.1732  1.9155 -1.7901
  160THY    HP6 3988   5.967   2.629   8.815  0.3815  1.0295  1.4505
  160THY    HP7 3989   5.895   2.789   8.765  1.4530  1.7848 -3.8531
  160THY    CA3 3990   6.248   2.593   8.747 -0.4127  0.6269  1.1440
  160THY    HA3 3991   6.167   2.555   8.685  0.5517  0.2489  0.0618
  160THY    CA4 3992   6.377   2.526   8.745  0.5594 -0.4252 -0.1436
  160THY    HA4 3993   6.388   2.442   8.677  1.5439 -0.9412  0.6212
  160THY    CA5 3994   6.480   2.571   8.824 -0.2841  0.0444  0.2709
  160THY    CM1 3995   6.617   2.499   8.826  0.3253  0.3565  0.1168
  160THY    HM1 3996   6.660   2.493   8.926 -1.2268 -1.8789  0.7426
  160THY    HM2 3997   6.596   2.401   8.779 -0.2943  1.9099 -3.1511
  160THY    HM3 3998   6.677   2.549   8.749  1.2320 -0.2495  0.4012
  160THY    CA6 3999   6.449   2.660   8.925 -0.6900 -0.3438  0.5440
  160THY    HA6 4000   6.534   2.681   8.990  1.4139  0.0844 -2.1556
  161THY      O 4001   5.446   5.371   0.568 -0.0533  0.3655 -0.3110
  161THY     HO 4002   5.430   5.332   0.656  0.6499  0.3864 -0.1670
  161THY    CA1 4003   5.359   5.307   0.486 -0.0486  0.2897 -0.1872
  161THY    CA2 4004   5.405   5.215   0.390  0.0035  0.4292  0.4745
  161THY    CP1 4005   5.556   5.181   0.392  0.5694  0.3627 -0.5269
  161THY    HP1 4006   5.618   5.265   0.424 -2.2521  1.7383  1.8464
  161THY    CP2 4007   5.566   5.068   0.493  0.4696  0.2667  0.7770
  161THY    HP2 4008   5.673   5.054   0.512  0.9894  1.3010 -1.1319
  161THY    HP3 4009   5.532   5.116   0.586  2.6910  3.7504 -0.0043
  161THY    HP4 4010   5.497   4.984   0.482 -1.5618  2.0640 -1.4560
  161THY    CP3 4011   5.598   5.124   0.259 -0.4383  0.3637  0.4480
  161THY    HP5 4012   5.568   5.191   0.177  0.1065 -0.8354 -0.7789
  161THY    HP6 4013   5.708   5.120   0.253 -0.5039 -1.4380 -0.1800
  161THY    HP7 4014   5.565   5.022   0.237  1.1827  0.2849 -2.0893
  161THY    CA3 4015   5.307   5.159   0.299 -0.1469 -0.3435  0.0937
  161THY    HA3 4016   5.332   5.089   0.221  0.6632 -0.2472  0.2597
  161THY    CA4 4017   5.172   5.197   0.312  0.2578 -0.4082  0.6104
  161THY    HA4 4018   5.100   5.159   0.240 -0.7244  1.4141  0.5551
  161THY    CA5 4019   5.133   5.281   0.417 -0.1403  0.3067  1.0983
  161THY    CM1 4020   4.987   5.310   0.436 -0.0448  0.0810  0.0536
  161THY    HM1 4021   4.977   5.401   0.496 -0.7487  0.4284 -0.5741
  161THY    HM2 4022   4.937   5.334   0.342  0.2301 -0.3356 -0.2037
  161THY    HM3 4023   4.933   5.226   0.481 -1.3027 -0.5345 -2.3969
  161THY    CA6 4024   5.228   5.344   0.499 -0.2670  0.3085  0.0597
  161THY    HA6 4025   5.193   5.410   0.578  1.1828  0.5050  0.5775
  162THY      O 4026   9.651   6.131   6.713 -0.4680 -0.2788 -0.0953
  162THY     HO 4027   9.632   6.036   6.722 -0.3200 -0.5115 -1.9190
  162THY    CA1 4028   9.777   6.156   6.730 -0.1469 -0.1014  0.4896
  162THY    CA2 4029   9.828   6.288   6.717 -0.4265  0.2212  0.5363
  162THY    CP1 4030   9.738   6.404   6.672  0.9961  1.0315 -0.7762
  162THY    HP1 4031   9.645   6.365   6.628  1.0797 -1.9265  1.4210
  162THY    CP2 4032   9.690   6.491   6.787  0.5179 -0.2948  0.2953
  162THY    HP2 4033   9.779   6.541   6.827  1.2966  0.3809 -2.1351
  162THY    HP3 4034   9.627   6.573   6.754  3.0384  1.4856 -0.3640
  162THY    HP4 4035   9.627   6.434   6.857 -2.0523 -0.2385 -1.8050
  162THY    CP3 4036   9.799   6.483   6.559  0.2722 -0.5177  0.1376
  162THY    HP5 4037   9.716   6.530   6.504  0.3801 -0.9755 -0.4256
  162THY    HP6 4038   9.863   6.560   6.604 -0.5871  1.3926 -1.7372
  162THY    HP7 4039   9.860   6.429   6.486  0.6990 -0.5364  0.5062
  162THY    CA3 4040   9.966   6.310   6.740  0.3286  0.0021  0.3048
  162THY    HA3 4041  10.019   6.405   6.734  0.7930 -0.2403  0.5343
  162THY    CA4 4042  10.049   6.205   6.779 -0.0395  0.8537  0.2084
  162THY    HA4 4043  10.157   6.215   6.781  0.1771 -1.0449  2.8953
  162THY    CA5 4044   9.998   6.074   6.790  0.8338  0.3260  0.2171
  162THY    CM1 4045  10.080   5.955   6.832  0.1276 -0.5008  0.2199
  162THY    HM1 4046  10.024   5.866   6.864  1.3740 -1.7609 -0.9583
  162THY    HM2 4047  10.133   5.915   6.745 -0.5658  0.4584 -0.6601
  162THY    HM3 4048  10.149   5.984   6.912  1.6475 -2.5171 -0.2508
  162THY    CA6 4049   9.863   6.051   6.771  0.4414 -0.1561 -0.3954
  162THY    HA6 4050   9.823   5.951   6.788  0.6973 -0.1311  0.3868
  163THY      O 4051   4.866   3.349   8.804 -0.1839  0.4441 -0.1606
  163THY     HO 4052   4.802   3.279   8.826 -0.5188  0.4288 -1.1152
  163THY    CA1 4053   4.991   3.293   8.807  0.3537  0.0228  0.1831
  163THY    CA2 4054   5.106   3.371   8.812 -0.3496 -0.3422  0.6633
  163THY    CP1 4055   5.098   3.526   8.828 -0.1769  0.0146 -0.1040
  163THY    HP1 4056   4.993   3.545   8.853 -0.4942  0.0845 -1.3782
  163THY    CP2 4057   5.203   3.580   8.922  0.1505 -0.4275 -0.4888
  163THY    HP2 4058   5.193   3.524   9.015 -1.0023  1.2984  0.4747
  163THY    HP3 4059   5.304   3.557   8.887  1.6321  0.0832  3.0778
  163THY    HP4 4060   5.188   3.686   8.946 -0.0627 -0.6909  0.5638
  163THY    CP3 4061   5.117   3.596   8.694  0.5852 -0.3835  0.8097
  163THY    HP5 4062   5.042   3.567   8.619  2.4355  1.1261 -1.8003
  163THY    HP6 4063   5.104   3.703   8.713 -0.6497 -0.2528 -0.5714
  163THY    HP7 4064   5.217   3.573   8.655  0.7746  1.3063  0.2285
  163THY    CA3 4065   5.227   3.304   8.815  0.3601  0.2967 -0.1638
  163THY    HA3 4066   5.323   3.356   8.812  0.8704 -0.6231 -0.1682
  163THY    CA4 4067   5.228   3.166   8.810 -0.0646 -0.6283 -0.4601
  163THY    HA4 4068   5.324   3.116   8.820  0.0175 -0.0176  3.2710
  163THY    CA5 4069   5.110   3.088   8.816 -0.5163 -0.3195 -0.5760
  163THY    CM1 4070   5.111   2.934   8.819  0.3228  0.2024 -0.2684
  163THY    HM1 4071   5.018   2.895   8.778 -0.9667  0.9376  1.7821
  163THY    HM2 4072   5.199   2.917   8.755  0.3324  1.4606 -0.6254
  163THY    HM3 4073   5.118   2.897   8.922 -3.3209 -0.5390 -0.1507
  163THY    CA6 4074   4.994   3.158   8.807 -0.5128 -0.1672  0.3045
  163THY    HA6 4075   4.899   3.106   8.800 -0.2164 -0.5011 -3.3909
  164THY      O 4076   0.906   0.221   7.453  0.2162  0.1440  0.1437
  164THY     HO 4077   0.822   0.182   7.424  1.1499 -0.4671 -1.9429
  164THY    CA1 4078   0.973   0.250   7.338 -0.4633  0.4650  0.2378
  164THY    CA2 4079   1.067   0.359   7.323  0.3825  0.4205 -0.2568
  164THY    CP1 4080   1.083   0.465   7.432 -0.1051  0.2246  0.8174
  164THY    HP1 4081   0.997   0.452   7.499 -0.1427 -3.0138  0.2965
  164THY    CP2 4082   1.214   0.447   7.500  0.0047 -0.8211 -0.6715
  164THY    HP2 4083   1.241   0.540   7.553  0.7684 -0.1969 -2.0912
  164THY    HP3 4084   1.206   0.377   7.583 -0.9704 -0.1227 -0.1521
  164THY    HP4 4085   1.295   0.422   7.430  0.6715  0.3241 -0.3477
  164THY    CP3 4086   1.068   0.608   7.385 -0.2707 -0.0971 -0.2758
  164THY    HP5 4087   1.047   0.675   7.469 -1.7720 -0.4401 -0.3515
  164THY    HP6 4088   1.157   0.641   7.332 -0.7582  0.3317 -0.8366
  164THY    HP7 4089   0.985   0.618   7.314 -0.6810  1.0885  0.3389
  164THY    CA3 4090   1.157   0.350   7.215  0.0071  0.1187  0.0518
  164THY    HA3 4091   1.243   0.416   7.207 -0.8271  1.0792 -1.6795
  164THY    CA4 4092   1.147   0.253   7.114  0.1387 -0.3864  0.2150
  164THY    HA4 4093   1.218   0.252   7.032  0.1007 -0.3373  0.1824
  164THY    CA5 4094   1.043   0.155   7.118 -0.1905  0.6370  1.0627
  164THY    CM1 4095   1.043   0.045   7.012 -0.4064  0.6773 -0.7822
  164THY    HM1 4096   1.003   0.084   6.918  0.8637  0.8525 -1.2682
  164THY    HM2 4097   1.145   0.013   6.985 -0.8423  0.0063 -1.6639
  164THY    HM3 4098   0.988  -0.040   7.054 -2.5994  2.2053 -0.3918
  164THY    CA6 4099   0.959   0.155   7.233  0.4122 -0.0189  0.0715
  164THY    HA6 4100   0.885   0.076   7.245  0.0032  0.5833  1.8599
  165THY      O 4101   0.372   7.084   1.486  0.0915 -0.0074  0.3335
  165THY     HO 4102   0.440   7.015   1.479 -1.2872 -1.2727 -1.6965
  165THY    CA1 4103   0.267   7.034   1.555  0.1595 -0.5040 -0.0556
  165THY    CA2 4104   0.159   7.110   1.600  0.5391  0.1244 -0.3789
  165THY    CP1 4105   0.170   7.263   1.594  0.3808 -0.1782  0.5763
  165THY    HP1 4106   0.246   7.298   1.523  1.9396 -2.7553  0.8413
  165THY    CP2 4107   0.037   7.335   1.539  0.1684  0.4662  0.2865
  165THY    HP2 4108  -0.048   7.322   1.607  0.7551 -1.0992  0.7548
  165THY    HP3 4109   0.055   7.443   1.544 -1.0087  0.6377  1.5010
  165THY    HP4 4110   0.010   7.296   1.440 -0.5475 -2.4081  1.5158
  165THY    CP3 4111   0.212   7.314   1.734  0.7748 -0.1497  0.3088
  165THY    HP5 4112   0.227   7.423   1.730  1.2391 -0.2288 -0.4681
  165THY    HP6 4113   0.141   7.280   1.809 -0.8908 -0.3441 -1.2919
  165THY    HP7 4114   0.310   7.288   1.776  0.4484 -0.9951  0.5494
  165THY    CA3 4115   0.062   7.049   1.685  0.3132 -0.1456 -0.6201
  165THY    HA3 4116  -0.007   7.106   1.747  0.8975 -1.0418  0.9166
  165THY    CA4 4117   0.064   6.911   1.711  0.1432 -0.4767  0.2847
  165THY    HA4 4118  -0.012   6.872   1.778  0.2322  0.7179  1.1157
  165THY    CA5 4119   0.163   6.836   1.653 -0.4740  0.1170  0.0548
  165THY    CM1 4120   0.160   6.687   1.663 -0.1970  0.3155  0.2565
  165THY    HM1 4121   0.062   6.639   1.673  0.3511 -0.6100  1.4454
  165THY    HM2 4122   0.209   6.646   1.573 -0.3677  0.4061  0.1228
  165THY    HM3 4123   0.214   6.663   1.755 -0.1167 -2.4379 -0.4227
  165THY    CA6 4124   0.263   6.899   1.574  0.1165 -0.1012 -0.0609
  165THY    HA6 4125   0.335   6.823   1.545 -0.4211 -1.5487  2.1303
  166THY      O 4126   5.378   6.169   4.407  0.3865  0.0127  0.0729
  166THY     HO 4127   5.388   6.161   4.503  2.7422  1.4296  0.0260
  166THY    CA1 4128   5.454   6.064   4.363  0.2632  0.5774  0.4757
  166THY    CA2 4129   5.462   6.028   4.226 -0.1131  1.0402 -0.5154
  166THY    CP1 4130   5.397   6.112   4.116 -0.1790 -0.0912 -0.0724
  166THY    HP1 4131   5.331   6.186   4.162 -1.9188  0.2629 -2.8963
  166THY    CP2 4132   5.501   6.206   4.051 -0.8440  0.0530 -0.1439
  166THY    HP2 4133   5.570   6.143   3.993  1.5287  0.4306  2.1045
  166THY    HP3 4134   5.453   6.281   3.986 -1.4115 -1.4744 -1.5599
  166THY    HP4 4135   5.560   6.252   4.130  0.0191 -0.7658 -0.2957
  166THY    CP3 4136   5.325   6.014   4.023  0.4740 -0.2013 -0.1208
  166THY    HP5 4137   5.397   5.980   3.948 -1.1666 -2.7398 -0.6808
  166THY    HP6 4138   5.292   5.930   4.085 -1.8329  1.2755  0.7860
  166THY    HP7 4139   5.243   6.059   3.965  0.1213  0.8461  1.1523
  166THY    CA3 4140   5.552   5.922   4.192 -0.6079  0.7785 -0.1644
  166THY    HA3 4141   5.558   5.891   4.088 -2.5169  1.0225 -0.3876
  166THY    CA4 4142   5.609   5.840   4.289  0.4143  0.6387 -0.3813
  166THY    HA4 4143   5.658   5.745   4.272 -0.7903 -0.4328  1.6940
  166THY    CA5 4144   5.601   5.887   4.422 -0.3192 -0.9523  0.1940
  166THY    CM1 4145   5.642   5.795   4.533  0.5245 -0.2766  0.3317
  166THY    HM1 4146   5.732   5.836   4.581  0.0720  0.6911  0.3765
  166THY    HM2 4147   5.563   5.783   4.609  0.7270 -1.9735  0.3042
  166THY    HM3 4148   5.668   5.699   4.488 -1.7087 -0.7249 -0.1140
  166THY    CA6 4149   5.519   5.994   4.462 -0.4018  0.2407 -0.6499
  166THY    HA6 4150   5.502   6.019   4.566  2.3320  1.2273 -0.3541
  167THY      O 4151   2.507   0.293   0.018 -0.0442  0.0202  0.2603
  167THY     HO 4152   2.578   0.229   0.033  1.7442  1.5052 -1.3339
  167THY    CA1 4153   2.523   0.331  -0.112 -0.0204 -0.0643 -0.1243
  167THY    CA2 4154   2.463   0.448  -0.157 -0.0774  0.0382  0.8251
  167THY    CP1 4155   2.411   0.554  -0.051  0.0382  1.0932  0.8127
  167THY    HP1 4156   2.457   0.543   0.048 -0.8380  2.9004  1.4554
  167THY    CP2 4157   2.458   0.695  -0.079  0.1499 -0.0322 -0.7544
  167THY    HP2 4158   2.392   0.740  -0.154 -3.8992 -2.7512  0.8308
  167THY    HP3 4159   2.438   0.759   0.008  0.8553 -1.1402  0.2600
  167THY    HP4 4160   2.566   0.704  -0.093  0.1950  1.6129  0.3242
  167THY    CP3 4161   2.258   0.536  -0.048  0.0632  0.3542  0.5197
  167THY    HP5 4162   2.217   0.622   0.007  2.1303  1.2215  0.7923
  167THY    HP6 4163   2.210   0.515  -0.144  1.1542 -1.4671  0.3235
  167THY    HP7 4164   2.232   0.452   0.018 -0.8185 -0.8965 -1.3280
  167THY    CA3 4165   2.470   0.491  -0.289  0.1637  0.8351  0.0697
  167THY    HA3 4166   2.420   0.580  -0.327 -0.5334  0.1362 -0.7005
  167THY    CA4 4167   2.521   0.398  -0.384 -0.4211 -0.1257  0.6069
  167THY    HA4 4168   2.525   0.430  -0.488 -3.1770  2.6633  1.2119
  167THY    CA5 4169   2.582   0.274  -0.342  0.2858 -0.2966 -0.4274
  167THY    CM1 4170   2.633   0.168  -0.439 -0.9020  0.3159 -0.4902
  167THY    HM1 4171   2.605   0.066  -0.410  1.9092  0.1900  2.2930
  167THY    HM2 4172   2.611   0.198  -0.542 -2.1741  4.8937  0.8574
  167THY    HM3 4173   2.740   0.185  -0.424 -0.8893 -0.3285  0.2111
  167THY    CA6 4174   2.585   0.242  -0.201  0.3645  0.4448  0.5595
  167THY    HA6 4175   2.625   0.148  -0.167  0.7898  0.2511 -0.4247
  168THY      O 4176   6.124   1.035   4.335  0.2494  0.4378 -0.0358
  168THY     HO 4177   6.185   1.030   4.410  0.6573  0.3895 -0.3681
  168THY    CA1 4178   6.173   1.122   4.242 -0.3892  0.3287  0.2353
  168THY    CA2 4179   6.123   1.125   4.110 -0.1348  0.5370  0.8111
  168THY    CP1 4180   6.019   1.028   4.070 -0.1677 -0.1256  0.2300
  168THY    HP1 4181   5.951   1.004   4.153  0.1070  0.9240  0.7663
  168THY    CP2 4182   5.922   1.081   3.948  0.3063  0.3330  0.0240
  168THY    HP2 4183   5.848   1.005   3.921  0.1793  0.5989 -0.3851
  168THY    HP3 4184   5.859   1.146   4.010  0.4197 -0.7084  1.2656
  168THY    HP4 4185   5.966   1.139   3.867  1.2697 -0.3134  0.0688
  168THY    CP3 4186   6.086   0.895   4.018 -0.2545  0.2777  0.5132
  168THY    HP5 4187   6.009   0.817   4.012  0.1286 -0.1530  1.1449
  168THY    HP6 4188   6.138   0.905   3.922 -1.4884 -1.2392 -0.3664
  168THY    HP7 4189   6.173   0.875   4.082  0.5090 -2.2234 -1.1902
  168THY    CA3 4190   6.191   1.211   4.011 -0.3776  0.1336  0.0407
  168THY    HA3 4191   6.162   1.208   3.907  0.7645 -3.6017 -0.3501
  168THY    CA4 4192   6.303   1.289   4.056  0.1652  0.4262 -0.7069
  168THY    HA4 4193   6.357   1.353   3.986  1.1206 -0.7980 -1.1302
  168THY    CA5 4194   6.340   1.284   4.198  0.4088  0.4695  0.3924
  168THY    CM1 4195   6.451   1.377   4.244  0.7058 -0.4647 -0.3866
  168THY    HM1 4196   6.542   1.354   4.187  1.1081  0.1884 -0.0090
  168THY    HM2 4197   6.430   1.483   4.230 -1.4105 -0.9387 -1.2968
  168THY    HM3 4198   6.484   1.360   4.347  1.0859 -2.8316 -0.8349
  168THY    CA6 4199   6.272   1.205   4.289  0.4353 -0.1057  0.0594
  168THY    HA6 4200   6.288   1.208   4.397  0.1613  2.4243  0.0854
  169THY      O 4201   1.604   2.334   0.334  0.5214 -0.3680  0.4632
  169THY     HO 4202   1.547   2.405   0.301  0.8426  0.7524  2.2257
  169THY    CA1 4203   1.673   2.294   0.219  0.0771 -0.5876  0.2036
  169THY    CA2 4204   1.753   2.177   0.216 -0.9261 -0.2844 -0.0201
  169THY    CP1 4205   1.744   2.074   0.331  0.2050 -0.5188 -0.2124
  169THY    HP1 4206   1.703   2.130   0.416 -0.5865 -2.0581  0.4801
  169THY    CP2 4207   1.649   1.960   0.283  0.0973  0.1826 -0.0353
  169THY    HP2 4208   1.606   1.906   0.369 -3.6299  1.6351 -0.8068
  169THY    HP3 4209   1.569   2.004   0.223  0.5684 -0.3054 -1.0379
  169THY    HP4 4210   1.715   1.895   0.224 -1.1793 -0.0911 -1.2146
  169THY    CP3 4211   1.876   2.017   0.382 -0.0745  0.6294 -0.2085
  169THY    HP5 4212   1.929   1.939   0.326  1.0651  0.4995  0.9963
  169THY    HP6 4213   1.941   2.106   0.386 -0.0258  0.6799 -1.5461
  169THY    HP7 4214   1.858   1.975   0.481 -0.0876  0.6362 -0.2081
  169THY    CA3 4215   1.822   2.146   0.101 -0.2640  0.2672 -0.2485
  169THY    HA3 4216   1.885   2.057   0.101  0.4569  0.7475 -1.4102
  169THY    CA4 4217   1.817   2.221  -0.017 -0.1697  0.1600  0.0166
  169THY    HA4 4218   1.867   2.176  -0.102 -0.1728  1.9110 -0.9655
  169THY    CA5 4219   1.723   2.326  -0.017 -0.5170 -0.8267  0.2752
  169THY    CM1 4220   1.696   2.406  -0.147 -0.2242  0.4533 -1.3369
  169THY    HM1 4221   1.634   2.338  -0.207 -0.3819 -1.7152  1.0579
  169THY    HM2 4222   1.656   2.506  -0.123 -0.8775 -0.6126  3.0071
  169THY    HM3 4223   1.793   2.414  -0.196  1.3024  0.6648  1.4741
  169THY    CA6 4224   1.655   2.362   0.099  0.1976 -0.5111 -0.6541
  169THY    HA6 4225   1.584   2.444   0.093  1.1696  0.6825  2.3160
  170THY      O 4226   1.948   1.087   0.659 -0.5504 -0.2387 -0.5606
  170THY     HO 4227   1.961   1.002   0.614 -0.6433 -0.4063 -0.2773
  170THY    CA1 4228   2.034   1.090   0.772 -0.2806 -0.3155  0.4033
  170THY    CA2 4229   2.034   1.185   0.877  0.0308  0.1003 -0.2319
  170THY    CP1 4230   1.930   1.293   0.875 -0.6663 -0.0569  0.0153
  170THY    HP1 4231   1.868   1.286   0.784 -0.6615 -1.1811  0.0917
  170THY    CP2 4232   1.840   1.279   0.992  0.4325  0.4841  0.3529
  170THY    HP2 4233   1.892   1.274   1.089 -2.3636  0.9598  2.0087
  170THY    HP3 4234   1.767   1.359   1.009  1.7877  1.3938  2.2833
  170THY    HP4 4235   1.788   1.183   0.977 -1.4749  1.4617  0.3405
  170THY    CP3 4236   2.009   1.425   0.881 -0.1272  0.0902  0.6891
  170THY    HP5 4237   2.061   1.457   0.790  1.4638 -1.0587  1.1537
  170THY    HP6 4238   1.940   1.503   0.913  0.3803  1.3790 -1.2293
  170THY    HP7 4239   2.080   1.416   0.965  1.9096 -0.2986 -0.9866
  170THY    CA3 4240   2.118   1.161   0.986  0.5502 -0.4785  0.4900
  170THY    HA3 4241   2.108   1.228   1.071 -0.8856  1.8666 -1.4060
  170THY    CA4 4242   2.198   1.047   0.988 -0.1043 -0.1985 -0.6779
  170THY    HA4 4243   2.267   1.025   1.070  0.9734 -2.8585 -2.1581
  170THY    CA5 4244   2.195   0.956   0.880 -0.4830 -0.1128 -0.1406
  170THY    CM1 4245   2.270   0.825   0.872  0.1545 -0.3550 -0.5098
  170THY    HM1 4246   2.214   0.743   0.826 -1.4102 -0.7942  2.0115
  170THY    HM2 4247   2.359   0.838   0.809  1.2669 -0.6151  0.9611
  170THY    HM3 4248   2.298   0.803   0.975 -0.6244  1.4949  0.1333
  170THY    CA6 4249   2.110   0.979   0.777 -0.5824  0.5972  0.1304
  170THY    HA6 4250   2.095   0.897   0.707 -1.9013  1.1764 -0.2906
  171THY      O 4251   6.545   4.170   7.166 -0.5408  0.6316 -0.1219
  171THY     HO 4252   6.599   4.090   7.164 -1.5027 -0.0472  0.1625
  171THY    CA1 4253   6.537   4.211   7.036 -0.0174 -0.2812 -0.3869
  171THY    CA2 4254   6.490   4.340   7.005  0.4370 -0.4566 -0.4720
  171THY    CP1 4255   6.460   4.436   7.116 -0.3648  0.5266 -0.5278
  171THY    HP1 4256   6.490   4.396   7.214  2.5366 -0.1627 -1.5852
  171THY    CP2 4257   6.520   4.580   7.106  0.3716  0.0882 -0.2052
  171THY    HP2 4258   6.541   4.602   7.001 -2.2918 -0.1798 -0.8451
  171THY    HP3 4259   6.450   4.648   7.155 -3.5008 -2.0646 -2.2988
  171THY    HP4 4260   6.617   4.582   7.158  0.2260 -0.4529  0.1036
  171THY    CP3 4261   6.310   4.449   7.124 -0.6417 -0.1437 -0.1108
  171THY    HP5 4262   6.262   4.350   7.123  1.4085 -1.3081 -4.2591
  171THY    HP6 4263   6.295   4.508   7.215  0.9057  0.9968 -0.5475
  171THY    HP7 4264   6.270   4.504   7.038 -0.0842 -1.0836 -1.0025
  171THY    CA3 4265   6.474   4.383   6.868  0.1272  0.6922 -0.1239
  171THY    HA3 4266   6.437   4.481   6.840 -0.3319  0.3045 -0.9202
  171THY    CA4 4267   6.520   4.288   6.772 -0.3665 -0.4449  0.4552
  171THY    HA4 4268   6.500   4.312   6.668  3.4553  1.2173 -0.0596
  171THY    CA5 4269   6.557   4.159   6.809 -0.3388 -0.3198 -0.0062
  171THY    CM1 4270   6.577   4.059   6.699  0.0398 -0.6160 -0.0166
  171THY    HM1 4271   6.684   4.041   6.682  0.1716 -0.0104  0.1249
  171THY    HM2 4272   6.539   3.961   6.730  0.5312 -0.2643  1.8140
  171THY    HM3 4273   6.524   4.090   6.608 -0.7616 -4.4179 -0.9910
  171THY    CA6 4274   6.566   4.123   6.938  0.0946  0.2213 -0.6774
  171THY    HA6 4275   6.596   4.021   6.964  3.4180  1.2526 -0.0203
  172THY      O 4276   4.904   4.775   6.943 -0.4476  0.1245  0.0268
  172THY     HO 4277   4.941   4.839   7.007 -0.1017  2.3444 -2.2278
  172THY    CA1 4278   4.999   4.766   6.845  0.2793 -0.4178  0.1535
  172THY    CA2 4279   4.964   4.745   6.716  0.4598  0.0452 -0.2291
  172THY    CP1 4280   4.818   4.732   6.675  1.4243 -0.8206  0.3067
  172THY    HP1 4281   4.761   4.771   6.760 -0.2202 -1.5470 -0.4156
  172THY    CP2 4282   4.784   4.800   6.543 -0.0095  0.5530 -0.6837
  172THY    HP2 4283   4.675   4.804   6.537 -0.0965  0.5637  0.5843
  172THY    HP3 4284   4.820   4.903   6.548  0.7764  0.2821 -0.5668
  172THY    HP4 4285   4.837   4.759   6.456  3.4296  1.7985  0.6676
  172THY    CP3 4286   4.787   4.580   6.676  0.0681  0.1286 -0.3067
  172THY    HP5 4287   4.858   4.529   6.610 -0.4055 -0.6285 -0.2475
  172THY    HP6 4288   4.800   4.534   6.775  1.8104 -0.5156 -0.7936
  172THY    HP7 4289   4.684   4.569   6.640 -1.5064  4.2368  2.1922
  172THY    CA3 4290   5.070   4.747   6.618  0.0371 -0.4736  0.0242
  172THY    HA3 4291   5.051   4.730   6.512  0.2012 -0.3071 -0.0323
  172THY    CA4 4292   5.206   4.771   6.651  0.5818 -0.1422  0.7474
  172THY    HA4 4293   5.289   4.764   6.581  0.7645 -0.6945  1.0085
  172THY    CA5 4294   5.236   4.789   6.789  0.4924 -0.2899  0.4456
  172THY    CM1 4295   5.375   4.805   6.842  0.5047  0.5391  0.1109
  172THY    HM1 4296   5.387   4.758   6.940  1.2580  0.3575 -0.0620
  172THY    HM2 4297   5.441   4.749   6.774 -2.2313  0.0401 -2.3163
  172THY    HM3 4298   5.414   4.907   6.852 -0.9186  0.8749  3.7138
  172THY    CA6 4299   5.136   4.778   6.882  0.2588 -0.4440  0.7981
  172THY    HA6 4300   5.169   4.792   6.985  3.1427  2.0109 -0.3211
  173THY      O 4301   7.252   1.183   4.978  0.3181  0.1053  0.7551
  173THY     HO 4302   7.285   1.114   5.037 -0.7097  0.3135  1.5957
  173THY    CA1 4303   7.340   1.285   4.985  0.7561 -0.7790  0.6962
  173THY    CA2 4304   7.312   1.410   4.921  0.4396  0.0301 -0.8443
  173THY    CP1 4305   7.186   1.419   4.844  0.8822 -0.1565  0.0680
  173THY    HP1 4306   7.149   1.322   4.809 -2.5212  1.1061 -0.2470
  173THY    CP2 4307   7.075   1.465   4.944 -0.7175  0.0907  0.3893
  173THY    HP2 4308   7.108   1.552   5.001  2.2174 -0.6467 -0.0184
  173THY    HP3 4309   6.983   1.487   4.888  0.5612  1.5055 -1.2301
  173THY    HP4 4310   7.051   1.379   5.008  0.1514  0.1097  0.7431
  173THY    CP3 4311   7.186   1.510   4.722 -0.2040 -0.5443 -0.0299
  173THY    HP5 4312   7.283   1.496   4.673 -0.9311  0.1513 -1.7657
  173THY    HP6 4313   7.102   1.492   4.654 -1.6485  2.2161  0.8584
  173THY    HP7 4314   7.179   1.614   4.756  2.1094 -0.1523 -0.5920
  173THY    CA3 4315   7.397   1.515   4.943 -0.0894 -0.4103 -0.5125
  173THY    HA3 4316   7.374   1.613   4.901  1.7549  0.1103 -0.4060
  173THY    CA4 4317   7.509   1.496   5.023  0.0664  0.2793  0.0348
  173THY    HA4 4318   7.571   1.583   5.039 -2.2207  2.4815 -2.1454
  173THY    CA5 4319   7.538   1.366   5.081 -0.3633  0.0060  0.2870
  173THY    CM1 4320   7.661   1.345   5.166  0.0449  0.5528  0.2887
  173THY    HM1 4321   7.647   1.376   5.270 -0.2769  1.2968  0.0321
  173THY    HM2 4322   7.696   1.241   5.172 -0.4491  0.4415  1.5032
  173THY    HM3 4323   7.748   1.402   5.132 -1.0884  2.7641  0.9519
  173THY    CA6 4324   7.452   1.259   5.059  1.0381 -0.2414  1.0483
  173THY    HA6 4325   7.468   1.167   5.115  0.2852 -1.8319 -1.1897
  174THY      O 4326   5.207   0.255   9.331  0.1926  0.6060  0.3509
  174THY     HO 4327   5.279   0.279   9.270  1.4710 -2.1088  0.6674
  174THY    CA1 4328   5.141   0.158   9.257 -1.0643 -0.0289  0.0191
  174THY    CA2 4329   5.040   0.074   9.306  0.2065  0.5974  0.4887
  174THY    CP1 4330   5.017   0.052   9.458 -0.0798  0.0784 -0.0428
  174THY    HP1 4331   5.073   0.131   9.510 -2.4563 -0.0545  2.9870
  174THY    CP2 4332   4.868   0.066   9.487  0.1140  0.5706  0.2718
  174THY    HP2 4333   4.809  -0.009   9.433 -0.7803  1.9073 -0.6580
  174THY    HP3 4334   4.836   0.048   9.590 -1.3269 -0.5258 -0.3398
  174THY    HP4 4335   4.839   0.168   9.461  0.5520  1.2592  2.2920
  174THY    CP3 4336   5.062  -0.091   9.499 -0.3793 -0.0924 -0.4349
  174THY    HP5 4337   5.042  -0.093   9.607 -0.9606  4.4247 -0.2317
  174THY    HP6 4338   5.003  -0.167   9.447  0.5328 -0.4523 -0.9537
  174THY    HP7 4339   5.167  -0.114   9.481  0.1626  0.4915  1.6305
  174THY    CA3 4340   4.968  -0.007   9.212 -0.3975 -0.5135 -0.1443
  174THY    HA3 4341   4.887  -0.073   9.240  1.1465 -3.0079 -1.1916
  174THY    CA4 4342   5.000  -0.001   9.071 -0.0004 -0.6037  0.5086
  174THY    HA4 4343   4.940  -0.056   8.999  2.0231 -0.2387 -1.5631
  174THY    CA5 4344   5.108   0.081   9.026  0.6987 -0.0234  0.6568
  174THY    CM1 4345   5.150   0.079   8.876  0.2101 -0.4134 -0.1326
  174THY    HM1 4346   5.233   0.149   8.862  0.6722 -0.7766  0.7182
  174THY    HM2 4347   5.191  -0.015   8.838  0.8471  0.7259 -2.4121
  174THY    HM3 4348   5.066   0.111   8.813  0.3351  1.6634  0.6742
  174THY    CA6 4349   5.174   0.156   9.121  0.0493  0.7534  1.0487
  174THY    HA6 4350   5.256   0.214   9.080  0.5998 -1.8798 -1.9210
  175THY      O 4351   2.382   2.537   8.596  0.0550  0.0241 -0.7254
  175THY     HO 4352   2.387   2.455   8.545 -0.1421  0.7898 -2.0215
  175THY    CA1 4353   2.503   2.563   8.650  0.0082 -0.3600  0.9476
  175THY    CA2 4354   2.539   2.692   8.688  0.8546  0.2805 -0.0368
  175THY    CP1 4355   2.436   2.805   8.662 -0.2538 -0.4834 -0.0598
  175THY    HP1 4356   2.337   2.767   8.631  0.4949 -0.8102 -2.2573
  175THY    CP2 4357   2.431   2.910   8.781  0.3736 -0.1194  0.2652
  175THY    HP2 4358   2.511   2.985   8.775 -1.4169  1.9448  0.7645
  175THY    HP3 4359   2.336   2.964   8.777 -1.5180 -3.2019  0.1133
  175THY    HP4 4360   2.440   2.855   8.875 -0.1512 -0.4925  0.0998
  175THY    CP3 4361   2.474   2.899   8.545 -0.4365  0.1380  0.3059
  175THY    HP5 4362   2.457   2.856   8.446  1.8957  1.1982 -0.6260
  175THY    HP6 4363   2.413   2.989   8.532 -0.9237  0.1129  2.0869
  175THY    HP7 4364   2.581   2.926   8.542 -0.5041  0.3306 -1.7677
  175THY    CA3 4365   2.663   2.707   8.759  0.1338  0.0228  0.1284
  175THY    HA3 4366   2.701   2.804   8.791  2.4858 -0.4662 -0.9749
  175THY    CA4 4367   2.750   2.596   8.768 -0.3517  0.3690  0.4162
  175THY    HA4 4368   2.854   2.615   8.793 -0.1513  1.8203 -1.3641
  175THY    CA5 4369   2.716   2.472   8.716 -0.0476 -0.1994 -0.0999
  175THY    CM1 4370   2.824   2.362   8.709 -1.0043 -0.1173  0.5889
  175THY    HM1 4371   2.841   2.332   8.813  1.5959  0.6964  0.4588
  175THY    HM2 4372   2.790   2.291   8.632 -3.0548  1.3142  0.0904
  175THY    HM3 4373   2.922   2.403   8.683 -0.5847  0.5447  2.9665
  175THY    CA6 4374   2.589   2.449   8.659  0.0720  0.0729 -0.6384
  175THY    HA6 4375   2.557   2.354   8.618 -0.7865  0.1315 -0.1267
  176THY      O 4376   3.799   5.167   7.192  0.4584 -0.2833  0.1374
  176THY     HO 4377   3.726   5.118   7.150 -0.3492 -0.4107  1.6125
  176THY    CA1 4378   3.912   5.159   7.125 -0.5097 -0.4957 -0.8116
  176THY    CA2 4379   4.022   5.229   7.165 -0.3168 -0.7214  0.0729
  176THY    CP1 4380   4.011   5.334   7.271 -0.2594 -0.3654 -0.6861
  176THY    HP1 4381   3.913   5.330   7.320  0.8314 -1.7656  1.5175
  176THY    CP2 4382   4.101   5.299   7.392  0.8980  0.2710 -0.5265
  176THY    HP2 4383   4.097   5.192   7.417  0.9319  0.3299 -0.2686
  176THY    HP3 4384   4.209   5.318   7.389  0.7069  1.6622  0.3999
  176THY    HP4 4385   4.054   5.341   7.482 -0.4329 -1.6324 -0.2602
  176THY    CP3 4386   4.038   5.480   7.220 -0.2066 -0.7954 -0.0180
  176THY    HP5 4387   4.141   5.496   7.186 -0.0240 -1.7392  0.0590
  176THY    HP6 4388   3.967   5.487   7.136  0.0545  0.8070 -0.1488
  176THY    HP7 4389   3.997   5.554   7.289  1.3066  0.5222 -0.4615
  176THY    CA3 4390   4.138   5.219   7.096  0.4272 -0.3339  0.3717
  176THY    HA3 4391   4.224   5.278   7.127  1.6643 -1.3479 -0.9892
  176THY    CA4 4392   4.143   5.136   6.986  0.0107  0.2038 -0.5631
  176THY    HA4 4393   4.237   5.133   6.930  0.5204 -2.2990  0.2929
  176THY    CA5 4394   4.036   5.062   6.952 -0.2056  0.5423  0.9978
  176THY    CM1 4395   4.049   4.989   6.818  0.2807  0.2687  0.1805
  176THY    HM1 4396   4.128   5.028   6.752 -1.0856  1.7238 -0.6721
  176THY    HM2 4397   4.070   4.884   6.838 -0.4715  0.3912  1.7423
  176THY    HM3 4398   3.951   4.993   6.768  1.1108  1.7812 -1.4400
  176THY    CA6 4399   3.915   5.078   7.014 -0.0038 -0.0076 -0.4444
  176THY    HA6 4400   3.827   5.022   6.985  0.0876  0.2741 -1.2948
  177THY      O 4401   2.231   4.763   2.293  0.6629 -0.3504 -0.1936
  177THY     HO 4402   2.204   4.693   2.232  0.7069 -0.8493  0.3571
  177THY    CA1 4403   2.296   4.714   2.398 -0.7859  0.4393  0.5921
  177THY    CA2 4404   2.394   4.788   2.462  0.1720  0.0014 -0.0194
  177THY    CP1 4405   2.417   4.942   2.450  0.1936 -0.6371  0.1428
  177THY    HP1 4406   2.358   4.987   2.369  0.0438  1.3772  1.3021
  177THY    CP2 4407   2.366   5.032   2.562 -1.1832 -0.1923 -0.0025
  177THY    HP2 4408   2.405   5.005   2.661 -0.8572 -2.1829 -0.6275
  177THY    HP3 4409   2.388   5.137   2.540  0.5972 -0.7685 -1.2135
  177THY    HP4 4410   2.259   5.020   2.583 -0.4874 -3.7727  2.4549
  177THY    CP3 4411   2.571   4.976   2.428  0.3879 -0.4733 -0.2674
  177THY    HP5 4412   2.618   4.903   2.361 -0.3521 -1.1369 -0.0758
  177THY    HP6 4413   2.585   5.078   2.390  0.6269 -0.6119 -0.5497
  177THY    HP7 4414   2.629   4.968   2.521  0.8368  0.9214 -0.4029
  177THY    CA3 4415   2.466   4.723   2.564 -0.4813  0.7870  0.5510
  177THY    HA3 4416   2.547   4.777   2.614  2.3271 -2.8832  0.3537
  177THY    CA4 4417   2.430   4.587   2.603 -0.5512 -0.3379  0.1940
  177THY    HA4 4418   2.468   4.540   2.693 -2.7827  2.2706  2.7105
  177THY    CA5 4419   2.337   4.520   2.527  0.1513 -0.0841  0.1064
  177THY    CM1 4420   2.286   4.383   2.570 -0.1062  0.3116 -0.4524
  177THY    HM1 4421   2.223   4.343   2.489 -0.3239  0.4889 -0.3736
  177THY    HM2 4422   2.368   4.313   2.592  2.1913  1.9414 -3.1878
  177THY    HM3 4423   2.216   4.392   2.654 -0.8143  1.8819 -1.1697
  177THY    CA6 4424   2.270   4.583   2.427  0.0450  0.1587 -0.2353
  177THY    HA6 4425   2.187   4.537   2.374 -0.6618  0.4504  0.5946
  178THY      O 4426   2.719   5.961   5.434  0.0563 -0.1598  0.1006
  178THY     HO 4427   2.653   5.969   5.363 -1.2361 -0.1234  1.2517
  178THY    CA1 4428   2.644   5.949   5.547 -0.8898 -0.8117 -0.2508
  178THY    CA2 4429   2.713   5.967   5.666 -0.3189  0.9451 -0.0930
  178THY    CP1 4430   2.865   5.980   5.664  0.2895 -0.5398  0.9184
  178THY    HP1 4431   2.902   5.995   5.561 -0.9208 -0.2093  0.5187
  178THY    CP2 4432   2.909   6.106   5.747  0.2681  0.0233 -0.0818
  178THY    HP2 4433   2.849   6.195   5.725 -1.7273 -1.0485  0.6993
  178THY    HP3 4434   2.908   6.077   5.853  1.0642  1.4202  0.3316
  178THY    HP4 4435   3.013   6.131   5.725  0.5138  0.3339  1.3296
  178THY    CP3 4436   2.940   5.855   5.713  0.4210  0.2067 -0.4298
  178THY    HP5 4437   3.044   5.870   5.744  0.2796 -0.6321  0.4832
  178THY    HP6 4438   2.894   5.820   5.806  0.1231 -2.4156 -1.4703
  178THY    HP7 4439   2.932   5.771   5.643  0.9127  0.3049 -0.6013
  178THY    CA3 4440   2.640   5.948   5.783  0.1559 -0.5078  0.0545
  178THY    HA3 4441   2.690   5.952   5.879 -1.7815 -2.5302  1.2505
  178THY    CA4 4442   2.500   5.931   5.771  0.1173 -0.3119  0.0933
  178THY    HA4 4443   2.448   5.932   5.866  0.9855  0.3685  0.5749
  178THY    CA5 4444   2.432   5.926   5.650 -0.0300 -0.5380  0.3595
  178THY    CM1 4445   2.283   5.931   5.646 -0.4633 -0.4493 -0.2273
  178THY    HM1 4446   2.243   5.900   5.743  0.4566  0.1061  0.3461
  178THY    HM2 4447   2.251   6.030   5.611  1.1778 -0.5868 -2.3235
  178THY    HM3 4448   2.246   5.865   5.567 -0.9686  0.8088 -1.0862
  178THY    CA6 4449   2.507   5.935   5.535  0.1530 -1.2237  0.1883
  178THY    HA6 4450   2.461   5.927   5.437 -0.9368 -1.2249  0.6783
  179THY      O 4451   2.953   9.004   0.011  0.0920 -0.2841 -0.3974
  179THY     HO 4452   2.996   8.994   0.098  2.5773 -0.7184 -1.5999
  179THY    CA1 4453   2.822   8.983   0.047  0.3084 -0.0114 -0.1459
  179THY    CA2 4454   2.728   8.923  -0.048 -0.0331 -0.4436  0.1789
  179THY    CP1 4455   2.790   8.855  -0.179 -0.4635  0.0926 -0.6531
  179THY    HP1 4456   2.889   8.896  -0.201  0.7785 -0.7577  2.7153
  179THY    CP2 4457   2.797   8.698  -0.159 -0.3368  1.2138 -0.7854
  179THY    HP2 4458   2.696   8.660  -0.142  0.0118  0.1751 -1.0062
  179THY    HP3 4459   2.852   8.640  -0.234 -1.0254 -1.2057  0.4813
  179THY    HP4 4460   2.853   8.674  -0.068 -2.4485  0.3491  0.3672
  179THY    CP3 4461   2.713   8.900  -0.297 -0.0674 -0.2149  0.4388
  179THY    HP5 4462   2.678   9.002  -0.278  0.8974  0.5855 -1.7663
  179THY    HP6 4463   2.784   8.907  -0.380  1.0613  1.2925  1.4695
  179THY    HP7 4464   2.637   8.830  -0.334  2.0199 -1.1783 -2.3851
  179THY    CA3 4465   2.600   8.894   0.002 -0.2837  0.6016 -1.1738
  179THY    HA3 4466   2.539   8.817  -0.045 -0.8139 -0.6770  1.4145
  179THY    CA4 4467   2.563   8.941   0.131 -0.4302 -0.6762 -0.4042
  179THY    HA4 4468   2.459   8.939   0.159 -0.2518  1.1905  0.5364
  179THY    CA5 4469   2.650   9.009   0.210 -0.2714 -0.2936 -0.1491
  179THY    CM1 4470   2.611   9.082   0.336  0.4481  0.5100 -0.6060
  179THY    HM1 4471   2.687   9.153   0.370  0.7503  0.5033 -1.2495
  179THY    HM2 4472   2.518   9.134   0.310  0.8055  0.6297 -1.6912
  179THY    HM3 4473   2.593   9.000   0.406 -0.5455  0.1303 -1.2872
  179THY    CA6 4474   2.781   9.025   0.176 -0.0043  0.0185  0.2199
  179THY    HA6 4475   2.843   9.070   0.254 -1.7535  1.5491  0.8024
  180THY      O 4476   2.143   2.772   8.448  0.1277  0.3929 -0.4227
  180THY     HO 4477   2.111   2.701   8.507  3.3128 -0.1630  0.8451
  180THY    CA1 4478   2.123   2.889   8.505  0.0625  0.1878  0.8498
  180THY    CA2 4479   2.120   3.008   8.428  0.1352 -0.2014  0.5371
  180THY    CP1 4480   2.169   3.009   8.289  0.4308  0.0210  0.3280
  180THY    HP1 4481   2.245   2.933   8.268  1.5552  2.2187 -5.1323
  180THY    CP2 4482   2.051   2.975   8.197 -0.1365  0.1230 -0.1875
  180THY    HP2 4483   2.008   2.877   8.222  0.5909 -0.5789 -1.5770
  180THY    HP3 4484   1.969   3.045   8.220 -0.5618 -1.0344  2.1325
  180THY    HP4 4485   2.081   2.979   8.092  0.4044  0.6424 -0.0169
  180THY    CP3 4486   2.225   3.143   8.240  0.6182  0.2549  0.1933
  180THY    HP5 4487   2.325   3.164   8.281  0.4684  1.3840 -0.0122
  180THY    HP6 4488   2.233   3.130   8.131  1.3854  0.6951  0.1872
  180THY    HP7 4489   2.165   3.232   8.259  2.0192  1.2448  0.1017
  180THY    CA3 4490   2.078   3.129   8.492 -1.1720  0.5587  0.3846
  180THY    HA3 4491   2.078   3.225   8.441 -2.7721  1.4430  1.9778
  180THY    CA4 4492   2.054   3.127   8.624 -0.5696 -0.1307 -1.2352
  180THY    HA4 4493   2.020   3.214   8.679 -1.1847 -1.6590  0.9868
  180THY    CA5 4494   2.055   3.011   8.701 -1.0370  0.3086 -0.3096
  180THY    CM1 4495   2.024   3.010   8.850 -0.2129 -0.1301 -0.1282
  180THY    HM1 4496   2.055   2.920   8.905  0.9134  0.8134  0.8221
  180THY    HM2 4497   2.086   3.085   8.901 -0.2394 -0.5534  0.5307
  180THY    HM3 4498   1.920   3.042   8.854  0.1113  1.0368 -0.7593
  180THY    CA6 4499   2.087   2.892   8.639  0.4092 -0.3581  0.1066
  180THY    HA6 4500   2.093   2.798   8.693  0.3977 -1.0978 -1.1312
  181THY      O 4501   6.107   8.715   6.568  0.6785 -0.6350 -0.0745
  181THY     HO 4502   6.062   8.630   6.578 -0.0730 -0.0650  1.9126
  181THY    CA1 4503   6.117   8.775   6.690  0.7381 -0.4698  0.0560
  181THY    CA2 4504   6.186   8.900   6.706  0.2762  1.0498  0.0663
  181THY    CP1 4505   6.265   8.967   6.590 -0.0504 -0.1891 -0.2428
  181THY    HP1 4506   6.305   8.883   6.532 -0.1313 -0.8813  0.7014
  181THY    CP2 4507   6.171   9.039   6.490 -0.6423  0.0975  0.6007
  181THY    HP2 4508   6.086   8.978   6.458  0.0223 -0.4849 -0.0733
  181THY    HP3 4509   6.137   9.135   6.532 -2.3977  0.7285 -2.0375
  181THY    HP4 4510   6.228   9.057   6.398  1.0526 -2.3532  1.0776
  181THY    CP3 4511   6.382   9.056   6.635 -0.0292  0.3347 -0.7901
  181THY    HP5 4512   6.437   9.088   6.545  1.0132  1.4088  0.2034
  181THY    HP6 4513   6.361   9.153   6.682  1.0576 -0.5841  1.7717
  181THY    HP7 4514   6.452   8.995   6.692 -0.5027  0.9592  0.4845
  181THY    CA3 4515   6.196   8.946   6.840 -0.8206 -0.3356 -0.1443
  181THY    HA3 4516   6.249   9.038   6.862 -1.7481  0.8074 -2.2705
  181THY    CA4 4517   6.120   8.890   6.937 -0.7295  0.4178  0.0307
  181THY    HA4 4518   6.123   8.936   7.035  3.1483  0.4403  0.0712
  181THY    CA5 4519   6.046   8.771   6.922 -0.2211  0.4173  0.0922
  181THY    CM1 4520   5.982   8.695   7.034  0.2037 -0.0523 -0.2606
  181THY    HM1 4521   6.050   8.629   7.090 -0.8750 -1.8032 -0.9347
  181THY    HM2 4522   5.939   8.766   7.106 -1.2726  1.4911 -2.5323
  181THY    HM3 4523   5.889   8.645   7.007  0.4189  0.4846 -2.1467
  181THY    CA6 4524   6.044   8.713   6.796  0.0493 -0.3042  0.3111
  181THY    HA6 4525   5.993   8.619   6.779  1.3970 -1.4826  2.3823
  182THY      O 4526   4.122   6.128   0.176 -0.5116 -0.4843 -0.2935
  182THY     HO 4527   4.111   6.188   0.251 -2.7287 -4.1477  2.6727
  182THY    CA1 4528   3.994   6.093   0.140  0.2469  0.2330 -0.1899
  182THY    CA2 4529   3.961   5.995   0.036 -0.5902 -0.0971 -0.4101
  182THY    CP1 4530   4.078   5.919  -0.033 -0.4672  0.5216  0.9597
  182THY    HP1 4531   4.147   5.994  -0.072  0.3228 -1.6535 -2.2288
  182THY    CP2 4532   4.148   5.827   0.067 -0.0576 -0.4809 -0.1226
  182THY    HP2 4533   4.231   5.781   0.011  0.8195  1.1663 -0.2492
  182THY    HP3 4534   4.192   5.881   0.152  0.2458 -1.4066  0.3137
  182THY    HP4 4535   4.089   5.742   0.102 -0.5452  0.3553  1.1365
  182THY    CP3 4536   4.042   5.844  -0.162 -0.1018 -0.0770  1.0123
  182THY    HP5 4537   3.970   5.762  -0.149  2.2050 -2.3112  0.6466
  182THY    HP6 4538   3.989   5.913  -0.228  1.1521 -0.4098 -0.3942
  182THY    HP7 4539   4.134   5.802  -0.204 -0.2885  1.2705 -0.8508
  182THY    CA3 4540   3.823   5.991   0.000 -0.3670 -0.4934  0.2331
  182THY    HA3 4541   3.795   5.919  -0.076  0.8088 -2.6563  1.7459
  182THY    CA4 4542   3.725   6.056   0.081  0.2011  0.0914  0.5837
  182THY    HA4 4543   3.619   6.054   0.057  0.7421  0.8838 -2.2008
  182THY    CA5 4544   3.764   6.134   0.188 -0.2011 -0.6569 -0.2683
  182THY    CM1 4545   3.655   6.211   0.257  0.0255 -0.3071  0.2634
  182THY    HM1 4546   3.690   6.296   0.315  1.2796 -1.1708  0.8215
  182THY    HM2 4547   3.586   6.244   0.179 -0.8703 -1.2391  0.6404
  182THY    HM3 4548   3.595   6.149   0.325 -3.3896  2.0078 -0.3649
  182THY    CA6 4549   3.896   6.155   0.215  0.5900  0.0571 -0.2914
  182THY    HA6 4550   3.906   6.233   0.290 -1.3489  0.0434  0.0479
  183THY      O 4551   5.063   6.854   4.982  0.0900  0.3925 -0.2669
  183THY     HO 4552   5.114   6.775   4.957 -0.6374  0.4518 -2.1740
  183THY    CA1 4553   5.016   6.898   4.869 -0.8958  0.2894  0.3358
  183THY    CA2 4554   5.016   7.036   4.836 -0.4170  0.7598 -0.4542
  183THY    CP1 4555   5.079   7.134   4.935 -0.4155 -0.3138  0.1900
  183THY    HP1 4556   5.064   7.113   5.042  1.3002  0.1783  0.5589
  183THY    CP2 4557   5.232   7.124   4.920 -0.0856  0.2069 -0.2097
  183THY    HP2 4558   5.287   7.175   5.001 -0.8237 -0.6764  0.8860
  183THY    HP3 4559   5.270   7.021   4.913  3.2245  1.3848 -1.6308
  183THY    HP4 4560   5.261   7.167   4.824  0.3574  0.3555 -0.0149
  183THY    CP3 4561   5.025   7.279   4.919 -0.6399  0.1464  0.0028
  183THY    HP5 4562   4.916   7.291   4.920 -0.6524  0.0109  0.4150
  183THY    HP6 4563   5.064   7.348   4.994  0.4998  2.1225 -2.2571
  183THY    HP7 4564   5.048   7.329   4.824  1.2682 -0.3287  0.1779
  183THY    CA3 4565   4.982   7.068   4.702  0.5666  0.2096 -0.4630
  183THY    HA3 4566   4.982   7.171   4.668 -1.7937  0.5070  0.2651
  183THY    CA4 4567   4.942   6.963   4.607  0.1296 -0.3694 -0.4607
  183THY    HA4 4568   4.933   6.987   4.502 -0.8099  3.3019  0.3363
  183THY    CA5 4569   4.947   6.832   4.646 -0.4270  0.1400  0.1739
  183THY    CM1 4570   4.910   6.719   4.556  0.4613  0.2788  0.6701
  183THY    HM1 4571   4.997   6.652   4.555  0.4813  0.3085 -0.3064
  183THY    HM2 4572   4.826   6.663   4.598 -0.3457  0.4990 -0.6215
  183THY    HM3 4573   4.893   6.746   4.451  2.1362 -0.7201  0.0961
  183THY    CA6 4574   4.980   6.806   4.776 -0.0798  0.3363 -0.1549
  183THY    HA6 4575   4.989   6.702   4.804 -1.6215  0.4913  1.0137
  184THY      O 4576   4.832   3.583   7.518  0.0923 -0.6716  0.0876
  184THY     HO 4577   4.769   3.527   7.567 -1.3415  1.0039  0.2928
  184THY    CA1 4578   4.761   3.695   7.479  0.2703 -0.4101  0.6407
  184THY    CA2 4579   4.822   3.817   7.438 -0.0494  0.1135  0.4770
  184THY    CP1 4580   4.969   3.847   7.468  0.0065 -0.0518 -0.5691
  184THY    HP1 4581   5.023   3.764   7.514 -0.3187  0.4776  0.8531
  184THY    CP2 4582   5.050   3.891   7.338  0.2823  0.3235 -0.2251
  184THY    HP2 4583   5.152   3.917   7.366  0.5651 -1.9956  1.2094
  184THY    HP3 4584   5.070   3.801   7.279  2.0535 -0.1384  0.9979
  184THY    HP4 4585   4.987   3.952   7.272 -2.3678 -2.7919 -0.8713
  184THY    CP3 4586   4.982   3.958   7.583  0.1354  0.1098  0.0469
  184THY    HP5 4587   5.086   3.993   7.588 -0.2480  1.5074 -1.1024
  184THY    HP6 4588   4.911   4.035   7.549  1.4880  0.8500 -1.2378
  184THY    HP7 4589   4.958   3.914   7.681  3.0977  0.1777  0.9163
  184THY    CA3 4590   4.740   3.927   7.396  0.3259  0.7510  0.2426
  184THY    HA3 4591   4.781   4.026   7.381 -2.4105  2.2146  1.7881
  184THY    CA4 4592   4.602   3.911   7.379 -0.5409  0.6112 -0.7098
  184THY    HA4 4593   4.541   3.997   7.354 -1.0933  0.7456  0.9211
  184THY    CA5 4594   4.544   3.791   7.431  0.3194 -0.2047  0.3754
  184THY    CM1 4595   4.389   3.763   7.410 -0.3253 -0.7916 -0.2151
  184THY    HM1 4596   4.348   3.705   7.494 -1.2087 -0.2157 -0.2367
  184THY    HM2 4597   4.324   3.849   7.392 -1.3653 -1.7910 -1.4029
  184THY    HM3 4598   4.377   3.692   7.328  0.2079 -1.3231  0.1523
  184THY    CA6 4599   4.624   3.686   7.476 -0.0650 -0.0708 -0.2247
  184THY    HA6 4600   4.583   3.588   7.500  2.1595 -0.9040  0.4499
  185THY      O 4601   0.479   6.263   1.996 -0.7348  0.2778  0.1901
  185THY     HO 4602   0.428   6.194   2.040 -0.8708  0.1994 -0.0860
  185THY    CA1 4603   0.503   6.373   2.077 -0.1998 -0.4731  0.8518
  185THY    CA2 4604   0.581   6.486   2.031 -0.5381  0.8616  0.2430
  185THY    CP1 4605   0.655   6.474   1.897 -0.4736 -0.1729 -0.5306
  185THY    HP1 4606   0.655   6.375   1.851 -1.1039 -0.2306 -0.4138
  185THY    CP2 4607   0.581   6.567   1.796  0.1654 -0.4677  0.8146
  185THY    HP2 4608   0.475   6.539   1.797 -0.2244  0.9186  0.3894
  185THY    HP3 4609   0.584   6.674   1.820 -2.3193 -0.2090  0.2425
  185THY    HP4 4610   0.616   6.557   1.693  0.1886  2.2138  0.4941
  185THY    CP3 4611   0.800   6.512   1.900  0.1472  0.5592  1.6373
  185THY    HP5 4612   0.807   6.619   1.924 -1.4209  0.9379  0.6227
  185THY    HP6 4613   0.855   6.453   1.973  0.5691  0.4599  1.2461
  185THY    HP7 4614   0.843   6.496   1.800 -0.2947 -1.4040  1.7391
  185THY    CA3 4615   0.590   6.595   2.110 -0.7369 -0.0638 -0.2833
  185THY    HA3 4616   0.657   6.675   2.080 -2.8315  2.1687  0.6570
  185THY    CA4 4617   0.545   6.588   2.244  0.8108  0.7388  0.2047
  185THY    HA4 4618   0.572   6.670   2.311  1.1813 -0.6786  1.8442
  185THY    CA5 4619   0.470   6.474   2.288  0.3400 -0.5177 -0.1078
  185THY    CM1 4620   0.419   6.481   2.428 -1.1275  1.2234 -0.2149
  185THY    HM1 4621   0.487   6.432   2.499  0.6980 -0.7446 -3.1056
  185THY    HM2 4622   0.390   6.585   2.449 -1.8578  0.5778  2.2896
  185THY    HM3 4623   0.327   6.421   2.431 -0.3992 -0.0378 -1.8342
  185THY    CA6 4624   0.454   6.367   2.205  0.0838 -0.0299 -0.0524
  185THY    HA6 4625   0.397   6.281   2.238  1.0170 -0.2151  1.1479
  186THY      O 4626   6.442   6.890   9.533  0.5563 -0.1270 -0.1631
  186THY     HO 4627   6.406   6.915   9.446  0.1402 -0.1834 -0.0057
  186THY    CA1 4628   6.375   6.969   9.608 -0.3278  0.7958 -0.7490
  186THY    CA2 4629   6.310   6.925   9.723  0.1457  0.3359 -0.2312
  186THY    CP1 4630   6.320   6.772   9.760 -0.3099  0.5632 -1.0759
  186THY    HP1 4631   6.365   6.699   9.692  0.6420 -1.1351  1.2513
  186THY    CP2 4632   6.398   6.772   9.888  0.4298 -0.5532 -0.2292
  186THY    HP2 4633   6.334   6.820   9.962  2.3800  1.6122  0.1889
  186THY    HP3 4634   6.422   6.670   9.922 -0.9143 -0.9687 -0.4900
  186THY    HP4 4635   6.491   6.830   9.891  0.3312 -0.3421 -1.0882
  186THY    CP3 4636   6.178   6.718   9.786 -0.0576  0.3750  0.4318
  186THY    HP5 4637   6.175   6.608   9.792  0.1479  0.1916 -2.0174
  186THY    HP6 4638   6.129   6.761   9.874  0.2515  0.7645  0.4109
  186THY    HP7 4639   6.114   6.739   9.700 -1.0094  1.0632  1.2809
  186THY    CA3 4640   6.239   7.011   9.801 -0.6957  0.0401 -0.2533
  186THY    HA3 4641   6.203   6.994   9.902 -1.8990  1.5907 -0.3839
  186THY    CA4 4642   6.237   7.144   9.768 -0.4285  0.5269 -0.5369
  186THY    HA4 4643   6.201   7.210   9.846 -2.8917 -2.0671  0.7060
  186THY    CA5 4644   6.299   7.192   9.651 -0.5597  0.2593 -0.7820
  186THY    CM1 4645   6.296   7.342   9.627 -0.0144 -0.7213  0.1928
  186THY    HM1 4646   6.286   7.390   9.725 -2.6826  1.2057 -0.9135
  186THY    HM2 4647   6.389   7.375   9.580  0.4414 -0.2782  1.3568
  186THY    HM3 4648   6.212   7.373   9.564 -0.6798  0.0795  1.4329
  186THY    CA6 4649   6.355   7.099   9.564  0.8679  0.0858  0.1573
  186THY    HA6 4650   6.389   7.134   9.467  1.7998  2.6927  1.3193
  187THY      O 4651   6.820   9.439   0.977  0.0223  0.1082 -0.1769
  187THY     HO 4652   6.813   9.497   1.055 -0.8333  0.9735 -0.8827
  187THY    CA1 4653   6.743   9.330   1.011 -0.0601  0.0663 -0.0975
  187THY    CA2 4654   6.774   9.198   0.970  0.5351  0.7313  0.2162
  187THY    CP1 4655   6.899   9.161   0.887 -0.7678  0.4602  0.2590
  187THY    HP1 4656   6.951   9.252   0.856  1.2365 -0.0745  1.8473
  187THY    CP2 4657   6.997   9.075   0.970 -0.3433 -0.3006  0.6158
  187THY    HP2 4658   7.072   9.037   0.899 -0.8475  0.0251 -0.1051
  187THY    HP3 4659   7.034   9.136   1.052 -0.0376  0.5683 -0.1531
  187THY    HP4 4660   6.952   8.981   1.003  2.1968 -1.9236 -0.2688
  187THY    CP3 4661   6.864   9.076   0.759  0.1415  0.6325  0.3868
  187THY    HP5 4662   6.807   8.986   0.783 -0.9279  0.9866 -0.7494
  187THY    HP6 4663   6.810   9.141   0.690 -0.6364  0.0091  0.4053
  187THY    HP7 4664   6.952   9.054   0.696 -0.5818  1.7530 -1.0804
  187THY    CA3 4665   6.683   9.097   1.006  0.2614  0.3069 -0.1466
  187THY    HA3 4666   6.709   8.997   0.975  3.3948  1.2317 -0.7728
  187THY    CA4 4667   6.568   9.130   1.085 -0.0483  0.4936 -0.4466
  187THY    HA4 4668   6.493   9.054   1.103 -0.9411  1.0968 -1.5185
  187THY    CA5 4669   6.544   9.257   1.129 -0.4027 -0.2044 -1.3676
  187THY    CM1 4670   6.425   9.293   1.217 -0.5470  0.6046 -0.1409
  187THY    HM1 4671   6.349   9.216   1.202  0.6981 -0.3545 -1.7814
  187THY    HM2 4672   6.456   9.290   1.322 -3.6349  0.2469  0.8558
  187THY    HM3 4673   6.379   9.388   1.187 -0.5047  0.7711  0.3058
  187THY    CA6 4674   6.633   9.359   1.087 -0.1718 -0.1258  0.1727
  187THY    HA6 4675   6.619   9.463   1.114  1.4515  0.3030 -0.5489
  188THY      O 4676   1.645   5.017   4.280 -0.3897 -0.4539  0.2926
  188THY     HO 4677   1.702   4.943   4.309 -1.3035 -1.4802 -0.4357
  188THY    CA1 4678   1.526   4.969   4.314  0.0692 -0.5974  0.0892
  188THY    CA2 4679   1.410   5.033   4.273  0.2834  0.3733  0.6452
  188THY    CP1 4680   1.415   5.154   4.189  0.2218  0.3691 -0.5175
  188THY    HP1 4681   1.502   5.162   4.123 -0.1945 -1.6722 -1.3923
  188THY    CP2 4682   1.306   5.149   4.077 -0.1744  0.2186 -0.3555
  188THY    HP2 4683   1.206   5.169   4.118 -1.1300  1.5203 -3.0794
  188THY    HP3 4684   1.332   5.228   4.005  0.6048  0.6913  0.4160
  188THY    HP4 4685   1.307   5.049   4.033 -2.9514 -0.8692  1.7774
  188THY    CP3 4686   1.389   5.282   4.268 -0.0728  0.0821 -0.1281
  188THY    HP5 4687   1.463   5.299   4.346 -0.9921  2.8068  0.2603
  188THY    HP6 4688   1.403   5.369   4.203 -2.4285 -0.4158 -1.4212
  188THY    HP7 4689   1.290   5.276   4.315  0.3777 -4.1372  0.6695
  188THY    CA3 4690   1.285   4.988   4.321 -0.2113  0.0603  0.5713
  188THY    HA3 4691   1.196   5.048   4.306  0.2639  0.6504  0.0473
  188THY    CA4 4692   1.291   4.890   4.413  0.4805  0.4406 -0.5002
  188THY    HA4 4693   1.202   4.858   4.466  1.3246  0.4033  0.9484
  188THY    CA5 4694   1.405   4.824   4.456  0.6931 -0.5263  0.0942
  188THY    CM1 4695   1.398   4.720   4.561 -1.0155  0.4510 -0.0047
  188THY    HM1 4696   1.396   4.621   4.513  3.1065  1.3046 -2.4070
  188THY    HM2 4697   1.479   4.728   4.635 -0.5345 -0.5519 -0.3983
  188THY    HM3 4698   1.309   4.730   4.624  0.6953  2.0030  2.3457
  188THY    CA6 4699   1.521   4.859   4.399 -0.1053 -0.0236 -0.5801
  188THY    HA6 4700   1.612   4.814   4.435 -0.6696  1.8901  3.9486
  189THY      O 4701   9.380   3.335   3.493  0.1580  0.0779  0.3473
  189THY     HO 4702   9.324   3.326   3.572 -1.0672 -0.0189 -0.4935
  189THY    CA1 4703   9.292   3.324   3.390 -0.1983  0.4021 -0.7519
  189THY    CA2 4704   9.342   3.278   3.265  0.0853  0.5380 -0.0512
  189THY    CP1 4705   9.499   3.248   3.248 -0.4412 -0.5129  0.3410
  189THY    HP1 4706   9.536   3.200   3.339  2.1006 -0.2247 -0.4577
  189THY    CP2 4707   9.527   3.143   3.133  0.2276 -0.3569 -0.7125
  189THY    HP2 4708   9.505   3.198   3.040 -1.4571  2.0499  0.9704
  189THY    HP3 4709   9.635   3.126   3.133  0.5745  1.5928  0.0688
  189THY    HP4 4710   9.468   3.051   3.130 -0.3732  0.0271 -2.2829
  189THY    CP3 4711   9.595   3.376   3.234  0.0806  0.0671 -0.7040
  189THY    HP5 4712   9.699   3.342   3.238  0.1038  0.1220  2.7104
  189THY    HP6 4713   9.566   3.448   3.157 -2.7521 -0.6238 -0.4226
  189THY    HP7 4714   9.590   3.436   3.326  1.2325  1.8710 -1.7751
  189THY    CA3 4715   9.254   3.280   3.153 -0.0116  0.2333  0.2247
  189THY    HA3 4716   9.294   3.252   3.056 -1.3341  0.5322 -0.4266
  189THY    CA4 4717   9.125   3.332   3.170  0.4429 -0.0924 -0.2989
  189THY    HA4 4718   9.058   3.336   3.084 -2.0634  0.8133  1.5614
  189THY    CA5 4719   9.071   3.350   3.298  0.0420 -0.7133  0.0570
  189THY    CM1 4720   8.924   3.376   3.313  0.9506 -0.0029  0.3351
  189THY    HM1 4721   8.864   3.285   3.302 -1.6049  1.7500 -1.3997
  189THY    HM2 4722   8.884   3.425   3.403  0.7512  0.4223  0.0154
  189THY    HM3 4723   8.907   3.451   3.235 -0.1149  1.5908  1.9935
  189THY    CA6 4724   9.154   3.344   3.410  0.6013  1.0562 -0.3360
  189THY    HA6 4725   9.107   3.358   3.507  0.4166 -1.2491 -0.0366
  190THY      O 4726   3.201   6.108   3.025 -0.5055 -0.4239 -0.2793
  190THY     HO 4727   3.170   6.156   2.947 -3.4436 -0.9750  0.4291
  190THY    CA1 4728   3.314   6.176   3.073  0.7683  0.0451  0.2648
  190THY    CA2 4729   3.362   6.154   3.207  0.0708  0.1321  0.4941
  190THY    CP1 4730   3.280   6.066   3.297 -0.0481 -0.3144  0.0220
  190THY    HP1 4731   3.177   6.050   3.262 -0.5870 -0.2706  1.5104
  190THY    CP2 4732   3.345   5.926   3.295  0.3795  0.1959 -0.4790
  190THY    HP2 4733   3.278   5.858   3.348 -0.6493  0.0417 -1.9403
  190THY    HP3 4734   3.366   5.890   3.194  0.1808  0.4884 -0.6271
  190THY    HP4 4735   3.442   5.923   3.346  0.0325  0.3896  0.2108
  190THY    CP3 4736   3.273   6.112   3.449 -0.1394  0.1302  0.2844
  190THY    HP5 4737   3.210   6.038   3.501  3.4896 -1.8245  2.2810
  190THY    HP6 4738   3.375   6.126   3.486  0.6903 -2.4538 -0.7697
  190THY    HP7 4739   3.233   6.213   3.460 -1.4438 -0.4598  1.2641
  190THY    CA3 4740   3.487   6.208   3.235  0.1201 -0.0301  0.0399
  190THY    HA3 4741   3.531   6.185   3.332 -0.7566 -0.3131  0.3790
  190THY    CA4 4742   3.555   6.289   3.142  0.0146  0.2645  0.1146
  190THY    HA4 4743   3.647   6.341   3.163  1.1009 -0.8250 -1.6901
  190THY    CA5 4744   3.490   6.319   3.016  0.1999  0.0714 -0.2925
  190THY    CM1 4745   3.563   6.404   2.915 -0.0531  0.1899 -0.0958
  190THY    HM1 4746   3.502   6.492   2.892 -1.1161 -0.4102  0.3010
  190THY    HM2 4747   3.664   6.423   2.951 -0.2184  1.9617 -0.4891
  190THY    HM3 4748   3.563   6.345   2.822  0.0155 -2.2967  1.3748
  190THY    CA6 4749   3.374   6.260   2.987 -0.9777  0.7461  0.9869
  190THY    HA6 4750   3.348   6.269   2.882 -0.6673  1.5475  0.9723
  191THY      O 4751   0.533   7.867   9.804  0.0703 -0.6386 -0.5043
  191THY     HO 4752   0.561   7.933   9.738 -1.5703 -1.1249 -1.7664
  191THY    CA1 4753   0.394   7.872   9.789 -0.0417 -0.8047  1.4863
  191THY    CA2 4754   0.308   7.816   9.889  0.3019 -0.6032  0.4843
  191THY    CP1 4755   0.364   7.774  10.025  0.3528  0.1566 -0.0381
  191THY    HP1 4756   0.473   7.783  10.030  0.2784  1.2254 -0.1650
  191THY    CP2 4757   0.306   7.852  10.144 -0.1104 -0.2729  0.1523
  191THY    HP2 4758   0.370   7.848  10.233 -1.8574  1.1567  1.5370
  191THY    HP3 4759   0.286   7.959  10.135  0.4492 -0.2291 -0.7028
  191THY    HP4 4760   0.208   7.808  10.168  0.4202 -1.4947  0.1817
  191THY    CP3 4761   0.347   7.624  10.045 -0.1020  0.7168 -0.0350
  191THY    HP5 4762   0.434   7.570  10.006  0.0347  0.5798  0.4476
  191THY    HP6 4763   0.344   7.595  10.151 -2.3543  2.0926  0.3586
  191THY    HP7 4764   0.258   7.581   9.998  1.0344 -0.1321 -1.4450
  191THY    CA3 4765   0.173   7.838   9.865  0.5930  0.5393  0.5833
  191THY    HA3 4766   0.102   7.806   9.940 -0.1988 -1.1879 -0.8343
  191THY    CA4 4767   0.125   7.898   9.747  0.2633 -0.0577  0.4899
  191THY    HA4 4768   0.017   7.910   9.740 -0.0503 -0.9759  2.7054
  191THY    CA5 4769   0.212   7.946   9.647 -0.4310  0.0396  0.1295
  191THY    CM1 4770   0.147   8.024   9.527 -0.2174  0.3777  0.2569
  191THY    HM1 4771   0.217   8.104   9.502 -0.1012 -0.0660 -0.9038
  191THY    HM2 4772   0.115   7.958   9.445 -0.1336 -0.6264  1.0246
  191THY    HM3 4773   0.055   8.071   9.564 -0.8201 -2.7658  3.2746
  191THY    CA6 4774   0.354   7.932   9.670  0.7216 -0.5122 -0.0328
  191THY    HA6 4775   0.416   7.974   9.591 -0.9155 -2.5276 -2.5484
  192THY      O 4776   5.271   6.799   6.529 -0.0787  0.0375 -0.0505
  192THY     HO 4777   5.201   6.862   6.505 -0.7653 -1.0017 -0.8862
  192THY    CA1 4778   5.193   6.682   6.552 -0.5395  0.3829 -0.4920
  192THY    CA2 4779   5.259   6.556   6.564 -0.6548  0.2730 -0.0002
  192THY    CP1 4780   5.414   6.549   6.552 -0.0484 -0.1534  0.5526
  192THY    HP1 4781   5.447   6.638   6.498  0.7473 -0.5087  0.4277
  192THY    CP2 4782   5.481   6.539   6.684  0.2650 -0.9513  0.2658
  192THY    HP2 4783   5.451   6.624   6.745  0.4625 -0.8618  0.2388
  192THY    HP3 4784   5.438   6.459   6.745  0.4754 -1.1010  0.2177
  192THY    HP4 4785   5.590   6.536   6.691  0.2213 -1.7806  0.7045
  192THY    CP3 4786   5.451   6.436   6.459 -0.5494 -0.4192  0.8732
  192THY    HP5 4787   5.434   6.338   6.505  1.9503 -0.9573  0.8065
  192THY    HP6 4788   5.394   6.442   6.365 -2.5031 -1.0015  1.9674
  192THY    HP7 4789   5.556   6.438   6.428 -0.8625  0.3948 -0.2404
  192THY    CA3 4790   5.185   6.438   6.577 -0.0397 -0.0713 -0.3550
  192THY    HA3 4791   5.228   6.340   6.596 -1.6305 -0.4197  1.8061
  192THY    CA4 4792   5.051   6.449   6.571 -0.3175  0.1491  0.1930
  192THY    HA4 4793   4.994   6.356   6.579 -0.4943 -0.3287 -4.2870
  192THY    CA5 4794   4.986   6.569   6.552 -0.0373  0.2143  0.0226
  192THY    CM1 4795   4.833   6.573   6.530 -0.1709 -0.0575  0.6602
  192THY    HM1 4796   4.805   6.505   6.449  1.1985 -0.8917  0.8486
  192THY    HM2 4797   4.772   6.555   6.618 -0.8058  0.6676  0.3815
  192THY    HM3 4798   4.812   6.680   6.512  0.2466 -0.3666 -2.1887
  192THY    CA6 4799   5.057   6.687   6.533  0.3811  0.1372 -0.5318
  192THY    HA6 4800   5.004   6.776   6.499 -3.3217 -1.8252 -0.3817
  193THY      O 4801   2.973   9.812   2.976 -0.2829  0.5552 -0.1498
  193THY     HO 4802   3.000   9.902   3.003  0.2650  0.5071 -0.5484
  193THY    CA1 4803   3.066   9.775   2.889  0.7395  0.9568  0.1425
  193THY    CA2 4804   3.074   9.646   2.840  0.6450 -0.0436  0.3053
  193THY    CP1 4805   2.964   9.544   2.880  0.5548 -0.0833 -0.7011
  193THY    HP1 4806   2.894   9.588   2.952 -0.8377 -0.4116 -1.8126
  193THY    CP2 4807   2.889   9.508   2.743  0.0667  0.3341 -0.4664
  193THY    HP2 4808   2.963   9.462   2.677  1.7991  3.1752 -0.6512
  193THY    HP3 4809   2.802   9.444   2.761  0.7615 -0.2380  1.0181
  193THY    HP4 4810   2.859   9.597   2.687 -1.2579 -0.7371 -1.5282
  193THY    CP3 4811   3.024   9.414   2.950  0.5496 -1.0961 -0.1871
  193THY    HP5 4812   3.112   9.391   2.888 -0.2215  0.5174 -2.0124
  193THY    HP6 4813   3.060   9.429   3.052  0.3195  1.2314 -0.4017
  193THY    HP7 4814   2.950   9.334   2.957  0.6437 -1.1690 -0.0325
  193THY    CA3 4815   3.179   9.612   2.758  0.6360 -0.0455  0.4717
  193THY    HA3 4816   3.177   9.521   2.698  2.3838 -1.5734  2.6004
  193THY    CA4 4817   3.279   9.708   2.729  0.1682 -0.1451 -0.3548
  193THY    HA4 4818   3.359   9.677   2.662 -0.2000 -2.7936  0.3354
  193THY    CA5 4819   3.282   9.830   2.791 -0.2435 -0.4085  0.2527
  193THY    CM1 4820   3.395   9.921   2.766  0.8581 -0.3332 -0.2089
  193THY    HM1 4821   3.390  10.021   2.810  2.6452  0.3492 -1.4488
  193THY    HM2 4822   3.482   9.882   2.819  0.0326 -0.1620  1.3112
  193THY    HM3 4823   3.418   9.927   2.659 -0.9581 -0.0077 -0.6108
  193THY    CA6 4824   3.166   9.868   2.859  0.3772 -0.0418 -0.3220
  193THY    HA6 4825   3.167   9.964   2.910 -1.8234 -1.4729  2.7888
  194THY      O 4826   8.766   3.786   8.442 -0.2509  1.0790 -0.4360
  194THY     HO 4827   8.753   3.815   8.534 -3.0748 -4.4807  1.4069
  194THY    CA1 4828   8.676   3.682   8.426 -0.0796 -0.3237 -0.3184
  194THY    CA2 4829   8.643   3.639   8.297  0.0119  0.6095 -1.4346
  194THY    CP1 4830   8.706   3.711   8.182 -0.1957  0.0430  0.7781
  194THY    HP1 4831   8.793   3.772   8.210 -0.7603  1.6038 -0.6861
  194THY    CP2 4832   8.752   3.602   8.072 -0.6721 -0.0970 -0.0453
  194THY    HP2 4833   8.675   3.527   8.052  0.0203 -0.9498  0.4127
  194THY    HP3 4834   8.793   3.653   7.984 -1.9616  1.5933  0.2600
  194THY    HP4 4835   8.842   3.553   8.110 -1.0263 -3.2473 -2.8724
  194THY    CP3 4836   8.603   3.800   8.119  0.6597  0.5440 -0.4404
  194THY    HP5 4837   8.501   3.769   8.144  0.8861  0.3589  0.2738
  194THY    HP6 4838   8.613   3.899   8.165 -0.1781  1.0120 -1.2264
  194THY    HP7 4839   8.610   3.807   8.010  1.7703 -0.0864 -0.4211
  194THY    CA3 4840   8.541   3.545   8.290 -0.2764  0.3255 -0.3613
  194THY    HA3 4841   8.513   3.502   8.194  2.8902  0.3758 -1.4115
  194THY    CA4 4842   8.495   3.484   8.401  0.0948  0.6198 -0.9110
  194THY    HA4 4843   8.416   3.411   8.388  1.4734 -0.7908 -1.6183
  194THY    CA5 4844   8.537   3.514   8.530 -0.8398  0.2500 -0.2685
  194THY    CM1 4845   8.479   3.441   8.645  0.0589  0.3200  0.2259
  194THY    HM1 4846   8.471   3.511   8.728  0.5819 -0.6993  1.1534
  194THY    HM2 4847   8.379   3.400   8.625  0.4723 -0.6968  0.1460
  194THY    HM3 4848   8.546   3.359   8.672 -0.0403 -0.1198 -0.7946
  194THY    CA6 4849   8.625   3.622   8.547  0.2879 -1.4638  0.1682
  194THY    HA6 4850   8.667   3.663   8.638  0.4121  1.2001 -0.9884
  195THY      O 4851   0.360   1.222   5.761 -1.1670  0.7380  0.5084
  195THY     HO 4852   0.348   1.139   5.712  2.2694  0.4501 -0.1405
  195THY    CA1 4853   0.283   1.321   5.697 -0.2643  0.3333  0.2880
  195THY    CA2 4854   0.328   1.452   5.683  0.0291  0.4375 -0.3632
  195THY    CP1 4855   0.467   1.495   5.725  0.3672  0.5872  0.1384
  195THY    HP1 4856   0.539   1.416   5.749  3.3311  3.5857  1.9605
  195THY    CP2 4857   0.546   1.582   5.622  0.0819  0.0498  0.5609
  195THY    HP2 4858   0.652   1.578   5.649 -0.4142  1.6289  3.0537
  195THY    HP3 4859   0.526   1.539   5.523  0.0013 -1.0879  1.0581
  195THY    HP4 4860   0.524   1.690   5.623  1.2757  0.3085  0.6475
  195THY    CP3 4861   0.454   1.592   5.841 -0.8734 -0.3123 -0.1052
  195THY    HP5 4862   0.547   1.648   5.857 -1.7050  1.0912 -0.1029
  195THY    HP6 4863   0.374   1.666   5.832  0.5453  1.5417  1.6117
  195THY    HP7 4864   0.454   1.532   5.933 -0.2233  0.1793  0.2228
  195THY    CA3 4865   0.248   1.549   5.625  0.5881 -0.0068 -0.0476
  195THY    HA3 4866   0.281   1.652   5.616  3.5318 -0.6840  1.5186
  195THY    CA4 4867   0.119   1.508   5.580 -0.0621  0.0581  0.1096
  195THY    HA4 4868   0.049   1.576   5.535  0.6836  0.1862 -0.8833
  195THY    CA5 4869   0.079   1.374   5.593 -0.0741  0.4848  0.6488
  195THY    CM1 4870  -0.058   1.328   5.534 -0.3912 -0.1053  0.4205
  195THY    HM1 4871  -0.033   1.278   5.439 -0.5045  1.3119 -0.3911
  195THY    HM2 4872  -0.119   1.260   5.594 -2.4826  1.0562 -0.2687
  195THY    HM3 4873  -0.123   1.411   5.504  2.2447  1.4705 -1.3800
  195THY    CA6 4874   0.159   1.275   5.649 -0.1713  0.1325 -0.0563
  195THY    HA6 4875   0.135   1.169   5.639 -0.7801  0.3555 -1.0598
  196THY      O 4876   3.958   9.387   5.596 -0.8437 -0.3330  0.1650
  196THY     HO 4877   3.960   9.297   5.561 -2.2354  0.0397 -0.9719
  196THY    CA1 4878   3.830   9.420   5.603 -0.5489 -0.1813 -0.5520
  196THY    CA2 4879   3.799   9.555   5.619 -0.1074 -0.0208  0.1899
  196THY    CP1 4880   3.900   9.681   5.630  0.0197 -0.6237 -0.2688
  196THY    HP1 4881   3.839   9.770   5.650 -1.6225 -1.4372 -1.4932
  196THY    CP2 4882   3.998   9.672   5.748  0.3346 -0.2735 -0.7271
  196THY    HP2 4883   4.044   9.573   5.741  0.4068 -0.4911  1.7741
  196THY    HP3 4884   4.063   9.759   5.760 -1.2183  0.8168  0.1358
  196THY    HP4 4885   3.942   9.671   5.842  1.4101 -0.3828 -0.0724
  196THY    CP3 4886   3.977   9.715   5.507  0.2331 -0.3105  0.4545
  196THY    HP5 4887   4.061   9.644   5.496  0.4474  0.0551 -0.3325
  196THY    HP6 4888   3.913   9.722   5.418  0.1419 -1.2133  0.4381
  196THY    HP7 4889   4.022   9.813   5.487 -1.8855  0.3420 -1.6034
  196THY    CA3 4890   3.665   9.587   5.609 -0.3138 -0.2834 -0.3709
  196THY    HA3 4891   3.644   9.693   5.600 -1.6261 -0.0952  3.1721
  196THY    CA4 4892   3.565   9.488   5.604  0.4562 -0.1538  0.1069
  196THY    HA4 4893   3.460   9.518   5.599 -0.1198 -1.7913  1.3586
  196THY    CA5 4894   3.595   9.359   5.606  0.2804 -0.0415  0.5399
  196THY    CM1 4895   3.478   9.254   5.599 -0.2280 -0.1314 -0.1305
  196THY    HM1 4896   3.406   9.279   5.520 -1.6123  3.2929  1.9459
  196THY    HM2 4897   3.509   9.151   5.581 -2.1515 -1.1496  1.9037
  196THY    HM3 4898   3.422   9.252   5.693 -0.8061 -0.2517 -0.4712
  196THY    CA6 4899   3.728   9.320   5.597 -0.4382  0.1955 -0.0882
  196THY    HA6 4900   3.742   9.212   5.599 -3.8984 -0.3815 -0.4512
  197THY      O 4901   2.696   8.517   8.122 -0.5021  0.1880 -0.0632
  197THY     HO 4902   2.788   8.524   8.152  0.0499 -0.1503 -1.5780
  197THY    CA1 4903   2.691   8.386   8.076 -0.3526  0.2953  0.5711
  197THY    CA2 4904   2.591   8.339   7.984 -0.1304  0.1144  0.3202
  197THY    CP1 4905   2.484   8.440   7.944  0.6046 -0.7470 -0.4580
  197THY    HP1 4906   2.523   8.542   7.944  1.4871 -1.0001  2.0044
  197THY    CP2 4907   2.422   8.420   7.800  0.8088 -0.0023 -0.0121
  197THY    HP2 4908   2.502   8.414   7.726  2.3864 -0.0475  1.6359
  197THY    HP3 4909   2.370   8.323   7.797 -0.4812  0.6847 -0.9179
  197THY    HP4 4910   2.349   8.497   7.771 -1.4736 -2.4365 -1.1846
  197THY    CP3 4911   2.362   8.430   8.036  0.1916  0.0107 -0.1729
  197THY    HP5 4912   2.333   8.326   8.053  0.6481  0.2535  2.6920
  197THY    HP6 4913   2.399   8.478   8.127 -0.7739 -1.1928  0.8925
  197THY    HP7 4914   2.275   8.481   7.993  1.1499  0.8444 -1.1744
  197THY    CA3 4915   2.595   8.211   7.932 -0.4960  0.4924 -0.2711
  197THY    HA3 4916   2.516   8.167   7.872  0.6297  0.7604 -2.0121
  197THY    CA4 4917   2.692   8.125   7.980  0.0853  0.0173 -0.4862
  197THY    HA4 4918   2.695   8.021   7.947 -1.8076 -0.1988 -0.0832
  197THY    CA5 4919   2.798   8.169   8.063  0.2026 -0.6095  0.3885
  197THY    CM1 4920   2.915   8.080   8.101  0.7141  0.0217 -0.5339
  197THY    HM1 4921   2.939   8.017   8.014  1.2114 -0.8808  0.2283
  197THY    HM2 4922   3.008   8.132   8.125  2.0077 -2.8186  1.1410
  197THY    HM3 4923   2.897   8.014   8.186 -0.7625  0.3483 -0.5765
  197THY    CA6 4924   2.791   8.306   8.112  0.0727 -0.2268  0.0226
  197THY    HA6 4925   2.871   8.333   8.180  1.7227 -2.0739 -1.0725
  198THY      O 4926   1.118   3.602   2.501  0.5310  0.2649 -0.3918
  198THY     HO 4927   1.067   3.620   2.420 -0.8794 -0.6417  0.2418
  198THY    CA1 4928   1.102   3.712   2.587  0.0391  0.1460 -0.0906
  198THY    CA2 4929   1.119   3.712   2.729 -0.9350  0.3816 -0.6394
  198THY    CP1 4930   1.155   3.575   2.796  0.0654  0.2083  0.0754
  198THY    HP1 4931   1.103   3.491   2.748  0.6249 -0.8983  1.3521
  198THY    CP2 4932   1.296   3.536   2.768 -0.1106  0.8315 -0.1602
  198THY    HP2 4933   1.366   3.614   2.799  0.6676 -0.0634  0.3917
  198THY    HP3 4934   1.331   3.456   2.834 -1.4431 -0.3158 -0.8010
  198THY    HP4 4935   1.320   3.517   2.663  2.9908  0.1796  0.5579
  198THY    CP3 4936   1.119   3.568   2.948 -0.6251 -0.4657  0.0378
  198THY    HP5 4937   1.125   3.465   2.986  0.1649 -0.0002  1.2407
  198THY    HP6 4938   1.197   3.624   3.002  2.7328 -1.7203 -3.0684
  198THY    HP7 4939   1.018   3.599   2.974  0.0110  3.3423 -1.4357
  198THY    CA3 4940   1.126   3.832   2.803  0.1771  0.0664  0.5643
  198THY    HA3 4941   1.166   3.833   2.904  1.4039  2.7701  0.1600
  198THY    CA4 4942   1.100   3.954   2.735  0.3460  0.1561 -0.3211
  198THY    HA4 4943   1.106   4.050   2.785  0.8267  0.1282 -0.3269
  198THY    CA5 4944   1.073   3.954   2.596  0.1739  0.4314 -0.4502
  198THY    CM1 4945   1.054   4.088   2.533 -0.0949 -0.3091  0.2122
  198THY    HM1 4946   0.958   4.104   2.483  0.2414 -0.6626 -0.5633
  198THY    HM2 4947   1.065   4.169   2.605 -0.8740  0.9737 -1.0643
  198THY    HM3 4948   1.128   4.109   2.455 -2.2496  0.4756 -1.7646
  198THY    CA6 4949   1.082   3.835   2.524 -0.0315  0.5509  0.8359
  198THY    HA6 4950   1.089   3.840   2.416 -0.3290 -1.2706  0.7027
  199THY      O 4951   8.327   3.351   7.124  0.0983 -0.4483  0.6638
  199THY     HO 4952   8.276   3.273   7.149  0.9192 -1.1532  0.1895
  199THY    CA1 4953   8.279   3.392   7.005 -1.2373 -0.2651  0.6328
  199THY    CA2 4954   8.315   3.516   6.953 -0.4038  0.2401 -0.0122
  199THY    CP1 4955   8.434   3.591   7.027  0.8471  0.2665 -0.1382
  199THY    HP1 4956   8.491   3.513   7.078 -0.7070 -1.1836 -0.5311
  199THY    CP2 4957   8.537   3.646   6.940  0.3081 -0.1641  1.0463
  199THY    HP2 4958   8.604   3.568   6.903  0.6842  0.8545 -0.5295
  199THY    HP3 4959   8.493   3.700   6.855  0.2442  0.1310  1.2662
  199THY    HP4 4960   8.592   3.731   6.983  0.3879 -0.4432  1.4986
  199THY    CP3 4961   8.373   3.696   7.124 -0.1747 -0.1033  0.5759
  199THY    HP5 4962   8.453   3.739   7.186 -1.1224  0.7365  1.2473
  199THY    HP6 4963   8.303   3.768   7.081 -0.1436 -0.6065 -0.3305
  199THY    HP7 4964   8.302   3.647   7.192 -2.1922  1.3038 -0.4207
  199THY    CA3 4965   8.260   3.560   6.838 -0.0061  0.1587  0.2330
  199THY    HA3 4966   8.294   3.655   6.798  1.4486  1.2998  3.7942
  199THY    CA4 4967   8.151   3.490   6.781 -0.9662  0.3256  0.4657
  199THY    HA4 4968   8.109   3.533   6.690  1.3213  0.8816 -0.4095
  199THY    CA5 4969   8.111   3.369   6.832 -0.6883 -0.1572 -0.8405
  199THY    CM1 4970   8.011   3.284   6.768  0.7814  0.3336  0.0907
  199THY    HM1 4971   7.944   3.235   6.839  1.0227  0.5529  0.4718
  199THY    HM2 4972   7.957   3.346   6.696  0.5731 -0.6387 -0.6103
  199THY    HM3 4973   8.064   3.221   6.695 -0.0387  0.7661 -0.8855
  199THY    CA6 4974   8.180   3.321   6.944 -0.3176  0.3187  0.5500
  199THY    HA6 4975   8.142   3.226   6.981 -0.2498  0.1814  0.2702
  200THY      O 4976   6.328   5.730   3.927  0.9538  0.3104  0.6147
  200THY     HO 4977   6.340   5.671   4.003  0.1533 -2.4594 -1.2540
  200THY    CA1 4978   6.198   5.720   3.885 -0.0106 -0.0150 -0.3856
  200THY    CA2 4979   6.169   5.660   3.759  0.4830  0.5000 -0.7533
  200THY    CP1 4980   6.275   5.637   3.652 -0.7270  0.1310 -0.1846
  200THY    HP1 4981   6.374   5.681   3.670 -1.4483  1.5621  0.4953
  200THY    CP2 4982   6.285   5.487   3.646  0.0700  0.5819 -0.4620
  200THY    HP2 4983   6.317   5.454   3.746 -2.1967 -1.9242 -0.4539
  200THY    HP3 4984   6.184   5.447   3.635  0.3920 -0.1957 -0.6477
  200THY    HP4 4985   6.349   5.458   3.562  3.7080  1.1798  1.8720
  200THY    CP3 4986   6.237   5.701   3.514 -0.6543 -0.8781  0.3924
  200THY    HP5 4987   6.169   5.638   3.456  3.2730 -2.3513 -3.1630
  200THY    HP6 4988   6.204   5.806   3.516  0.6545 -0.4289  3.1696
  200THY    HP7 4989   6.327   5.707   3.452  0.8618  0.4188  2.5779
  200THY    CA3 4990   6.028   5.630   3.740  0.1557  0.4617  0.3287
  200THY    HA3 4991   5.991   5.578   3.651 -1.5072  1.0540  0.6344
  200THY    CA4 4992   5.933   5.664   3.836 -0.0187 -0.4437 -0.0112
  200THY    HA4 4993   5.828   5.638   3.823 -0.8940  3.1244 -1.1389
  200THY    CA5 4994   5.968   5.718   3.960  0.6161  0.1458  0.1110
  200THY    CM1 4995   5.860   5.748   4.063 -0.6733 -0.3200 -0.3996
  200THY    HM1 4996   5.795   5.663   4.088  0.0070 -1.0587 -1.0667
  200THY    HM2 4997   5.901   5.781   4.159 -0.0540 -2.0573 -0.0214
  200THY    HM3 4998   5.804   5.826   4.011  1.2498  2.0024  0.7883
  200THY    CA6 4999   6.100   5.752   3.979 -0.3916  0.6419  0.3031
  200THY    HA6 5000   6.129   5.793   4.076  1.2482  2.0047 -0.7157
  201THY      O 5001   1.320   4.504   7.460 -0.4554  0.1958 -0.1367
  201THY     HO 5002   1.364   4.468   7.382  1.5073 -0.3777  1.1542
  201THY    CA1 5003   1.217   4.422   7.481 -0.3382 -0.9801  0.4566
  201THY    CA2 5004   1.187   4.375   7.606  0.0620  0.6021 -0.6941
  201THY    CP1 5005   1.270   4.407   7.732  0.3124 -0.4622 -0.3585
  201THY    HP1 5006   1.262   4.325   7.805  1.7080 -0.6908 -0.4289
  201THY    CP2 5007   1.420   4.398   7.709 -0.0598  0.0863 -0.9063
  201THY    HP2 5008   1.472   4.385   7.805  0.2062  0.2042 -1.0346
  201THY    HP3 5009   1.445   4.309   7.650 -0.2283 -0.8312  0.3402
  201THY    HP4 5010   1.453   4.489   7.658 -1.5943  0.3037 -1.5739
  201THY    CP3 5011   1.226   4.533   7.805  0.1082 -0.0491  0.0194
  201THY    HP5 5012   1.118   4.528   7.819 -0.4581 -1.3162 -3.6322
  201THY    HP6 5013   1.272   4.542   7.904 -0.5685  0.7593  0.2669
  201THY    HP7 5014   1.242   4.626   7.748 -0.2674  1.0701  1.6686
  201THY    CA3 5015   1.066   4.304   7.627 -0.0171 -0.3359 -0.1194
  201THY    HA3 5016   1.042   4.278   7.730  2.4546  1.7250  1.0932
  201THY    CA4 5017   0.989   4.276   7.519  0.3389  0.2416 -0.1566
  201THY    HA4 5018   0.898   4.218   7.527  1.1510 -0.9284  1.0560
  201THY    CA5 5019   1.022   4.324   7.394 -0.2379  0.8226 -0.0342
  201THY    CM1 5020   0.930   4.288   7.281 -0.6971  0.0641  0.1937
  201THY    HM1 5021   0.948   4.347   7.190 -0.9875  0.2411  0.2503
  201THY    HM2 5022   0.914   4.183   7.253  0.3146  0.4061 -1.8347
  201THY    HM3 5023   0.826   4.317   7.296 -0.3823  1.4442 -0.2103
  201THY    CA6 5024   1.133   4.397   7.373  0.7524 -0.0114  0.4299
  201THY    HA6 5025   1.155   4.428   7.271  2.0048 -1.5683  0.1884
  202THY      O 5026   5.287   8.471   0.190  0.1536 -0.1651  0.0362
  202THY     HO 5027   5.220   8.423   0.138  0.9380 -0.2747 -0.9206
  202THY    CA1 5028   5.322   8.415   0.299 -0.7188  0.4664 -0.0064
  202THY    CA2 5029   5.371   8.486   0.408  0.1886 -0.1719 -0.1813
  202THY    CP1 5030   5.360   8.644   0.406 -0.2255 -0.3450  0.9087
  202THY    HP1 5031   5.293   8.674   0.325  1.1718 -0.3037 -0.2891
  202THY    CP2 5032   5.293   8.701   0.532 -0.0212 -0.8773  0.0435
  202THY    HP2 5033   5.307   8.809   0.547  2.2189 -1.3577  1.9546
  202THY    HP3 5034   5.188   8.680   0.507  0.7995 -1.1982 -3.8033
  202THY    HP4 5035   5.316   8.653   0.628  0.2316  0.0584  0.4681
  202THY    CP3 5036   5.491   8.704   0.376  0.5182  0.0921 -0.7325
  202THY    HP5 5037   5.568   8.666   0.444 -1.0487  0.6346  1.4556
  202THY    HP6 5038   5.527   8.680   0.275  0.0971 -0.0667 -0.8473
  202THY    HP7 5039   5.487   8.813   0.387  1.2924 -0.0106  0.8719
  202THY    CA3 5040   5.412   8.423   0.525  0.0619 -0.1234 -0.0907
  202THY    HA3 5041   5.447   8.476   0.614 -0.5299 -0.5206  0.3881
  202THY    CA4 5042   5.411   8.282   0.527 -0.2685 -1.0013  0.0454
  202THY    HA4 5043   5.446   8.222   0.611  1.1241 -1.4765 -0.8515
  202THY    CA5 5044   5.369   8.206   0.415 -0.4778  0.0689  0.5786
  202THY    CM1 5045   5.387   8.060   0.409 -0.0751  0.8259 -0.3539
  202THY    HM1 5046   5.289   8.014   0.394  0.7500 -1.8041  1.5428
  202THY    HM2 5047   5.444   8.028   0.321 -0.2989  1.9281 -0.9101
  202THY    HM3 5048   5.431   8.024   0.503 -0.5961  2.9395  0.7547
  202THY    CA6 5049   5.328   8.277   0.299  0.8830 -0.0733 -0.6522
  202THY    HA6 5050   5.295   8.209   0.220  1.2100 -0.9751 -0.0380
  203THY      O 5051   9.711   6.778   5.625  0.5919  0.4392  0.2374
  203THY     HO 5052   9.786   6.768   5.687  1.9833  0.7270 -1.3266
  203THY    CA1 5053   9.633   6.666   5.631 -0.1408  0.4422  0.1018
  203THY    CA2 5054   9.501   6.675   5.577 -0.1888  0.8664 -0.5290
  203THY    CP1 5055   9.445   6.810   5.522 -0.6307  0.4791  0.4121
  203THY    HP1 5056   9.496   6.898   5.563  0.7814 -0.4677  0.7253
  203THY    CP2 5057   9.490   6.819   5.379  1.0496 -0.1945  0.2722
  203THY    HP2 5058   9.449   6.914   5.343 -0.8178 -1.4381 -1.0653
  203THY    HP3 5059   9.597   6.821   5.357  0.9727 -1.3570 -0.2871
  203THY    HP4 5060   9.441   6.734   5.329  1.6843 -1.3386  1.5196
  203THY    CP3 5061   9.295   6.825   5.526  0.4451  0.1235  0.3338
  203THY    HP5 5062   9.263   6.926   5.500 -2.4843 -0.9777 -0.7499
  203THY    HP6 5063   9.251   6.748   5.461  1.5621 -0.2527 -0.0064
  203THY    HP7 5064   9.258   6.810   5.628 -1.2677  0.5358 -0.2031
  203THY    CA3 5065   9.428   6.559   5.575  0.4333 -1.0342  0.3142
  203THY    HA3 5066   9.323   6.563   5.548  0.3946  1.2756  0.6408
  203THY    CA4 5067   9.476   6.448   5.646  0.5180  0.4094 -0.8869
  203THY    HA4 5068   9.406   6.367   5.662  0.4794  0.5229 -0.4716
  203THY    CA5 5069   9.601   6.444   5.713  0.4344  0.2871 -0.9572
  203THY    CM1 5070   9.651   6.314   5.768  0.1433  0.7285 -0.1699
  203THY    HM1 5071   9.674   6.319   5.876  0.7183  1.2163 -0.3050
  203THY    HM2 5072   9.574   6.239   5.751 -2.1553  2.9837 -0.3191
  203THY    HM3 5073   9.738   6.272   5.716 -0.9745 -2.0577  0.0570
  203THY    CA6 5074   9.687   6.560   5.702  0.1031 -0.2054 -0.5089
  203THY    HA6 5075   9.785   6.542   5.745  0.4434 -1.1478 -1.6382
  204THY      O 5076   1.704   1.826   9.438 -0.2284 -0.5753 -0.1565
  204THY     HO 5077   1.702   1.919   9.408  2.5836 -0.3829 -0.0145
  204THY    CA1 5078   1.711   1.823   9.577 -0.2750  0.6420 -0.3552
  204THY    CA2 5079   1.792   1.719   9.640 -0.9265  0.0605 -0.5530
  204THY    CP1 5080   1.871   1.623   9.556 -0.1367  0.1416 -0.1370
  204THY    HP1 5081   1.863   1.641   9.448  1.6092 -3.0676 -0.9209
  204THY    CP2 5082   2.024   1.616   9.591  0.6182  0.4616  0.4192
  204THY    HP2 5083   2.077   1.708   9.563  2.7334  0.1712  3.0910
  204THY    HP3 5084   2.026   1.586   9.696 -2.8745  1.1223  0.8092
  204THY    HP4 5085   2.070   1.535   9.534  1.1251  1.7106 -1.0306
  204THY    CP3 5086   1.801   1.481   9.571 -0.2006  0.2264  0.3110
  204THY    HP5 5087   1.854   1.407   9.510  0.2090  1.1121 -0.4242
  204THY    HP6 5088   1.809   1.445   9.674 -2.3066 -0.9902  0.0983
  204THY    HP7 5089   1.697   1.488   9.538 -0.4884  2.2419  1.4939
  204THY    CA3 5090   1.790   1.710   9.780  0.2983  0.5182  0.0696
  204THY    HA3 5091   1.835   1.628   9.835 -0.4293 -1.1108 -1.6518
  204THY    CA4 5092   1.699   1.791   9.848 -0.9174 -0.7189 -0.4512
  204THY    HA4 5093   1.702   1.781   9.956  1.0886 -1.3749 -0.5278
  204THY    CA5 5094   1.623   1.889   9.787  0.0812 -0.6718 -0.4348
  204THY    CM1 5095   1.515   1.970   9.853  0.1270 -0.2639  0.0828
  204THY    HM1 5096   1.539   2.076   9.858  2.6655 -0.7854  0.2003
  204THY    HM2 5097   1.424   1.956   9.793 -0.5880  0.1242  1.0502
  204THY    HM3 5098   1.489   1.935   9.954 -1.0366 -1.0032 -0.4466
  204THY    CA6 5099   1.638   1.911   9.648  0.2007 -0.3331  0.3715
  204THY    HA6 5100   1.582   1.982   9.587  0.0582 -0.8233 -0.0709
  205THY      O 5101   0.915   2.029   2.626  0.4193  0.7932  0.0047
  205THY     HO 5102   0.846   1.989   2.681  1.4747  2.0435  2.4096
  205THY    CA1 5103   0.906   2.168   2.629  0.1239 -0.3054 -0.5536
  205THY    CA2 5104   1.022   2.247   2.642 -0.4563 -0.1640  0.0922
  205THY    CP1 5105   1.166   2.185   2.636 -0.1759  0.3045 -0.0156
  205THY    HP1 5106   1.176   2.115   2.552  0.4311  0.9573 -0.4992
  205THY    CP2 5107   1.276   2.285   2.605 -0.7781  0.3148 -0.6990
  205THY    HP2 5108   1.367   2.230   2.579 -0.0961 -1.0695  3.7221
  205THY    HP3 5109   1.238   2.362   2.536  0.9032  2.9361  1.1199
  205THY    HP4 5110   1.302   2.340   2.696  1.3928 -0.5284 -0.7515
  205THY    CP3 5111   1.204   2.112   2.770 -0.1401 -0.5213 -0.5132
  205THY    HP5 5112   1.131   2.035   2.797  0.6732 -0.9936  0.4000
  205THY    HP6 5113   1.301   2.061   2.770  0.6471  0.7668  2.5489
  205THY    HP7 5114   1.211   2.181   2.855  0.4014 -4.1088  2.6082
  205THY    CA3 5115   1.003   2.385   2.665 -0.1737 -0.0330  0.0284
  205THY    HA3 5116   1.091   2.449   2.667 -0.6235  0.5806  0.7898
  205THY    CA4 5117   0.874   2.444   2.676  0.6167  0.3405  0.5543
  205THY    HA4 5118   0.859   2.551   2.671 -0.5278  0.1237 -2.1239
  205THY    CA5 5119   0.766   2.360   2.674 -0.4794 -0.4589  0.2115
  205THY    CM1 5120   0.629   2.423   2.682 -0.0540  0.1266  0.2529
  205THY    HM1 5121   0.637   2.508   2.751 -2.5839  0.0215  0.7982
  205THY    HM2 5122   0.610   2.462   2.582  2.8699 -1.9045 -1.2339
  205THY    HM3 5123   0.551   2.352   2.713  0.4598 -0.2523  0.7051
  205THY    CA6 5124   0.781   2.222   2.652  0.0867 -0.1226  0.4740
  205THY    HA6 5125   0.690   2.164   2.646  0.6380 -0.9568  0.0076
  206THY      O 5126   2.074   2.266   1.770 -0.3521 -0.2844  0.2936
  206THY     HO 5127   2.094   2.190   1.714  2.2852  0.0073  0.7259
  206THY    CA1 5128   2.178   2.349   1.738  0.2995 -0.0813 -0.1086
  206THY    CA2 5129   2.209   2.469   1.803  1.0668  0.3415  0.0194
  206THY    CP1 5130   2.112   2.510   1.927 -0.3416  0.5975 -0.2805
  206THY    HP1 5131   2.091   2.418   1.983  1.1216  0.1954 -0.3391
  206THY    CP2 5132   2.185   2.607   2.023  0.1446 -0.0002 -0.2355
  206THY    HP2 5133   2.119   2.629   2.107  1.6743 -2.9901  1.9152
  206THY    HP3 5134   2.272   2.555   2.065  0.9518  0.9364 -0.7076
  206THY    HP4 5135   2.223   2.691   1.964 -0.2299  0.6888  0.4857
  206THY    CP3 5136   1.987   2.578   1.868 -0.1431 -0.8299 -0.4613
  206THY    HP5 5137   2.017   2.658   1.799  1.0677 -2.3122 -1.7469
  206THY    HP6 5138   1.931   2.511   1.801 -0.3541 -0.5117 -0.6050
  206THY    HP7 5139   1.912   2.609   1.942 -2.9603  0.4426 -3.5589
  206THY    CA3 5140   2.322   2.544   1.764  0.3406  0.3117 -0.3413
  206THY    HA3 5141   2.365   2.631   1.814  2.8136 -1.0826  0.0994
  206THY    CA4 5142   2.394   2.498   1.657 -0.3949  0.3282  0.0607
  206THY    HA4 5143   2.490   2.542   1.631  0.9200 -2.0921  0.5026
  206THY    CA5 5144   2.365   2.378   1.592  0.4877 -0.2239  0.3673
  206THY    CM1 5145   2.455   2.320   1.479 -0.1730 -0.2614 -0.3331
  206THY    HM1 5146   2.530   2.394   1.447 -1.1670  0.4548 -1.0609
  206THY    HM2 5147   2.501   2.227   1.515  2.3525  1.2115  0.5469
  206THY    HM3 5148   2.399   2.294   1.389  0.3782 -2.8036 -0.0058
  206THY    CA6 5149   2.248   2.312   1.623 -0.8428  0.5706  0.4825
  206THY    HA6 5150   2.235   2.214   1.578  0.3435  1.1622 -1.2228
  207THY      O 5151   0.144   4.860   7.230 -0.1517 -0.0555 -0.3207
  207THY     HO 5152   0.196   4.923   7.283 -1.6281  0.7580  0.2225
  207THY    CA1 5153   0.088   4.768   7.311 -0.3542 -0.5106  0.0111
  207THY    CA2 5154  -0.017   4.684   7.265  0.4838  0.3944  0.5789
  207THY    CP1 5155  -0.076   4.698   7.126 -0.4329  0.7820  0.2436
  207THY    HP1 5156  -0.010   4.764   7.067  0.4171 -1.4255 -1.3997
  207THY    CP2 5157  -0.082   4.553   7.058 -0.5852  0.1980  0.2833
  207THY    HP2 5158  -0.127   4.473   7.119 -1.4510  0.1261 -0.4230
  207THY    HP3 5159  -0.128   4.550   6.958 -0.1012 -0.5109  0.0678
  207THY    HP4 5160   0.018   4.511   7.042 -0.6043 -0.2270  1.2327
  207THY    CP3 5161  -0.212   4.770   7.123  0.2565 -0.1666 -0.1609
  207THY    HP5 5162  -0.280   4.719   7.192  1.1214 -0.3483  0.5788
  207THY    HP6 5163  -0.200   4.874   7.155  1.8462 -0.5294  0.4920
  207THY    HP7 5164  -0.265   4.758   7.028  1.9442 -1.2241 -1.0147
  207THY    CA3 5165  -0.074   4.584   7.349  0.7850 -0.1622 -0.1603
  207THY    HA3 5166  -0.156   4.519   7.321 -0.9817  1.7486  0.3396
  207THY    CA4 5167  -0.029   4.572   7.482 -0.0257  0.1823  0.3371
  207THY    HA4 5168  -0.080   4.505   7.551 -0.8063 -1.3243 -1.5937
  207THY    CA5 5169   0.068   4.653   7.524  0.0924  0.7687 -0.2877
  207THY    CM1 5170   0.123   4.632   7.671 -0.0895  0.4960  0.4684
  207THY    HM1 5171   0.081   4.707   7.739  0.3464  0.8342  0.3699
  207THY    HM2 5172   0.079   4.534   7.694  2.4828 -1.2194 -1.3267
  207THY    HM3 5173   0.233   4.629   7.670 -0.1124 -1.3972 -0.7536
  207THY    CA6 5174   0.128   4.750   7.442 -0.5110  0.5777 -0.1983
  207THY    HA6 5175   0.215   4.809   7.469 -1.5723  0.8314  3.1413
  208THY      O 5176   9.870   4.587   5.293 -0.3091  0.2214  0.0542
  208THY     HO 5177   9.781   4.605   5.256 -1.8703 -1.4662  2.6177
  208THY    CA1 5178   9.937   4.696   5.251  0.2316 -0.2822 -0.2072
  208THY    CA2 5179  10.061   4.730   5.299  0.2620  0.1942 -0.3479
  208THY    CP1 5180  10.145   4.650   5.401 -0.4080 -0.6339  0.1220
  208THY    HP1 5181  10.098   4.551   5.396 -2.4117  0.3122 -0.6855
  208THY    CP2 5182  10.293   4.654   5.370  0.4120  0.1326 -0.1637
  208THY    HP2 5183  10.346   4.737   5.417  1.3301 -0.2854 -0.4356
  208THY    HP3 5184  10.342   4.566   5.412 -1.0657 -0.5859  0.0956
  208THY    HP4 5185  10.309   4.644   5.261  1.3335 -0.6082  0.0239
  208THY    CP3 5186  10.125   4.693   5.546  0.1792 -0.0791 -0.7523
  208THY    HP5 5187  10.180   4.621   5.608 -0.5050  0.1087  0.0872
  208THY    HP6 5188  10.150   4.796   5.574  0.8804 -0.3971 -0.1524
  208THY    HP7 5189  10.021   4.671   5.569 -0.0275  0.8263 -0.7880
  208THY    CA3 5190  10.117   4.846   5.246 -0.1472 -0.0265  0.1161
  208THY    HA3 5191  10.215   4.878   5.282  0.5819 -0.5796 -1.2912
  208THY    CA4 5192  10.041   4.925   5.158 -0.5210 -0.0777  0.5701
  208THY    HA4 5193  10.083   5.024   5.143 -0.3257 -0.1228  0.8133
  208THY    CA5 5194   9.913   4.891   5.118  0.7843 -0.2299  0.3031
  208THY    CM1 5195   9.830   4.981   5.030 -0.4532 -0.1580 -0.0695
  208THY    HM1 5196   9.782   5.056   5.094 -0.0233 -0.7467  0.9547
  208THY    HM2 5197   9.892   5.040   4.962 -1.2995 -0.0442 -0.7698
  208THY    HM3 5198   9.754   4.930   4.969  0.4636 -1.0845 -0.4677
  208THY    CA6 5199   9.861   4.775   5.166 -0.0769 -0.7996  0.0370
  208THY    HA6 5200   9.769   4.737   5.123 -2.3844  1.3882  2.6175
  209THY      O 5201   1.751   5.504   1.885 -0.2576 -0.0222  0.6088
  209THY     HO 5202   1.757   5.437   1.954 -0.8768 -0.5257  0.1833
  209THY    CA1 5203   1.708   5.616   1.942 -0.0147 -0.0322 -0.7840
  209THY    CA2 5204   1.694   5.625   2.087  0.3334 -0.5872 -0.0847
  209THY    CP1 5205   1.754   5.523   2.175 -0.5123 -1.0922 -0.6203
  209THY    HP1 5206   1.818   5.454   2.119  0.7924  1.0835 -1.9626
  209THY    CP2 5207   1.843   5.577   2.283 -0.7646  0.3979  0.0188
  209THY    HP2 5208   1.921   5.635   2.232 -0.6022 -0.1617 -0.3754
  209THY    HP3 5209   1.795   5.642   2.357 -1.8121  0.4578 -0.6903
  209THY    HP4 5210   1.875   5.494   2.347 -1.1503  0.9283  0.9243
  209THY    CP3 5211   1.641   5.434   2.236  0.4726 -0.3585  0.8962
  209THY    HP5 5212   1.578   5.409   2.149  1.4022 -3.4488  0.9736
  209THY    HP6 5213   1.679   5.346   2.289 -2.1803 -0.7031  2.4409
  209THY    HP7 5214   1.579   5.502   2.296 -0.3668  0.3377 -0.7142
  209THY    CA3 5215   1.626   5.738   2.148 -0.2634  0.6566  0.2137
  209THY    HA3 5216   1.614   5.738   2.256  2.0306 -2.3039  0.5832
  209THY    CA4 5217   1.576   5.838   2.065  0.8570  0.3548 -0.0831
  209THY    HA4 5218   1.513   5.914   2.112  0.6878 -1.3955  2.7234
  209THY    CA5 5219   1.591   5.826   1.926 -0.0705  0.2275 -0.5157
  209THY    CM1 5220   1.523   5.926   1.841  0.1202  0.5420 -0.1857
  209THY    HM1 5221   1.556   6.028   1.865  1.6192  0.3181 -1.1239
  209THY    HM2 5222   1.548   5.920   1.734  1.3271  0.4817  0.0862
  209THY    HM3 5223   1.418   5.923   1.871  0.2495 -3.1352  0.3144
  209THY    CA6 5224   1.654   5.716   1.867  0.3817  0.4173  0.0622
  209THY    HA6 5225   1.643   5.710   1.760  0.6041 -1.4091  0.1118
  210THY      O 5226   2.517   5.538   1.768  0.0227 -0.5257 -0.1626
  210THY     HO 5227   2.567   5.481   1.829 -1.4864 -1.7918 -0.0309
  210THY    CA1 5228   2.385   5.520   1.790 -0.2072  0.3720 -0.2207
  210THY    CA2 5229   2.282   5.566   1.708  0.9278 -0.4413  0.1283
  210THY    CP1 5230   2.311   5.616   1.568 -0.1185 -0.6726  0.1898
  210THY    HP1 5231   2.379   5.546   1.518  1.7183  1.3619 -0.2870
  210THY    CP2 5232   2.188   5.628   1.473  0.0448 -0.2456  0.6320
  210THY    HP2 5233   2.220   5.653   1.371 -0.4542  0.0792  0.5501
  210THY    HP3 5234   2.132   5.535   1.457 -1.1683  0.6876 -0.8343
  210THY    HP4 5235   2.128   5.716   1.498 -2.1036 -1.5100  0.1688
  210THY    CP3 5236   2.385   5.749   1.566  0.7336 -0.0608  0.1550
  210THY    HP5 5237   2.323   5.828   1.610  0.7002 -0.1958  0.3537
  210THY    HP6 5238   2.475   5.751   1.628  0.1251  0.3201  1.0569
  210THY    HP7 5239   2.407   5.784   1.465  0.6341  0.6508  0.3740
  210THY    CA3 5240   2.149   5.573   1.761  0.0433  0.8178 -0.6447
  210THY    HA3 5241   2.070   5.610   1.697 -2.1143 -1.6948  0.3555
  210THY    CA4 5242   2.130   5.538   1.900 -0.2897 -0.6007  0.0262
  210THY    HA4 5243   2.028   5.534   1.938  0.2049 -1.3192  1.3669
  210THY    CA5 5244   2.232   5.481   1.975  0.8252 -0.2613  0.3325
  210THY    CM1 5245   2.195   5.447   2.117  0.4527  0.5683  0.5474
  210THY    HM1 5246   2.233   5.521   2.188  2.3203 -0.1904  0.3933
  210THY    HM2 5247   2.088   5.427   2.128  0.5410 -0.7635 -0.7312
  210THY    HM3 5248   2.232   5.347   2.140 -0.7795  0.1677  0.8645
  210THY    CA6 5249   2.362   5.474   1.926  0.0261 -0.4784 -0.1060
  210THY    HA6 5250   2.435   5.426   1.990  1.4232  1.7358  0.0618
  211THY      O 5251   9.476   0.574   5.633 -0.3355 -0.0182 -0.4560
  211THY     HO 5252   9.533   0.518   5.690 -1.9837  0.2353  1.5566
  211THY    CA1 5253   9.543   0.631   5.533 -0.8495 -0.5856 -0.8392
  211THY    CA2 5254   9.538   0.589   5.400  0.9319  0.0304  0.2649
  211THY    CP1 5255   9.441   0.477   5.362  0.2657 -0.0302 -0.5208
  211THY    HP1 5256   9.373   0.442   5.441  2.7548 -2.6762  0.5910
  211THY    CP2 5257   9.348   0.520   5.243 -0.3544  0.1584 -0.1937
  211THY    HP2 5258   9.406   0.523   5.149  1.7244  0.4433  1.0257
  211THY    HP3 5259   9.281   0.436   5.222  1.2082 -1.0930 -0.4067
  211THY    HP4 5260   9.303   0.619   5.257  0.7332  0.8056 -1.0516
  211THY    CP3 5261   9.516   0.348   5.331 -0.0433 -0.7836 -0.9105
  211THY    HP5 5262   9.451   0.266   5.300 -0.7298  0.0554 -1.7540
  211THY    HP6 5263   9.589   0.362   5.250 -0.1020 -0.2387 -0.8777
  211THY    HP7 5264   9.582   0.311   5.411 -0.9521 -0.9952 -0.2469
  211THY    CA3 5265   9.619   0.655   5.308  0.4805  0.3304 -0.2534
  211THY    HA3 5266   9.614   0.620   5.205  3.2622 -1.7876  0.2249
  211THY    CA4 5267   9.674   0.780   5.341 -0.4721 -0.6949 -0.5211
  211THY    HA4 5268   9.727   0.845   5.272 -2.2108 -0.2447 -1.5169
  211THY    CA5 5269   9.679   0.823   5.476  0.5201  0.1728  0.1016
  211THY    CM1 5270   9.741   0.949   5.509  0.4950  0.1691 -0.8489
  211THY    HM1 5271   9.803   0.940   5.599  0.7956  0.0594 -1.0651
  211THY    HM2 5272   9.810   0.982   5.429  1.0453 -1.1469 -0.9423
  211THY    HM3 5273   9.673   1.035   5.512 -0.6718 -0.7082 -1.5242
  211THY    CA6 5274   9.623   0.741   5.569 -0.0896  0.0195 -1.5539
  211THY    HA6 5275   9.625   0.769   5.675  3.4290 -0.0073 -1.4907
  212THY      O 5276   0.419   8.670   0.077 -0.1978 -0.7408 -0.3616
  212THY     HO 5277   0.341   8.623   0.043 -1.9148  1.2242  0.6338
  212THY    CA1 5278   0.452   8.776  -0.009  0.7380  0.6444 -0.3152
  212THY    CA2 5279   0.536   8.887   0.025 -0.0373  0.4428  0.5144
  212THY    CP1 5280   0.600   8.888   0.160 -0.2215  0.1939 -0.3610
  212THY    HP1 5281   0.567   8.799   0.215  3.1348 -0.7548  0.3506
  212THY    CP2 5282   0.754   8.871   0.146  0.1410  0.2984 -0.1294
  212THY    HP2 5283   0.791   8.901   0.245 -0.2587  0.5084 -0.0444
  212THY    HP3 5284   0.789   8.768   0.129  0.6538  0.8419 -2.6509
  212THY    HP4 5285   0.796   8.935   0.068  0.8332 -0.1913 -0.1726
  212THY    CP3 5286   0.545   9.009   0.241 -0.3418 -0.3063  0.1243
  212THY    HP5 5287   0.568   9.110   0.205  0.6662 -0.1144  1.2457
  212THY    HP6 5288   0.436   8.992   0.238 -0.5001  0.5963  0.6031
  212THY    HP7 5289   0.569   8.991   0.346  3.5443 -1.3021 -0.7973
  212THY    CA3 5290   0.559   8.987  -0.070  0.1400 -0.4167  0.5494
  212THY    HA3 5291   0.610   9.077  -0.035 -1.7301  0.7875  0.3722
  212THY    CA4 5292   0.493   8.984  -0.196  0.7381  0.2393  0.2480
  212THY    HA4 5293   0.489   9.072  -0.259 -3.8431 -0.3034 -0.5418
  212THY    CA5 5294   0.397   8.884  -0.229 -0.2721  0.4579 -0.7101
  212THY    CM1 5295   0.322   8.902  -0.356  0.2609 -0.3583  0.1003
  212THY    HM1 5296   0.372   8.848  -0.437 -1.0855  0.4162 -1.2964
  212THY    HM2 5297   0.222   8.860  -0.340 -0.5352  0.8187 -1.4892
  212THY    HM3 5298   0.320   9.007  -0.387 -1.7738 -0.4060 -0.0896
  212THY    CA6 5299   0.385   8.774  -0.135  0.0149  0.0970  0.5274
  212THY    HA6 5300   0.314   8.693  -0.147 -2.4969  2.3125 -0.6268
  213THY      O 5301   0.379   3.344   4.936  0.1807  0.1197  0.0142
  213THY     HO 5302   0.438   3.282   4.983  1.3559  1.0861 -0.1385
  213THY    CA1 5303   0.416   3.347   4.807 -0.6113  0.0042 -0.5705
  213THY    CA2 5304   0.326   3.388   4.711  0.5840  0.2388  0.7348
  213THY    CP1 5305   0.180   3.406   4.748 -0.0206  0.3076  0.4977
  213THY    HP1 5306   0.166   3.337   4.832  2.5970  0.6977  1.3301
  213THY    CP2 5307   0.146   3.549   4.790 -0.7850  0.0294  0.4196
  213THY    HP2 5308   0.193   3.553   4.889  0.6354  0.4657 -0.2419
  213THY    HP3 5309   0.193   3.612   4.713 -0.3559 -1.2486 -0.4014
  213THY    HP4 5310   0.040   3.574   4.802 -0.7920 -0.6555  1.9741
  213THY    CP3 5311   0.087   3.357   4.632  0.0866  0.4316 -0.2785
  213THY    HP5 5312  -0.015   3.346   4.670 -0.9726 -0.7142 -3.1472
  213THY    HP6 5313   0.086   3.424   4.545  1.7196 -1.3579 -1.7734
  213THY    HP7 5314   0.120   3.255   4.611 -0.0424  0.2066  0.5724
  213THY    CA3 5315   0.371   3.418   4.581 -0.3407 -0.1640  1.0969
  213THY    HA3 5316   0.311   3.463   4.502  2.4811  0.5753 -0.7908
  213THY    CA4 5317   0.509   3.392   4.543 -0.6744 -0.5092 -0.0083
  213THY    HA4 5318   0.542   3.416   4.443  0.4471  0.1510  0.4986
  213THY    CA5 5319   0.598   3.333   4.640  0.4127 -0.3205 -0.1159
  213THY    CM1 5320   0.737   3.305   4.597  0.1870  0.1616 -0.5458
  213THY    HM1 5321   0.778   3.212   4.636  1.8990  0.5896 -1.2560
  213THY    HM2 5322   0.729   3.287   4.489 -0.9665 -1.3951 -0.2392
  213THY    HM3 5323   0.804   3.390   4.615  0.0483  0.3580 -0.9290
  213THY    CA6 5324   0.549   3.323   4.775  0.1741  0.8815 -0.0677
  213THY    HA6 5325   0.617   3.291   4.853  0.9937  0.4478 -0.9358
  214THY      O 5326   9.163   6.638   2.216 -0.1652  0.2936  0.2450
  214THY     HO 5327   9.155   6.556   2.164  2.2517  1.0630 -1.5169
  214THY    CA1 5328   9.041   6.703   2.207 -0.1582 -0.0534 -0.4579
  214THY    CA2 5329   9.023   6.843   2.212 -0.5299 -0.1686 -0.2854
  214THY    CP1 5330   9.144   6.935   2.232  0.8426 -0.7418 -0.1272
  214THY    HP1 5331   9.213   6.881   2.299 -2.7597 -4.8312  0.7732
  214THY    CP2 5332   9.219   6.948   2.098  0.4537 -0.1345 -0.0294
  214THY    HP2 5333   9.312   7.004   2.104  1.8192 -2.3913  1.9123
  214THY    HP3 5334   9.260   6.850   2.073  2.8075  0.7371  0.2323
  214THY    HP4 5335   9.157   6.989   2.018  0.2439 -0.9173 -0.2830
  214THY    CP3 5336   9.113   7.080   2.284 -0.0349 -0.2385 -0.4282
  214THY    HP5 5337   9.085   7.142   2.197  1.0098  3.2904  1.5410
  214THY    HP6 5338   9.024   7.070   2.347 -0.2450  0.7979 -0.5307
  214THY    HP7 5339   9.204   7.130   2.319  1.5871 -2.5115 -1.2033
  214THY    CA3 5340   8.891   6.896   2.195 -0.3357 -0.1972  0.2970
  214THY    HA3 5341   8.887   7.002   2.170  0.4867  0.5359  2.9772
  214THY    CA4 5342   8.779   6.811   2.174  0.1265  0.6313  1.2841
  214THY    HA4 5343   8.686   6.858   2.148  0.6411  0.5897 -0.7577
  214THY    CA5 5344   8.795   6.672   2.155 -0.0894 -0.0395 -0.6556
  214THY    CM1 5345   8.682   6.579   2.118 -0.8217  0.2952  0.3446
  214THY    HM1 5346   8.649   6.521   2.205 -1.2335 -0.8787 -0.5692
  214THY    HM2 5347   8.593   6.632   2.085 -0.9790  0.8520  1.5866
  214THY    HM3 5348   8.725   6.508   2.046 -2.0648  0.9402 -1.0872
  214THY    CA6 5349   8.925   6.624   2.184 -0.1258  0.1835 -0.4146
  214THY    HA6 5350   8.935   6.515   2.183 -2.2740 -0.0565 -1.3189
  215THY      O 5351   3.960   1.953   4.784 -0.3116  0.2265  0.2148
  215THY     HO 5352   3.976   1.861   4.811  0.5362  0.1229 -0.5877
  215THY    CA1 5353   3.845   1.990   4.845  0.5174 -0.0533  0.3129
  215THY    CA2 5354   3.850   2.072   4.954  0.2794 -0.7504 -0.4372
  215THY    CP1 5355   3.992   2.118   5.004 -0.5914 -0.0692  0.5555
  215THY    HP1 5356   4.066   2.133   4.925  0.4120 -2.0501  1.0457
  215THY    CP2 5357   3.991   2.252   5.067  0.3378  0.2041 -0.1050
  215THY    HP2 5358   3.935   2.327   5.011  0.6993  0.5713  0.0215
  215THY    HP3 5359   3.932   2.240   5.158  0.7350 -0.6605  0.0523
  215THY    HP4 5360   4.091   2.286   5.097  2.6770 -2.1395 -4.3174
  215THY    CP3 5361   4.043   2.003   5.103  0.1126 -0.5507 -0.2278
  215THY    HP5 5362   3.954   1.964   5.154  0.1597  2.3572  2.3526
  215THY    HP6 5363   4.094   1.924   5.047  0.0159 -0.5632 -0.2986
  215THY    HP7 5364   4.101   2.045   5.187 -0.9366 -1.4767  1.0086
  215THY    CA3 5365   3.729   2.113   5.012 -0.0675 -0.4309  0.2092
  215THY    HA3 5366   3.720   2.174   5.101 -0.1789  0.6649 -0.5410
  215THY    CA4 5367   3.614   2.067   4.958 -0.3321 -0.3426  0.0869
  215THY    HA4 5368   3.518   2.084   5.005 -0.4385 -0.3033 -0.1403
  215THY    CA5 5369   3.613   1.987   4.841 -0.3821 -0.5995  0.3018
  215THY    CM1 5370   3.482   1.948   4.779 -0.1323  1.1955  0.3978
  215THY    HM1 5371   3.436   1.860   4.826  0.3365  0.7106 -0.0300
  215THY    HM2 5372   3.403   2.024   4.786 -1.9059 -0.3967 -1.0441
  215THY    HM3 5373   3.486   1.920   4.673  1.3626 -1.2485  1.0126
  215THY    CA6 5374   3.729   1.942   4.789 -0.3429 -0.1021 -0.4950
  215THY    HA6 5375   3.732   1.881   4.699 -2.9415 -1.3265  0.1701
  216THY      O 5376   1.168   9.392   6.306 -0.4338 -0.2505 -0.6517
  216THY     HO 5377   1.109   9.367   6.379  0.6076 -1.3472 -0.1522
  216THY    CA1 5378   1.135   9.299   6.211 -0.0455  0.8242 -0.1101
  216THY    CA2 5379   1.217   9.275   6.099 -0.3294  0.1147 -0.6298
  216THY    CP1 5380   1.347   9.354   6.084  0.1157  0.6517  0.7991
  216THY    HP1 5381   1.364   9.422   6.168  0.1729  2.2204 -0.4424
  216THY    CP2 5382   1.474   9.262   6.090  0.3911  0.5971  0.2779
  216THY    HP2 5383   1.567   9.318   6.085  0.5618  0.2334 -0.9500
  216THY    HP3 5384   1.468   9.213   6.188  1.8157  2.1024  1.1538
  216THY    HP4 5385   1.470   9.190   6.007  0.7958  1.1512 -0.2269
  216THY    CP3 5386   1.346   9.431   5.947  0.7237  0.0968  0.0666
  216THY    HP5 5387   1.434   9.494   5.932 -0.2787  2.3979  2.8767
  216THY    HP6 5388   1.350   9.355   5.868 -0.3349  0.9315 -0.8234
  216THY    HP7 5389   1.257   9.492   5.929  1.5888  1.2095 -0.5624
  216THY    CA3 5390   1.185   9.175   6.004 -0.6337 -0.8757  0.5188
  216THY    HA3 5391   1.260   9.140   5.934 -1.1898 -1.1584  0.0532
  216THY    CA4 5392   1.071   9.098   6.038  0.6742 -0.1391  0.1007
  216THY    HA4 5393   1.043   9.010   5.979  0.1339  0.2738 -0.2683
  216THY    CA5 5394   0.991   9.111   6.153 -0.4762  0.3325  0.0975
  216THY    CM1 5395   0.871   9.020   6.176  0.1278  0.3948 -0.0957
  216THY    HM1 5396   0.892   8.915   6.158  0.5611  0.0208  2.2721
  216THY    HM2 5397   0.838   9.046   6.277  1.5544 -0.4027  0.5932
  216THY    HM3 5398   0.789   9.055   6.111 -0.9595  0.9029  1.4960
  216THY    CA6 5399   1.023   9.223   6.238 -0.0502  0.0126  0.5078
  216THY    HA6 5400   0.950   9.250   6.314 -0.8154 -0.5283 -0.0088
  217THY      O 5401   1.344   9.487   6.613  0.2152 -0.1299 -0.5467
  217THY     HO 5402   1.352   9.528   6.525 -0.8651  3.2084  0.7401
  217THY    CA1 5403   1.437   9.394   6.624  0.4063  0.4804 -0.4197
  217THY    CA2 5404   1.489   9.361   6.745 -0.1784 -0.0828 -0.7373
  217THY    CP1 5405   1.429   9.409   6.877  0.1414 -0.4457  0.2796
  217THY    HP1 5406   1.336   9.465   6.865 -0.1916 -1.1157 -0.3083
  217THY    CP2 5407   1.386   9.285   6.960  0.3304 -0.2762 -0.3852
  217THY    HP2 5408   1.317   9.321   7.038  1.1423 -0.3900  0.4091
  217THY    HP3 5409   1.333   9.211   6.900 -3.0159  1.0863  0.6912
  217THY    HP4 5410   1.465   9.252   7.029 -1.9548  0.7725  2.9918
  217THY    CP3 5411   1.533   9.491   6.957  0.3103  0.1481  0.2066
  217THY    HP5 5412   1.597   9.428   7.020  2.5248  1.7199 -0.3307
  217THY    HP6 5413   1.602   9.548   6.892  2.5134 -1.0293  1.3920
  217THY    HP7 5414   1.469   9.556   7.018  0.4785  0.9785 -0.4691
  217THY    CA3 5415   1.601   9.278   6.750  0.4082  0.4983 -0.1895
  217THY    HA3 5416   1.651   9.255   6.844  0.3867  0.0903 -0.2753
  217THY    CA4 5417   1.657   9.225   6.633 -1.0354  0.1646 -0.7108
  217THY    HA4 5418   1.749   9.168   6.645 -0.6120  0.5200 -2.1109
  217THY    CA5 5419   1.603   9.260   6.511 -0.7705  0.2708  0.6568
  217THY    CM1 5420   1.650   9.195   6.383 -0.2565 -0.3761 -0.0373
  217THY    HM1 5421   1.751   9.164   6.411 -0.4295  0.1737  1.2558
  217THY    HM2 5422   1.594   9.110   6.342 -0.2193  0.3444 -1.6487
  217THY    HM3 5423   1.661   9.264   6.298 -0.0663 -2.1768 -1.5181
  217THY    CA6 5424   1.486   9.339   6.506  0.2810  0.4269 -0.0742
  217THY    HA6 5425   1.439   9.362   6.410  0.3211  0.9352  0.0252
  218THY      O 5426   9.514   1.939   4.878  0.2562 -0.2961 -0.0388
  218THY     HO 5427   9.492   1.845   4.890  0.6381 -0.4597 -0.5940
  218THY    CA1 5428   9.550   1.954   4.749  0.0115 -0.9579 -0.5644
  218THY    CA2 5429   9.636   2.064   4.715  0.4171  0.7502  0.1859
  218THY    CP1 5430   9.691   2.155   4.824 -0.0306  0.3459 -0.2671
  218THY    HP1 5431   9.685   2.102   4.919 -1.0711  1.9506  0.6132
  218THY    CP2 5432   9.838   2.187   4.810 -0.0752  0.2657 -0.1512
  218THY    HP2 5433   9.891   2.092   4.797 -0.2192  0.1602  0.0230
  218THY    HP3 5434   9.857   2.244   4.718 -0.6212  1.9075  0.7068
  218THY    HP4 5435   9.877   2.237   4.900  0.6998 -0.1738 -0.2355
  218THY    CP3 5436   9.606   2.282   4.830  0.1130  0.0701 -0.1716
  218THY    HP5 5437   9.637   2.352   4.909  2.7837 -0.3064 -0.7879
  218THY    HP6 5438   9.615   2.343   4.739  0.2443  0.8212  0.3310
  218THY    HP7 5439   9.503   2.250   4.852 -0.8435  2.2340 -1.2449
  218THY    CA3 5440   9.656   2.084   4.586 -0.2994 -0.7310  0.6769
  218THY    HA3 5441   9.728   2.160   4.557 -1.6465 -0.0424 -1.0407
  218THY    CA4 5442   9.596   2.009   4.489 -0.1326  0.2033 -0.0171
  218THY    HA4 5443   9.632   2.022   4.387  0.6508 -0.4421  0.1676
  218THY    CA5 5444   9.513   1.900   4.514 -0.1984 -0.4196  0.5703
  218THY    CM1 5445   9.470   1.812   4.402 -0.6108 -0.1450 -0.3136
  218THY    HM1 5446   9.477   1.872   4.310  3.9830  2.2723  1.2717
  218THY    HM2 5447   9.529   1.720   4.392 -0.1025  0.0626  0.6381
  218THY    HM3 5448   9.365   1.792   4.424 -0.3246  0.6276  2.0525
  218THY    CA6 5449   9.490   1.872   4.645  0.3707 -1.2175 -0.0044
  218THY    HA6 5450   9.426   1.788   4.670 -0.4651 -0.7388 -0.4951
  219THY      O 5451   6.954   6.677   1.478  0.1052  0.0972  0.2266
  219THY     HO 5452   6.959   6.773   1.494  2.7030 -0.0043  0.4718
  219THY    CA1 5453   6.823   6.652   1.449 -0.0710 -0.5124  0.7305
  219THY    CA2 5454   6.754   6.531   1.490 -0.2112 -0.3278  0.5779
  219THY    CP1 5455   6.832   6.421   1.570 -0.0905  0.1707 -0.0088
  219THY    HP1 5456   6.936   6.448   1.593  0.9408 -2.4422 -1.2933
  219THY    CP2 5457   6.758   6.393   1.697  0.5332 -0.1136 -0.2829
  219THY    HP2 5458   6.655   6.358   1.684 -0.6591  2.5831  0.9342
  219THY    HP3 5459   6.817   6.328   1.763  0.1434 -2.0775 -1.7930
  219THY    HP4 5460   6.739   6.490   1.746 -0.1740 -0.1037 -0.5574
  219THY    CP3 5461   6.853   6.289   1.495 -0.4238  0.3868 -0.0857
  219THY    HP5 5462   6.758   6.260   1.447 -0.2921 -0.1267 -0.0318
  219THY    HP6 5463   6.931   6.306   1.420 -1.1934 -0.7060 -1.1681
  219THY    HP7 5464   6.884   6.210   1.564  2.0042  2.6270  1.5869
  219THY    CA3 5465   6.614   6.522   1.457 -0.3784 -0.3184  0.2213
  219THY    HA3 5466   6.558   6.430   1.470 -0.9928 -0.1056 -0.8179
  219THY    CA4 5467   6.549   6.624   1.390  0.3708 -0.4858 -0.0196
  219THY    HA4 5468   6.442   6.611   1.373 -0.1909  1.8908  1.2237
  219THY    CA5 5469   6.620   6.739   1.348  1.3150 -0.2976  0.2759
  219THY    CM1 5470   6.548   6.855   1.266  0.3928 -0.0401 -0.4748
  219THY    HM1 5471   6.596   6.951   1.288 -1.3608  0.4075  1.7898
  219THY    HM2 5472   6.553   6.828   1.160 -0.9388 -2.4593  0.0105
  219THY    HM3 5473   6.445   6.845   1.301  0.6598 -2.6031 -0.1926
  219THY    CA6 5474   6.750   6.755   1.387  0.0711 -0.6782  0.0761
  219THY    HA6 5475   6.795   6.848   1.352 -0.1781 -0.4562  0.3305
  220THY      O 5476   6.564   5.793   1.920  0.6279 -0.5565  0.0188
  220THY     HO 5477   6.655   5.822   1.902 -0.0584  1.6040 -0.2543
  220THY    CA1 5478   6.539   5.676   1.855 -0.4902  0.0914  0.0564
  220THY    CA2 5479   6.408   5.630   1.830 -0.2147  0.9250 -0.2203
  220THY    CP1 5480   6.284   5.711   1.878 -0.0082  0.8288 -0.1552
  220THY    HP1 5481   6.304   5.814   1.910 -1.4325  1.1576 -0.2992
  220THY    CP2 5482   6.173   5.708   1.768 -0.3360  0.6377 -0.0874
  220THY    HP2 5483   6.126   5.610   1.755 -0.0699  0.5547 -0.4369
  220THY    HP3 5484   6.098   5.780   1.802  0.4380  1.7893 -0.7658
  220THY    HP4 5485   6.220   5.741   1.675  1.4871  1.7579  1.1554
  220THY    CP3 5486   6.220   5.630   2.000  0.1361  0.0003 -0.4873
  220THY    HP5 5487   6.115   5.661   2.005 -0.2389 -1.2534 -0.1761
  220THY    HP6 5488   6.211   5.522   1.984  0.3084  0.0401 -0.8674
  220THY    HP7 5489   6.269   5.645   2.097  0.8377  0.4160 -0.8978
  220THY    CA3 5490   6.392   5.499   1.773 -0.2289  0.9627 -0.4223
  220THY    HA3 5491   6.292   5.457   1.773 -0.2150  0.9091  0.6694
  220THY    CA4 5492   6.496   5.417   1.732 -0.6891 -0.0870 -0.1231
  220THY    HA4 5493   6.480   5.312   1.708 -2.2955  0.3606 -1.1693
  220THY    CA5 5494   6.630   5.471   1.741 -0.1238 -0.1528 -0.1528
  220THY    CM1 5495   6.740   5.386   1.701  0.0118 -0.0320  0.0062
  220THY    HM1 5496   6.835   5.437   1.723  0.4621 -1.2207  0.8521
  220THY    HM2 5497   6.752   5.296   1.761  1.8572  0.7713  0.9017
  220THY    HM3 5498   6.720   5.375   1.593 -2.0377 -3.4559  0.5948
  220THY    CA6 5499   6.653   5.598   1.805 -0.2911 -0.1059  0.2445
  220THY    HA6 5500   6.756   5.629   1.819 -0.1072  0.2360 -1.5615
  221THY      O 5501   6.690   7.341   0.752  0.2963  0.5985 -0.0718
  221THY     HO 5502   6.712   7.284   0.828  0.3945 -1.5830 -1.6387
  221THY    CA1 5503   6.722   7.463   0.799  0.1455  0.2855 -0.3579
  221THY    CA2 5504   6.647   7.573   0.768 -0.1053  0.2398 -0.0563
  221THY    CP1 5505   6.517   7.562   0.701 -0.0008  0.0730  0.0807
  221THY    HP1 5506   6.490   7.459   0.676 -1.6317  0.7370 -1.1042
  221THY    CP2 5507   6.404   7.635   0.774 -1.0107 -0.1519  0.2061
  221THY    HP2 5508   6.307   7.608   0.731 -0.4758  0.9165 -1.7663
  221THY    HP3 5509   6.399   7.606   0.880 -2.9837 -0.1162  0.1620
  221THY    HP4 5510   6.419   7.742   0.793 -0.5916 -0.4539  1.7564
  221THY    CP3 5511   6.531   7.631   0.557 -0.1670  0.3711  0.0973
  221THY    HP5 5512   6.617   7.599   0.497  0.1858 -1.5369  1.5224
  221THY    HP6 5513   6.436   7.623   0.503 -0.7662 -0.3017  1.2055
  221THY    HP7 5514   6.542   7.739   0.571 -2.2424  0.7167 -0.5108
  221THY    CA3 5515   6.688   7.700   0.815  0.0301  0.0300 -0.0056
  221THY    HA3 5516   6.635   7.785   0.772 -1.8554 -2.0653 -2.1169
  221THY    CA4 5517   6.803   7.717   0.898  0.0377 -0.6958  0.1932
  221THY    HA4 5518   6.841   7.814   0.927 -2.4204  0.4603 -0.2385
  221THY    CA5 5519   6.870   7.600   0.938 -0.2237  0.5682 -0.1656
  221THY    CM1 5520   7.006   7.608   1.001 -0.2686 -0.2302  0.2210
  221THY    HM1 5521   7.071   7.689   0.966 -0.3583 -0.6060 -0.8391
  221THY    HM2 5522   7.001   7.617   1.110 -1.7552 -1.1158  0.2525
  221THY    HM3 5523   7.066   7.519   0.976  0.9694  0.4331  0.7235
  221THY    CA6 5524   6.830   7.476   0.884  0.5078 -0.3098 -0.2300
  221THY    HA6 5525   6.895   7.393   0.910 -0.8427 -0.6920  2.2570
  222THY      O 5526   4.401   2.530   6.371 -0.2803 -0.3438  0.5053
  222THY     HO 5527   4.380   2.528   6.466 -0.0996 -1.0626  0.5428
  222THY    CA1 5528   4.278   2.541   6.297  0.5041  0.3880  0.2443
  222THY    CA2 5529   4.273   2.502   6.164  0.0417  0.1965 -0.0014
  222THY    CP1 5530   4.407   2.467   6.092 -0.5352 -1.0187  0.0796
  222THY    HP1 5531   4.501   2.477   6.148  0.7835  0.3924 -2.2057
  222THY    CP2 5532   4.411   2.327   6.024 -0.1453  0.6192 -0.1326
  222THY    HP2 5533   4.318   2.307   5.968 -0.9553 -2.2715  1.9762
  222THY    HP3 5534   4.500   2.318   5.962 -0.5217  2.1143 -0.9380
  222THY    HP4 5535   4.418   2.247   6.099 -2.9780 -1.5262 -1.9434
  222THY    CP3 5536   4.416   2.582   5.988 -0.6425  0.7869  0.8747
  222THY    HP5 5537   4.395   2.680   6.033 -1.8294  0.8542  0.2099
  222THY    HP6 5538   4.514   2.582   5.937 -0.6270 -3.9018  0.4713
  222THY    HP7 5539   4.335   2.574   5.914  0.5586 -1.3646 -0.3001
  222THY    CA3 5540   4.145   2.477   6.101  0.0319 -0.4801 -0.2053
  222THY    HA3 5541   4.141   2.428   6.005 -1.7146 -0.9216  0.0573
  222THY    CA4 5542   4.025   2.497   6.184  0.7231 -0.8581 -0.8690
  222THY    HA4 5543   3.928   2.483   6.136  1.2412 -0.1458 -2.1809
  222THY    CA5 5544   4.034   2.545   6.313 -0.2983 -0.0042  0.2653
  222THY    CM1 5545   3.913   2.580   6.400 -0.3742 -0.5740 -0.9745
  222THY    HM1 5546   3.825   2.617   6.347 -1.0432  1.6408  1.4540
  222THY    HM2 5547   3.881   2.483   6.442  0.1301 -0.6528 -0.7558
  222THY    HM3 5548   3.930   2.652   6.481  1.1814  0.8848 -2.5039
  222THY    CA6 5549   4.161   2.565   6.373  0.5608 -1.0210 -0.1121
  222THY    HA6 5550   4.163   2.600   6.475  0.1221  0.3414 -0.5527
  223THY      O 5551   3.471   2.566   8.449  0.2262 -0.1948 -0.1097
  223THY     HO 5552   3.523   2.558   8.368 -0.1573  0.5163 -0.4386
  223THY    CA1 5553   3.392   2.674   8.430  0.1989 -0.0722 -0.5520
  223THY    CA2 5554   3.301   2.718   8.530  0.2017  0.1510 -0.0285
  223THY    CP1 5555   3.277   2.623   8.650  0.4947 -0.3431  0.0720
  223THY    HP1 5556   3.288   2.522   8.609 -0.0979 -0.8140  1.0454
  223THY    CP2 5557   3.382   2.641   8.760  0.0542  0.0910  0.2710
  223THY    HP2 5558   3.393   2.553   8.824 -0.7322 -1.1770 -1.2715
  223THY    HP3 5559   3.479   2.653   8.711  0.9161 -1.0637  1.6380
  223THY    HP4 5560   3.377   2.741   8.807 -0.2908  0.3586 -0.3236
  223THY    CP3 5561   3.134   2.634   8.707 -0.0597 -0.4891 -0.3102
  223THY    HP5 5562   3.059   2.624   8.628 -0.5944 -3.0982  0.4452
  223THY    HP6 5563   3.126   2.552   8.780  1.7471 -0.3464  0.0863
  223THY    HP7 5564   3.128   2.731   8.759 -0.7643  0.1101 -1.4823
  223THY    CA3 5565   3.216   2.829   8.503  0.1527 -0.1889  0.7033
  223THY    HA3 5566   3.145   2.871   8.574  0.1820  3.6828 -1.2411
  223THY    CA4 5567   3.245   2.910   8.393 -0.2137 -0.6881  0.6747
  223THY    HA4 5568   3.191   3.001   8.369  1.7665 -0.0663 -1.9129
  223THY    CA5 5569   3.337   2.869   8.298 -0.7284 -1.1095  0.3596
  223THY    CM1 5570   3.381   2.955   8.181  0.6526 -0.0560 -0.3010
  223THY    HM1 5571   3.404   2.903   8.087 -1.1646 -0.4724 -0.5427
  223THY    HM2 5572   3.309   3.035   8.158  0.4115  0.4103  1.8350
  223THY    HM3 5573   3.474   2.999   8.219  1.2510 -1.7273  0.2486
  223THY    CA6 5574   3.412   2.754   8.320 -0.3597  0.1971  0.1707
  223THY    HA6 5575   3.494   2.742   8.249 -1.7938  2.2625 -1.9581
  224THY      O 5576   5.790   6.715   7.895  0.3218 -0.4564  0.5180
  224THY     HO 5577   5.766   6.784   7.959 -0.5909 -1.2615  1.0760
  224THY    CA1 5578   5.690   6.630   7.911  0.8175 -0.3459 -0.2359
  224THY    CA2 5579   5.680   6.513   7.833  1.0592 -0.2192 -0.2876
  224THY    CP1 5580   5.785   6.472   7.727  0.3080 -0.3735  0.1175
  224THY    HP1 5581   5.882   6.520   7.745  0.8478 -1.6921  0.8339
  224THY    CP2 5582   5.822   6.323   7.725  0.0155 -0.5660 -0.6500
  224THY    HP2 5583   5.812   6.288   7.828 -1.5399  1.2506 -0.1170
  224THY    HP3 5584   5.764   6.270   7.648 -1.6960 -0.1515  0.3020
  224THY    HP4 5585   5.929   6.310   7.705  1.2497  1.3783  3.5298
  224THY    CP3 5586   5.738   6.518   7.586 -0.2711 -1.1697  0.9888
  224THY    HP5 5587   5.661   6.449   7.550 -0.2274 -1.7785  2.0271
  224THY    HP6 5588   5.702   6.622   7.592  0.2673 -1.0455  2.4490
  224THY    HP7 5589   5.819   6.513   7.511 -0.8986 -1.7556  0.3317
  224THY    CA3 5590   5.577   6.418   7.863  0.8657 -0.3856 -0.6318
  224THY    HA3 5591   5.575   6.326   7.807  0.2947 -1.0543  0.4477
  224THY    CA4 5592   5.486   6.439   7.970  0.2111 -0.0635 -0.7251
  224THY    HA4 5593   5.397   6.381   7.993  0.5382  0.3872  1.9349
  224THY    CA5 5594   5.491   6.565   8.035  0.0979  0.2394 -0.4899
  224THY    CM1 5595   5.382   6.610   8.128  0.6022 -0.4027  0.0752
  224THY    HM1 5596   5.329   6.693   8.081  0.9573  0.5807  1.3470
  224THY    HM2 5597   5.312   6.530   8.154 -0.0193  0.8466  2.5287
  224THY    HM3 5598   5.425   6.640   8.224 -1.2436 -2.3761  1.6321
  224THY    CA6 5599   5.588   6.657   8.002 -1.0553 -0.6587  0.6410
  224THY    HA6 5600   5.587   6.750   8.057  0.2434  0.2778 -0.8385
  225THY      O 5601   6.509   8.419   2.479  0.3856  0.5680 -0.3466
  225THY     HO 5602   6.599   8.456   2.486  0.5034  0.0437  1.8605
  225THY    CA1 5603   6.496   8.362   2.605  0.2515 -0.5165  0.1772
  225THY    CA2 5604   6.517   8.224   2.620  0.2735  0.4657 -0.3227
  225THY    CP1 5605   6.551   8.132   2.506  0.1778  0.0048 -0.5584
  225THY    HP1 5606   6.569   8.187   2.413 -0.3468  0.3454 -0.4647
  225THY    CP2 5607   6.679   8.043   2.531 -0.4837  0.0706 -0.4339
  225THY    HP2 5608   6.728   8.024   2.434  0.0427  1.6399 -0.5090
  225THY    HP3 5609   6.743   8.107   2.593 -0.5701  0.8935 -1.1660
  225THY    HP4 5610   6.661   7.951   2.586  2.4134  0.1732  0.8579
  225THY    CP3 5611   6.434   8.022   2.498  0.1293  0.2396  0.3815
  225THY    HP5 5612   6.406   7.967   2.589 -1.5340  0.2336 -0.1043
  225THY    HP6 5613   6.342   8.064   2.456  0.9373  2.5553  0.7773
  225THY    HP7 5614   6.476   7.950   2.427  1.5847 -1.4183  2.7569
  225THY    CA3 5615   6.510   8.173   2.748 -0.2079  0.4133  0.7042
  225THY    HA3 5616   6.517   8.068   2.776 -1.3626 -0.1876 -1.0928
  225THY    CA4 5617   6.477   8.262   2.849  0.3806  0.6550  0.5141
  225THY    HA4 5618   6.466   8.210   2.943 -0.0820  0.6111  0.4424
  225THY    CA5 5619   6.454   8.397   2.837 -0.2149 -0.0769  0.0123
  225THY    CM1 5620   6.394   8.472   2.959 -0.1577  0.5112  0.7667
  225THY    HM1 5621   6.474   8.521   3.016 -1.7145  2.9248  0.9952
  225THY    HM2 5622   6.314   8.540   2.928 -0.9469 -0.9101 -0.4430
  225THY    HM3 5623   6.335   8.399   3.016 -0.1228 -0.7903 -0.7828
  225THY    CA6 5624   6.463   8.446   2.704 -0.0217  0.2855  0.1744
  225THY    HA6 5625   6.462   8.552   2.681  1.9150 -0.0808 -2.0001
  226THY      O 5626   9.439   5.398   7.778 -1.0356  0.2814 -0.8377
  226THY     HO 5627   9.485   5.478   7.807  2.8967 -1.8584 -0.4632
  226THY    CA1 5628   9.306   5.416   7.800 -0.1931 -0.1980 -0.8646
  226THY    CA2 5629   9.217   5.318   7.766  0.4213 -0.2464  0.3349
  226THY    CP1 5630   9.248   5.206   7.658  0.1795  0.1375 -1.4676
  226THY    HP1 5631   9.357   5.190   7.661 -0.0541 -1.4542  0.2010
  226THY    CP2 5632   9.190   5.069   7.697 -0.2339  0.7274 -1.0437
  226THY    HP2 5633   9.222   5.036   7.797 -3.5151 -1.2774 -0.4889
  226THY    HP3 5634   9.081   5.079   7.707 -0.0621  0.3235  3.8153
  226THY    HP4 5635   9.201   4.986   7.626  0.2373  0.2200 -0.3956
  226THY    CP3 5636   9.201   5.237   7.519  0.0411  0.4049  0.5490
  226THY    HP5 5637   9.239   5.160   7.451  0.5594  1.2528 -0.1533
  226THY    HP6 5638   9.092   5.245   7.504 -0.1487 -0.8420  1.1922
  226THY    HP7 5639   9.224   5.341   7.490 -2.0170  0.5842 -0.6794
  226THY    CA3 5640   9.085   5.334   7.810  0.3534 -0.4294 -0.1081
  226THY    HA3 5641   9.011   5.271   7.761  1.8486 -0.7527 -2.1011
  226THY    CA4 5642   9.044   5.445   7.888  0.1488  0.3681 -0.0345
  226THY    HA4 5643   8.940   5.460   7.912  0.5437  0.1142  1.9479
  226THY    CA5 5644   9.135   5.542   7.919 -0.1921  0.6760  0.1068
  226THY    CM1 5645   9.092   5.663   8.000 -0.0644  0.6719 -0.3697
  226THY    HM1 5646   9.026   5.728   7.941 -0.1512 -0.1591 -1.2126
  226THY    HM2 5647   9.029   5.631   8.084 -1.1251  1.4872 -0.8237
  226THY    HM3 5648   9.178   5.714   8.045 -0.6364  1.2832  0.0580
  226THY    CA6 5649   9.262   5.528   7.871 -0.1880 -0.0219  0.8425
  226THY    HA6 5650   9.339   5.599   7.897 -1.5056  2.4555 -1.5617
  227THY      O 5651   0.135   5.586   5.260  0.9435 -0.3679  0.2739
  227THY     HO 5652   0.163   5.557   5.348 -0.1283 -0.2261  0.6824
  227THY    CA1 5653   0.178   5.495   5.170 -0.6585  0.3035 -0.4864
  227THY    CA2 5654   0.102   5.448   5.059 -0.2387  0.1060  0.2811
  227THY    CP1 5655  -0.023   5.523   5.009 -0.2882  0.5736  0.3596
  227THY    HP1 5656  -0.064   5.581   5.092  0.9373  1.0695  0.6380
  227THY    CP2 5657   0.006   5.619   4.897  0.1341  0.0230  0.7835
  227THY    HP2 5658   0.025   5.564   4.804 -0.0704  0.8378  0.2484
  227THY    HP3 5659  -0.081   5.684   4.883  0.2904 -0.1483 -1.2590
  227THY    HP4 5660   0.092   5.684   4.916  0.1483  1.5981 -3.6105
  227THY    CP3 5661  -0.125   5.414   4.974  0.0067 -0.1102 -0.5594
  227THY    HP5 5662  -0.225   5.458   4.980  0.8805  2.0660 -0.9735
  227THY    HP6 5663  -0.117   5.367   4.875  0.2275  0.6993 -0.9391
  227THY    HP7 5664  -0.121   5.333   5.047 -0.8914  0.2117 -0.1478
  227THY    CA3 5665   0.159   5.347   4.981  0.2104 -0.2638  0.7397
  227THY    HA3 5666   0.119   5.312   4.887  0.2461  0.9099  0.2694
  227THY    CA4 5667   0.275   5.282   5.032  0.0770  0.9221 -0.6710
  227THY    HA4 5668   0.328   5.213   4.967  2.6078  1.4527  0.7154
  227THY    CA5 5669   0.341   5.321   5.144 -0.1446  0.4069 -0.6811
  227THY    CM1 5670   0.473   5.254   5.178 -0.5029 -1.0569  0.0846
  227THY    HM1 5671   0.548   5.334   5.166  0.1252 -1.7280 -0.5870
  227THY    HM2 5672   0.474   5.213   5.279 -1.7775 -0.5552  0.3194
  227THY    HM3 5673   0.493   5.176   5.104  1.1178  1.4244 -2.3440
  227THY    CA6 5674   0.295   5.433   5.210  0.0257 -1.1539 -0.7199
  227THY    HA6 5675   0.349   5.464   5.299 -0.7082 -1.9980  0.0337
  228THY      O 5676   7.323   0.147   4.225 -0.6537  0.5446 -0.1122
  228THY     HO 5677   7.322   0.057   4.188  0.8843  0.4896 -0.1071
  228THY    CA1 5678   7.425   0.140   4.321  0.1146  0.9410 -0.6378
  228THY    CA2 5679   7.401   0.138   4.459  0.6777 -0.8134  0.1984
  228THY    CP1 5680   7.258   0.141   4.508 -0.4481  0.2440  0.2340
  228THY    HP1 5681   7.189   0.160   4.425  0.1608 -0.4417 -0.4507
  228THY    CP2 5682   7.232   0.005   4.576  0.2350  0.6285 -0.3530
  228THY    HP2 5683   7.134   0.011   4.624  1.1443  0.7546  1.5703
  228THY    HP3 5684   7.244  -0.079   4.506 -0.9539 -1.1717  1.4827
  228THY    HP4 5685   7.298  -0.017   4.661 -0.7727 -0.0593  0.2805
  228THY    CP3 5686   7.214   0.260   4.603 -0.5391  1.0474  0.0766
  228THY    HP5 5687   7.260   0.266   4.702 -1.7369 -1.0462  0.8322
  228THY    HP6 5688   7.223   0.361   4.562  1.9095  1.4242  1.3467
  228THY    HP7 5689   7.111   0.236   4.634  0.5482  0.0067  3.2254
  228THY    CA3 5690   7.513   0.129   4.551 -0.3774  0.3501  0.6637
  228THY    HA3 5691   7.503   0.135   4.659 -1.1193 -0.7611  0.6837
  228THY    CA4 5692   7.643   0.104   4.491  0.4826  0.5107 -0.5921
  228THY    HA4 5693   7.727   0.088   4.558 -1.7606 -2.6490  1.7329
  228THY    CA5 5694   7.661   0.104   4.356 -0.5111 -0.0323 -0.0113
  228THY    CM1 5695   7.801   0.093   4.295  0.1934  0.1377 -0.2544
  228THY    HM1 5696   7.803   0.123   4.190  1.0957  1.1400  0.0361
  228THY    HM2 5697   7.863   0.163   4.352 -1.8808  2.7176 -0.9523
  228THY    HM3 5698   7.843  -0.007   4.308 -2.7651 -0.8894  3.8389
  228THY    CA6 5699   7.556   0.127   4.273  0.5272  0.0500 -0.0401
  228THY    HA6 5700   7.565   0.117   4.166  0.4220 -0.6106  0.0067
  229THY      O 5701   3.341   0.848   2.230  0.1462 -1.1666  0.3333
  229THY     HO 5702   3.432   0.882   2.240 -0.0597 -1.0416  2.2286
  229THY    CA1 5703   3.274   0.918   2.328 -0.0565  0.0200 -0.1715
  229THY    CA2 5704   3.143   0.882   2.367 -0.5648 -0.2641  0.5027
  229THY    CP1 5705   3.063   0.771   2.306 -0.4980  0.5223  0.4373
  229THY    HP1 5706   3.131   0.716   2.240 -0.2183  0.9705  0.3452
  229THY    CP2 5707   3.018   0.668   2.413  0.2452 -0.9096 -0.1193
  229THY    HP2 5708   3.108   0.637   2.468  1.4000  1.6071 -0.4137
  229THY    HP3 5709   2.945   0.714   2.481  1.0484 -0.2538  0.3136
  229THY    HP4 5710   2.986   0.579   2.359  0.6608 -0.3498 -1.3333
  229THY    CP3 5711   2.944   0.828   2.220 -0.7720  0.2090  0.3889
  229THY    HP5 5712   2.871   0.879   2.285  1.2620  1.7862  1.5521
  229THY    HP6 5713   2.989   0.900   2.151  0.8441  1.1948  2.3531
  229THY    HP7 5714   2.895   0.753   2.157  0.4237  0.8950 -1.4424
  229THY    CA3 5715   3.085   0.955   2.472  0.1767  0.5130  0.9986
  229THY    HA3 5716   2.987   0.930   2.512  0.2804 -0.3788  0.7157
  229THY    CA4 5717   3.152   1.064   2.523  0.1939 -0.6175 -1.2798
  229THY    HA4 5718   3.109   1.126   2.602  0.8507 -1.2451 -0.4062
  229THY    CA5 5719   3.276   1.104   2.485 -0.1243  0.1116  0.3339
  229THY    CM1 5720   3.324   1.241   2.525 -0.9285  0.9406  0.9239
  229THY    HM1 5721   3.432   1.250   2.514 -0.7144 -0.0169  2.0927
  229THY    HM2 5722   3.260   1.320   2.482  0.7258  0.7975 -2.0415
  229THY    HM3 5723   3.293   1.254   2.630 -1.3915  0.7577  0.8147
  229THY    CA6 5724   3.340   1.031   2.386 -0.5874 -0.0684 -0.2930
  229THY    HA6 5725   3.431   1.070   2.341 -0.8962  0.0743 -0.7947
  230THY      O 5726   0.462   2.960   6.150  0.2468  0.0618 -0.7279
  230THY     HO 5727   0.536   2.918   6.102  0.2948  2.1181 -2.6520
  230THY    CA1 5728   0.409   3.051   6.073 -0.2946 -0.1557  0.1055
  230THY    CA2 5729   0.315   3.144   6.123 -0.9005 -0.1604  0.5178
  230THY    CP1 5730   0.276   3.139   6.270  0.2993  0.2455  0.5905
  230THY    HP1 5731   0.359   3.105   6.334 -1.1656 -3.0776  0.9004
  230THY    CP2 5732   0.250   3.277   6.313  0.1365 -0.5336  0.1425
  230THY    HP2 5733   0.161   3.315   6.263  0.6252 -1.0227 -1.1447
  230THY    HP3 5734   0.226   3.278   6.420 -1.9783  1.5109 -0.2605
  230THY    HP4 5735   0.334   3.341   6.284 -0.2648 -0.4257 -0.8157
  230THY    CP3 5736   0.160   3.039   6.291 -0.1670  0.3373 -0.3696
  230THY    HP5 5737   0.135   3.035   6.397  0.1802 -1.0846 -0.3311
  230THY    HP6 5738   0.076   3.075   6.230 -0.6435  1.1811  0.7421
  230THY    HP7 5739   0.191   2.939   6.259  0.2963  1.0564 -2.3805
  230THY    CA3 5740   0.268   3.244   6.032  0.5024  0.2018  0.4161
  230THY    HA3 5741   0.198   3.322   6.059  2.4276  1.8878  0.7841
  230THY    CA4 5742   0.315   3.251   5.899 -0.5878  0.1503  0.7013
  230THY    HA4 5743   0.283   3.322   5.823 -0.2932 -1.4278 -0.9595
  230THY    CA5 5744   0.396   3.152   5.851  0.5367 -0.4927 -0.9378
  230THY    CM1 5745   0.461   3.176   5.722  0.2658 -0.3491 -0.3847
  230THY    HM1 5746   0.560   3.221   5.737 -0.7857  1.1044  2.9381
  230THY    HM2 5747   0.479   3.082   5.667  2.3235  1.6590 -3.4345
  230THY    HM3 5748   0.405   3.235   5.649 -1.2669 -2.0004 -0.6268
  230THY    CA6 5749   0.447   3.055   5.942 -0.2521  0.0719 -0.8275
  230THY    HA6 5750   0.519   2.983   5.905 -0.4554  0.2412 -1.5684
  231THY      O 5751   4.377   3.936   4.925  0.0584 -0.2259  0.0946
  231THY     HO 5752   4.466   3.973   4.918  0.3290 -0.7416  0.6831
  231THY    CA1 5753   4.373   3.900   5.049  0.0032 -0.6166 -0.9621
  231THY    CA2 5754   4.254   3.872   5.116 -0.5361 -0.0957 -0.3599
  231THY    CP1 5755   4.122   3.847   5.051  0.6806 -0.6441 -0.2295
  231THY    HP1 5756   4.126   3.875   4.945 -0.6117 -0.5937 -0.2796
  231THY    CP2 5757   4.087   3.698   5.055  0.5327 -0.3817  0.6345
  231THY    HP2 5758   3.992   3.682   5.003  0.0056  4.7428 -0.5954
  231THY    HP3 5759   4.171   3.637   5.019 -0.2392 -2.8964  2.8188
  231THY    HP4 5760   4.068   3.662   5.157  2.1672  1.7604  1.7984
  231THY    CP3 5761   4.008   3.932   5.125  0.2570 -0.3399  0.1356
  231THY    HP5 5762   4.048   4.034   5.123  0.4843 -0.4344 -0.2053
  231THY    HP6 5763   3.905   3.915   5.090  0.7217 -1.1367 -0.9057
  231THY    HP7 5764   4.014   3.904   5.230  0.0694 -0.0854  0.2164
  231THY    CA3 5765   4.273   3.845   5.255  1.0233  0.1368 -0.2347
  231THY    HA3 5766   4.185   3.837   5.318 -0.2588  1.4770 -1.7814
  231THY    CA4 5767   4.392   3.857   5.314  0.8179  1.2764  0.2208
  231THY    HA4 5768   4.398   3.844   5.421  0.1740 -2.7861 -0.0662
  231THY    CA5 5769   4.509   3.871   5.237  0.1071  0.5086 -0.1580
  231THY    CM1 5770   4.634   3.861   5.307  0.1630 -0.3139  1.4643
  231THY    HM1 5771   4.624   3.824   5.410  0.3237 -1.3952  1.0964
  231THY    HM2 5772   4.710   3.795   5.264 -0.0340  0.0073  0.6135
  231THY    HM3 5773   4.672   3.964   5.309 -0.1899 -0.1679  0.6542
  231THY    CA6 5774   4.497   3.901   5.104 -0.4772 -0.2029 -0.3138
  231THY    HA6 5775   4.582   3.930   5.043 -2.3621  2.3235 -1.9387
  232THY      O 5776   3.906   9.572   6.505  1.2643  0.2737  0.5819
  232THY     HO 5777   3.892   9.482   6.539 -0.2124  0.7777  1.3574
  232THY    CA1 5778   3.785   9.600   6.456 -0.0597  0.0099 -0.4468
  232THY    CA2 5779   3.744   9.725   6.395 -0.5865 -0.6499  0.1112
  232THY    CP1 5780   3.835   9.838   6.367  0.2604  0.4079 -0.5275
  232THY    HP1 5781   3.937   9.808   6.393 -0.4287 -2.1070 -0.5263
  232THY    CP2 5782   3.836   9.891   6.215  0.1786  0.4014 -0.1962
  232THY    HP2 5783   3.740   9.896   6.162  1.5357 -0.2785 -2.8505
  232THY    HP3 5784   3.861   9.998   6.224 -0.6585  0.4945  1.6692
  232THY    HP4 5785   3.915   9.838   6.161  1.8644 -0.0021  2.4445
  232THY    CP3 5786   3.804   9.949   6.464  0.0878 -0.5374 -0.1696
  232THY    HP5 5787   3.791   9.907   6.565  0.3806  1.2914  0.6676
  232THY    HP6 5788   3.876  10.029   6.448 -0.2449 -0.2190 -0.0834
  232THY    HP7 5789   3.713  10.006   6.443  0.2905 -0.6047 -1.2993
  232THY    CA3 5790   3.608   9.747   6.364  0.0031  0.1009  0.4644
  232THY    HA3 5791   3.578   9.843   6.323 -0.2691 -0.4830 -0.7577
  232THY    CA4 5792   3.516   9.650   6.391 -0.8927  0.0184  0.4445
  232THY    HA4 5793   3.412   9.670   6.369 -0.9786 -0.6922  0.1794
  232THY    CA5 5794   3.555   9.528   6.444  0.2456 -0.3948  0.4127
  232THY    CM1 5795   3.437   9.420   6.457 -1.0949 -0.2847  0.4928
  232THY    HM1 5796   3.465   9.328   6.509 -2.1334 -0.7207  0.3157
  232THY    HM2 5797   3.355   9.449   6.525 -3.1678 -2.9248 -0.6790
  232THY    HM3 5798   3.403   9.395   6.356  1.2281 -0.2940 -0.3355
  232THY    CA6 5799   3.685   9.500   6.472 -0.3286 -0.2201  0.3906
  232THY    HA6 5800   3.713   9.404   6.515 -2.0592 -0.6334  0.6696
  233THY      O 5801   9.256   2.967   3.971  0.0827 -0.2328  0.1208
  233THY     HO 5802   9.268   2.925   4.058  2.5263 -0.9623 -0.4829
  233THY    CA1 5803   9.218   3.093   3.996  0.1545 -0.2713 -0.2218
  233THY    CA2 5804   9.107   3.157   3.937 -1.1795  0.2313 -0.3882
  233THY    CP1 5805   9.030   3.083   3.832 -0.6931  0.0332 -0.0582
  233THY    HP1 5806   9.083   2.988   3.817 -1.3565  0.0360 -2.8271
  233THY    CP2 5807   8.882   3.067   3.867  0.1583  0.4195 -0.1023
  233THY    HP2 5808   8.871   3.019   3.964 -1.5435  0.4038 -0.2734
  233THY    HP3 5809   8.834   3.165   3.857  1.1865  0.8453 -1.1564
  233THY    HP4 5810   8.833   2.999   3.797  0.7478  0.4633 -0.5677
  233THY    CP3 5811   9.041   3.162   3.699 -0.0520  0.2155  0.2360
  233THY    HP5 5812   9.111   3.246   3.710  1.8388 -1.1860 -0.5899
  233THY    HP6 5813   9.083   3.104   3.617  0.3292 -1.5404  1.6187
  233THY    HP7 5814   8.947   3.206   3.662 -0.3069 -0.0065  0.6052
  233THY    CA3 5815   9.071   3.290   3.978  0.8405 -0.1479  0.5634
  233THY    HA3 5816   8.985   3.335   3.928  0.7531 -0.7046  0.2032
  233THY    CA4 5817   9.155   3.353   4.061 -1.3375 -0.6418 -0.2364
  233THY    HA4 5818   9.130   3.451   4.100 -1.0074 -0.2133 -1.0796
  233THY    CA5 5819   9.269   3.292   4.114 -0.0722 -0.0135  0.0514
  233THY    CM1 5820   9.345   3.363   4.221 -0.0347  0.1499 -0.2999
  233THY    HM1 5821   9.281   3.408   4.298  0.1704  1.9457 -1.1053
  233THY    HM2 5822   9.423   3.294   4.255  0.2049 -0.2393 -1.6049
  233THY    HM3 5823   9.402   3.447   4.179 -0.6382  0.3303 -0.7696
  233THY    CA6 5824   9.303   3.169   4.079  0.0114 -0.0205 -0.3353
  233THY    HA6 5825   9.384   3.123   4.134 -1.5461 -1.0818  1.1839
  234THY      O 5826   6.462   2.690   6.088  0.2495 -0.3680  0.1949
  234THY     HO 5827   6.422   2.670   6.175 -2.5698 -0.5439 -1.0201
  234THY    CA1 5828   6.471   2.818   6.066  0.0754  0.3740  0.0168
  234THY    CA2 5829   6.545   2.874   5.960 -0.1400 -0.0039 -0.2127
  234THY    CP1 5830   6.627   2.776   5.872 -0.5145  0.3830  0.0516
  234THY    HP1 5831   6.595   2.673   5.889  0.2142  0.1666  0.1303
  234THY    CP2 5832   6.616   2.817   5.722 -0.6149  0.3086 -0.1683
  234THY    HP2 5833   6.692   2.891   5.693 -1.6494  0.9401 -1.3670
  234THY    HP3 5834   6.623   2.738   5.646 -0.6068  0.6021 -0.4739
  234THY    HP4 5835   6.514   2.854   5.709 -0.8805  1.0263  3.1519
  234THY    CP3 5836   6.775   2.760   5.906  0.1411 -0.7742  0.1669
  234THY    HP5 5837   6.792   2.753   6.014 -4.0969 -2.2514  0.9285
  234THY    HP6 5838   6.818   2.667   5.866 -0.6241 -0.5053 -1.3398
  234THY    HP7 5839   6.827   2.853   5.882 -1.8748  0.5485  0.6375
  234THY    CA3 5840   6.563   3.011   5.951  0.4039 -0.2639  0.2119
  234THY    HA3 5841   6.625   3.051   5.872 -0.3650  1.2107  0.3274
  234THY    CA4 5842   6.499   3.092   6.041 -0.6811  0.3199 -0.3056
  234THY    HA4 5843   6.503   3.199   6.021 -0.1662  0.2595 -0.5553
  234THY    CA5 5844   6.425   3.032   6.148  0.0843 -0.2496  0.0078
  234THY    CM1 5845   6.366   3.115   6.257  0.1376 -0.3602 -0.4836
  234THY    HM1 5846   6.337   3.066   6.350 -1.9162  1.7928  0.1026
  234THY    HM2 5847   6.427   3.205   6.272 -2.3326  1.5814 -1.3751
  234THY    HM3 5848   6.272   3.157   6.220 -0.0839 -0.6371 -0.2378
  234THY    CA6 5849   6.409   2.900   6.152 -0.6090  0.2479 -0.4068
  234THY    HA6 5850   6.340   2.868   6.229 -2.1335  4.2229  0.1009
  235THY      O 5851   3.392   3.297   1.429 -0.1353  0.2608 -0.1762
  235THY     HO 5852   3.458   3.239   1.469 -2.2489 -1.1297  1.4821
  235THY    CA1 5853   3.361   3.371   1.536 -0.3291 -0.0679  0.1783
  235THY    CA2 5854   3.250   3.461   1.526 -0.3496  0.1503 -0.4202
  235THY    CP1 5855   3.171   3.470   1.400 -0.5992 -0.2324  0.5684
  235THY    HP1 5856   3.250   3.481   1.324 -1.0891  0.5929  0.1639
  235THY    CP2 5857   3.084   3.344   1.370 -1.1391 -0.3685 -0.5798
  235THY    HP2 5858   3.069   3.328   1.263 -0.1929 -0.4528 -0.7107
  235THY    HP3 5859   3.135   3.257   1.413 -1.3225  0.8733  2.4392
  235THY    HP4 5860   2.984   3.346   1.415 -0.6321 -1.2484  0.6444
  235THY    CP3 5861   3.097   3.605   1.374 -0.0512 -0.5920  1.1033
  235THY    HP5 5862   3.043   3.599   1.279  0.6959  0.3611  0.5955
  235THY    HP6 5863   3.024   3.620   1.454 -0.0224  0.5452  0.9285
  235THY    HP7 5864   3.167   3.689   1.384 -0.7748 -0.1463  2.6689
  235THY    CA3 5865   3.221   3.539   1.642 -0.6192 -0.5922  0.5350
  235THY    HA3 5866   3.127   3.593   1.646 -1.0676 -1.3313  0.1041
  235THY    CA4 5867   3.313   3.550   1.747 -0.1306  0.0678  0.3219
  235THY    HA4 5868   3.286   3.616   1.829 -2.8493 -2.1761  1.4158
  235THY    CA5 5869   3.424   3.468   1.743 -0.5156 -0.0514 -0.5071
  235THY    CM1 5870   3.521   3.463   1.861  0.1809 -0.4005 -0.3235
  235THY    HM1 5871   3.507   3.555   1.920 -0.2411  0.8011 -2.2194
  235THY    HM2 5872   3.505   3.370   1.916 -1.4025 -0.5401 -0.9652
  235THY    HM3 5873   3.618   3.463   1.812 -0.9821 -0.7841 -2.7523
  235THY    CA6 5874   3.450   3.377   1.633  0.0736 -0.3854 -0.2165
  235THY    HA6 5875   3.536   3.311   1.633  1.2951  1.1306 -0.7564
  236THY      O 5876   0.503   0.825   5.836 -0.2837  0.6139 -0.0387
  236THY     HO 5877   0.452   0.815   5.919 -2.4017 -0.5743 -1.3899
  236THY    CA1 5878   0.598   0.722   5.833  0.2785  0.5112  0.1235
  236THY    CA2 5879   0.726   0.742   5.776  0.0603 -0.8059 -1.0111
  236THY    CP1 5880   0.760   0.879   5.719  0.0195  0.8473 -0.6225
  236THY    HP1 5881   0.668   0.929   5.689  1.3034  3.4267 -0.5784
  236THY    CP2 5882   0.851   0.964   5.818  0.6434  0.5218 -0.5069
  236THY    HP2 5883   0.920   1.034   5.770  1.6794  1.2942  1.9353
  236THY    HP3 5884   0.793   1.008   5.900 -0.1506  0.0570 -0.8045
  236THY    HP4 5885   0.912   0.889   5.870  0.2062  0.6964  0.2770
  236THY    CP3 5886   0.848   0.860   5.593 -0.0898 -0.8027 -0.0030
  236THY    HP5 5887   0.813   0.776   5.530  0.9709 -0.4843 -1.0575
  236THY    HP6 5888   0.832   0.951   5.534 -0.1534 -0.2997  0.7730
  236THY    HP7 5889   0.952   0.847   5.622  0.2153 -0.3011 -0.8345
  236THY    CA3 5890   0.819   0.636   5.782  0.3317 -0.2313 -0.1506
  236THY    HA3 5891   0.912   0.641   5.725 -0.8560 -3.4459 -2.6972
  236THY    CA4 5892   0.779   0.516   5.848  0.6372  0.5189  0.7768
  236THY    HA4 5893   0.849   0.433   5.843 -0.1380 -0.0832 -0.9934
  236THY    CA5 5894   0.660   0.503   5.922 -0.5084  0.2122  0.6235
  236THY    CM1 5895   0.633   0.368   5.990 -0.4334 -0.6036 -0.3485
  236THY    HM1 5896   0.677   0.292   5.925  2.1886  0.5272 -0.0078
  236THY    HM2 5897   0.673   0.376   6.092 -0.6252  3.1493 -0.4322
  236THY    HM3 5898   0.527   0.344   6.004 -0.5238 -0.2856 -0.4814
  236THY    CA6 5899   0.561   0.603   5.909  0.0440 -0.2762 -0.3714
  236THY    HA6 5900   0.468   0.591   5.964 -0.3643  1.0259 -0.7472
  237THY      O 5901   6.586   2.840   0.454 -0.4440  0.4107  0.0015
  237THY     HO 5902   6.598   2.935   0.433  0.2218 -0.0688 -1.9658
  237THY    CA1 5903   6.609   2.823   0.588 -0.1847 -0.7190 -0.5900
  237THY    CA2 5904   6.597   2.697   0.648 -0.0357 -0.3036 -0.5182
  237THY    CP1 5905   6.561   2.576   0.564  0.1753 -0.3477  0.8042
  237THY    HP1 5906   6.523   2.604   0.466  1.2943  2.0921  0.9837
  237THY    CP2 5907   6.686   2.490   0.544  0.5258 -0.4312  0.1550
  237THY    HP2 5908   6.699   2.426   0.632 -0.5466 -0.7797  0.0788
  237THY    HP3 5909   6.664   2.412   0.469 -3.2522  0.9274 -0.3843
  237THY    HP4 5910   6.772   2.551   0.516  1.0132 -1.9878 -2.0136
  237THY    CP3 5911   6.449   2.502   0.633  0.2726  0.5847  0.8328
  237THY    HP5 5912   6.488   2.435   0.711 -2.7372 -2.7904 -0.2739
  237THY    HP6 5913   6.374   2.567   0.678 -3.0523 -2.3175 -0.0837
  237THY    HP7 5914   6.392   2.438   0.565  1.3953  0.5277 -0.0861
  237THY    CA3 5915   6.619   2.680   0.788 -0.2351  0.1619  0.6983
  237THY    HA3 5916   6.592   2.587   0.837 -2.6821 -0.1257 -1.0345
  237THY    CA4 5917   6.646   2.795   0.867  0.4597 -0.3161 -0.9958
  237THY    HA4 5918   6.648   2.788   0.976  1.2285 -2.9554 -1.1052
  237THY    CA5 5919   6.649   2.922   0.800 -0.6217  0.3008 -0.4799
  237THY    CM1 5920   6.681   3.044   0.880  0.6947  0.7524  0.2306
  237THY    HM1 5921   6.593   3.059   0.944  0.8592 -0.7374  0.8413
  237THY    HM2 5922   6.773   3.044   0.939  0.7101 -0.7484  0.2424
  237THY    HM3 5923   6.689   3.133   0.816 -0.1957  0.7973  0.1612
  237THY    CA6 5924   6.633   2.934   0.664  0.1433 -0.0437 -0.0077
  237THY    HA6 5925   6.650   3.032   0.618 -2.1241  1.3700  1.9397
  238THY      O 5926   3.157   4.130   0.379 -0.2152 -0.5299  0.1900
  238THY     HO 5927   3.141   4.059   0.444 -2.1514  0.1368  0.5083
  238THY    CA1 5928   3.266   4.205   0.420 -0.4931 -0.1714 -0.3208
  238THY    CA2 5929   3.287   4.336   0.390 -0.1087  0.5494  0.0162
  238THY    CP1 5930   3.176   4.405   0.303 -0.0535  0.5560  0.2518
  238THY    HP1 5931   3.136   4.336   0.228  4.0805 -2.4331  0.4728
  238THY    CP2 5932   3.057   4.456   0.386  0.2142  0.3823  0.4968
  238THY    HP2 5933   3.095   4.510   0.474 -1.8294 -2.6238  3.4324
  238THY    HP3 5934   3.000   4.512   0.311  1.4464  0.8082 -0.1471
  238THY    HP4 5935   2.995   4.373   0.422 -0.1444  0.8454  0.9633
  238THY    CP3 5936   3.223   4.535   0.230  0.7687  0.4780  0.7140
  238THY    HP5 5937   3.319   4.498   0.191 -1.2714 -4.1684 -0.5986
  238THY    HP6 5938   3.147   4.568   0.158 -0.0011 -0.2504  1.1761
  238THY    HP7 5939   3.252   4.619   0.295 -0.2356  2.1642 -0.9009
  238THY    CA3 5940   3.397   4.404   0.444  0.4401 -0.0313  0.3410
  238THY    HA3 5941   3.415   4.509   0.426  1.0479  0.2063  2.1262
  238THY    CA4 5942   3.484   4.340   0.527  0.1788 -0.0265  0.0135
  238THY    HA4 5943   3.559   4.400   0.576 -0.3362  1.4725 -0.9779
  238THY    CA5 5944   3.464   4.205   0.560  0.0132  0.5520  0.2498
  238THY    CM1 5945   3.568   4.134   0.645 -0.5236 -0.3135 -0.9362
  238THY    HM1 5946   3.552   4.162   0.749  0.8436 -1.7441 -0.3085
  238THY    HM2 5947   3.551   4.026   0.640 -0.8543 -0.2677 -0.8207
  238THY    HM3 5948   3.667   4.160   0.605 -0.2903  1.2607  0.5478
  238THY    CA6 5949   3.353   4.133   0.506  0.0218  0.0879 -0.6895
  238THY    HA6 5950   3.343   4.026   0.514  0.0681  0.1113 -0.2763
  239THY      O 5951   1.037   3.673   0.071  0.5087 -0.2422 -0.3904
  239THY     HO 5952   1.055   3.612   0.144 -1.9944 -0.9305 -0.2584
  239THY    CA1 5953   0.999   3.596  -0.034  0.0303  0.1128 -0.5100
  239THY    CA2 5954   0.933   3.645  -0.144  0.0936 -0.2516  0.1776
  239THY    CP1 5955   0.892   3.795  -0.151  0.5442  0.4122  0.1281
  239THY    HP1 5956   0.883   3.833  -0.048 -1.8282 -0.3078  0.2412
  239THY    CP2 5957   0.985   3.879  -0.224  0.2263  0.1405  0.2551
  239THY    HP2 5958   1.084   3.860  -0.181 -0.0580 -1.4964  0.2502
  239THY    HP3 5959   0.991   3.846  -0.329  2.3365  1.0791  0.0238
  239THY    HP4 5960   0.962   3.986  -0.219 -2.0265 -0.3455  1.3060
  239THY    CP3 5961   0.749   3.818  -0.211  0.0116 -0.6514  0.5851
  239THY    HP5 5962   0.675   3.759  -0.157 -0.1217 -1.0626 -0.0302
  239THY    HP6 5963   0.729   3.925  -0.198 -1.8872 -0.8157 -0.5783
  239THY    HP7 5964   0.751   3.795  -0.318  1.5247  2.0577 -0.0656
  239THY    CA3 5965   0.912   3.562  -0.252 -0.1893 -0.3066  0.2665
  239THY    HA3 5966   0.863   3.596  -0.344  0.6797 -0.4612 -0.2604
  239THY    CA4 5967   0.968   3.436  -0.257 -0.5101 -0.2633  0.0339
  239THY    HA4 5968   0.963   3.372  -0.345 -0.4882 -1.0648  0.6034
  239THY    CA5 5969   1.030   3.381  -0.142  0.1099  0.1875  0.5944
  239THY    CM1 5970   1.084   3.240  -0.140 -0.2481  0.0164 -0.8606
  239THY    HM1 5971   0.994   3.180  -0.161 -1.2198  1.9887 -2.8341
  239THY    HM2 5972   1.173   3.225  -0.202  0.8186 -0.2413  0.7002
  239THY    HM3 5973   1.118   3.216  -0.039  0.0566 -0.0069 -0.9660
  239THY    CA6 5974   1.048   3.463  -0.030  0.8766 -0.4484 -1.0115
  239THY    HA6 5975   1.095   3.429   0.061 -3.5256 -1.4918  1.1558
  240THY      O 5976   6.352   3.006   0.150 -0.2766 -0.0473 -0.2812
  240THY     HO 5977   6.407   2.926   0.154 -0.2749 -0.0744 -0.8224
  240THY    CA1 5978   6.401   3.078   0.049  0.1212  0.8854  0.1616
  240THY    CA2 5979   6.333   3.178  -0.016  0.6759  0.1523  0.0767
  240THY    CP1 5980   6.186   3.203   0.025 -0.2826  0.7142  0.1346
  240THY    HP1 5981   6.179   3.217   0.134 -1.2696  1.4868 -0.0178
  240THY    CP2 5982   6.139   3.342  -0.017 -0.5148  0.6185 -0.3492
  240THY    HP2 5983   6.213   3.414   0.018 -1.4528  2.1870 -1.4303
  240THY    HP3 5984   6.136   3.346  -0.127 -0.2865 -1.3705 -0.4598
  240THY    HP4 5985   6.039   3.364   0.024 -0.9229  1.3133 -1.6269
  240THY    CP3 5986   6.080   3.101  -0.032 -0.2039 -0.7835  0.0494
  240THY    HP5 5987   6.104   3.001   0.006 -2.5954 -1.3772  0.1849
  240THY    HP6 5988   5.975   3.124  -0.011  0.4005 -0.8104  3.7526
  240THY    HP7 5989   6.085   3.110  -0.141  0.3445 -0.2535  0.1179
  240THY    CA3 5990   6.399   3.249  -0.121 -0.3815  0.0935  0.7370
  240THY    HA3 5991   6.355   3.334  -0.171  1.0454 -0.3271 -1.3670
  240THY    CA4 5992   6.533   3.222  -0.150 -1.0598  0.2140  0.1813
  240THY    HA4 5993   6.583   3.289  -0.220 -1.7316  0.6934  0.1524
  240THY    CA5 5994   6.597   3.105  -0.088  0.3029 -0.2749  0.4152
  240THY    CM1 5995   6.736   3.057  -0.122  0.2623 -0.5046  0.1575
  240THY    HM1 5996   6.790   3.150  -0.140  2.5111 -2.1001 -2.0303
  240THY    HM2 5997   6.788   3.001  -0.043  1.5718 -0.1478 -0.4220
  240THY    HM3 5998   6.710   2.992  -0.206  0.2660  2.1456 -2.0156
  240THY    CA6 5999   6.527   3.040   0.009 -0.2750  0.0065  0.2648
  240THY    HA6 6000   6.574   2.956   0.059 -0.1500  0.6252  1.2160
  241THY      O 6001   7.535   5.502   0.124  0.5848 -0.0855  0.0720
  241THY     HO 6002   7.620   5.527   0.163  0.5659  0.6624 -0.3614
  241THY    CA1 6003   7.544   5.464  -0.009  0.1188 -0.2898  0.1045
  241THY    CA2 6004   7.444   5.386  -0.062 -0.6264 -0.0844  0.3377
  241THY    CP1 6005   7.323   5.344   0.024  0.0158 -0.3323  0.2815
  241THY    HP1 6006   7.329   5.384   0.126 -0.2434  4.3245 -1.3110
  241THY    CP2 6007   7.189   5.412  -0.030 -0.2907 -0.3532 -0.5799
  241THY    HP2 6008   7.108   5.359   0.020 -0.2812  0.4259  0.3001
  241THY    HP3 6009   7.192   5.520  -0.008  1.2722  0.0219 -2.3277
  241THY    HP4 6010   7.177   5.396  -0.138 -0.3724  0.7534 -0.7555
  241THY    CP3 6011   7.307   5.184   0.016  0.3026  0.1083 -0.1461
  241THY    HP5 6012   7.261   5.151  -0.077  0.7936  0.9809 -0.7208
  241THY    HP6 6013   7.405   5.135   0.027  0.1614 -0.0208  0.6015
  241THY    HP7 6014   7.245   5.151   0.100  0.7617  1.8756  0.9562
  241THY    CA3 6015   7.458   5.353  -0.196  0.5571 -0.1689  0.7089
  241THY    HA3 6016   7.380   5.289  -0.236 -1.2105  1.8821  0.7098
  241THY    CA4 6017   7.570   5.393  -0.269 -0.4940 -0.0012  0.5366
  241THY    HA4 6018   7.572   5.366  -0.375 -0.6584  0.3036  0.4541
  241THY    CA5 6019   7.676   5.462  -0.213 -0.4982  0.4251 -0.2571
  241THY    CM1 6020   7.809   5.489  -0.292 -0.6043 -0.4544 -0.7846
  241THY    HM1 6021   7.845   5.397  -0.340  2.6376  0.7251 -0.8568
  241THY    HM2 6022   7.809   5.559  -0.376  0.8889 -1.3734 -1.6069
  241THY    HM3 6023   7.889   5.512  -0.221 -0.3605 -0.7090 -0.9743
  241THY    CA6 6024   7.657   5.504  -0.079 -0.0813 -0.0960 -0.0929
  241THY    HA6 6025   7.732   5.560  -0.024 -1.3402 -0.5573  2.2176
  242THY      O 6026   4.724   8.344   3.600  0.0701 -0.0126  0.0967
  242THY     HO 6027   4.713   8.431   3.560  2.3251 -0.9195 -2.8594
  242THY    CA1 6028   4.647   8.246   3.527  0.1006 -0.5075  0.1354
  242THY    CA2 6029   4.631   8.111   3.570 -0.0060  0.0147 -0.8448
  242THY    CP1 6030   4.691   8.061   3.698  0.4345 -0.2232 -0.7370
  242THY    HP1 6031   4.753   8.136   3.747 -0.8903  0.7430 -0.4738
  242THY    CP2 6032   4.583   8.033   3.810  0.2486 -0.2729 -0.0643
  242THY    HP2 6033   4.506   7.969   3.765  1.6498 -0.2705 -2.6665
  242THY    HP3 6034   4.630   7.987   3.898  0.4112  1.0785  0.5794
  242THY    HP4 6035   4.530   8.122   3.845 -1.1112 -0.8661 -0.5257
  242THY    CP3 6036   4.770   7.932   3.680 -0.2636 -0.0852  0.1337
  242THY    HP5 6037   4.716   7.848   3.634  2.4110 -2.9578  1.8470
  242THY    HP6 6038   4.864   7.968   3.636 -1.2514  2.3923 -0.1283
  242THY    HP7 6039   4.801   7.896   3.778  0.0029  1.6354  0.7217
  242THY    CA3 6040   4.554   8.026   3.490 -0.1630  0.1731  0.6219
  242THY    HA3 6041   4.534   7.920   3.506  0.2229 -0.5539 -2.8352
  242THY    CA4 6042   4.499   8.076   3.368 -0.4505 -1.0095 -0.7112
  242THY    HA4 6043   4.433   8.006   3.316 -1.3561 -1.1364  0.5680
  242THY    CA5 6044   4.518   8.213   3.328  0.1823 -0.2254  0.8613
  242THY    CM1 6045   4.457   8.259   3.198 -0.2597 -0.4805  0.4462
  242THY    HM1 6046   4.511   8.214   3.114  0.5389 -0.8306  1.1373
  242THY    HM2 6047   4.350   8.236   3.195 -0.3126 -0.5141  1.8436
  242THY    HM3 6048   4.457   8.368   3.202  1.9133 -0.4569  1.8532
  242THY    CA6 6049   4.591   8.300   3.409 -0.2580  0.2211  0.3064
  242THY    HA6 6050   4.605   8.401   3.372  0.1080 -0.9164 -2.9406
  243THY      O 6051   2.849   6.073   3.379  0.0770  0.2925  0.4411
  243THY     HO 6052   2.843   6.015   3.301  0.7308  0.5454  0.1946
  243THY    CA1 6053   2.901   5.991   3.472  0.1842 -0.3868  0.2093
  243THY    CA2 6054   2.899   6.033   3.605 -0.3064 -0.2852  0.3341
  243THY    CP1 6055   2.827   6.162   3.643  0.2453 -0.8029  0.1511
  243THY    HP1 6056   2.841   6.246   3.575 -1.6778  0.2135  0.9364
  243THY    CP2 6057   2.676   6.150   3.650 -0.4737 -0.0747 -0.0695
  243THY    HP2 6058   2.639   6.251   3.671  1.3837  0.8640 -1.0520
  243THY    HP3 6059   2.652   6.114   3.549 -2.2239 -1.7209  0.8785
  243THY    HP4 6060   2.661   6.070   3.723  1.7995  0.2859  0.8820
  243THY    CP3 6061   2.868   6.221   3.776 -0.7340 -0.1584  0.3073
  243THY    HP5 6062   2.975   6.242   3.775 -0.5028 -1.3096 -0.2993
  243THY    HP6 6063   2.811   6.313   3.791 -0.4406 -0.0460  0.7623
  243THY    HP7 6064   2.850   6.154   3.861 -0.9976 -0.9251 -0.3367
  243THY    CA3 6065   2.950   5.949   3.713 -0.1733 -0.0270  0.2658
  243THY    HA3 6066   2.955   5.973   3.819 -1.3638  0.0434  0.3150
  243THY    CA4 6067   3.009   5.830   3.670 -0.3107 -0.4502  0.0428
  243THY    HA4 6068   3.063   5.766   3.739 -1.9260 -3.6046 -1.4149
  243THY    CA5 6069   3.011   5.794   3.534 -0.3744  0.5372  0.1367
  243THY    CM1 6070   3.065   5.662   3.485  0.2687  0.0158  0.0478
  243THY    HM1 6071   3.080   5.653   3.377  0.7674  1.9023 -0.0775
  243THY    HM2 6072   3.163   5.658   3.535  0.2317 -3.7107  0.0994
  243THY    HM3 6073   3.006   5.577   3.520  0.1103  0.1172  0.0248
  243THY    CA6 6074   2.955   5.875   3.434  0.6432  0.8150  0.1176
  243THY    HA6 6075   2.946   5.844   3.331 -0.6513 -0.8581  0.6892
  244THY      O 6076   1.186   4.663   9.640  0.4203  0.2326 -0.0680
  244THY     HO 6077   1.232   4.694   9.560  0.9833  0.6333  0.4057
  244THY    CA1 6078   1.073   4.601   9.600  1.0245 -0.1723 -0.5216
  244THY    CA2 6079   0.973   4.558   9.693 -0.1339 -0.4210  0.2501
  244THY    CP1 6080   0.995   4.589   9.841  0.9365 -0.5546  0.8509
  244THY    HP1 6081   1.100   4.610   9.863  0.7622 -0.9002  2.1152
  244THY    CP2 6082   0.907   4.711   9.881  0.2518 -0.0461 -0.6135
  244THY    HP2 6083   0.954   4.794   9.827 -2.8789  1.1076 -1.8299
  244THY    HP3 6084   0.802   4.696   9.852  0.4779 -4.1198  0.0939
  244THY    HP4 6085   0.895   4.724   9.989 -0.2399  0.5738 -0.7361
  244THY    CP3 6086   0.959   4.457   9.916  0.0525 -0.4291  0.4197
  244THY    HP5 6087   1.039   4.389   9.887 -1.3555 -1.8176 -0.3375
  244THY    HP6 6088   0.964   4.463  10.026 -0.3037  3.4181  0.3787
  244THY    HP7 6089   0.861   4.415   9.890 -0.8937  0.3776  2.4529
  244THY    CA3 6090   0.852   4.503   9.638  0.1960 -0.3397 -0.2600
  244THY    HA3 6091   0.768   4.487   9.705  1.7515  2.3297  2.5689
  244THY    CA4 6092   0.838   4.490   9.502  0.2865 -0.1235  0.0741
  244THY    HA4 6093   0.737   4.459   9.476  0.3031 -0.2787  0.1958
  244THY    CA5 6094   0.937   4.527   9.413  0.9866  0.0058 -0.6426
  244THY    CM1 6095   0.918   4.495   9.273  0.6768  0.4387  0.9972
  244THY    HM1 6096   0.819   4.451   9.257  0.5835  1.2068 -0.7520
  244THY    HM2 6097   0.931   4.590   9.221  3.0506 -0.0538  0.5677
  244THY    HM3 6098   0.999   4.428   9.241 -0.1543 -0.5973  1.0005
  244THY    CA6 6099   1.051   4.582   9.464  0.0992 -0.8579  1.0357
  244THY    HA6 6100   1.124   4.604   9.387 -1.1049  1.0429  0.3551
  245THY      O 6101   1.434   9.118   2.601  0.0382  0.4053 -0.5178
  245THY     HO 6102   1.512   9.117   2.543  1.4757 -0.2587  1.3196
  245THY    CA1 6103   1.337   9.052   2.536 -0.4286 -0.0887  0.3789
  245THY    CA2 6104   1.221   9.025   2.609  0.5628 -0.2305  0.1923
  245THY    CP1 6105   1.208   9.055   2.757  1.0752 -0.1752  0.2231
  245THY    HP1 6106   1.268   9.146   2.769  1.6387 -0.0757 -2.6044
  245THY    CP2 6107   1.063   9.082   2.812  0.4222 -0.1468  0.2010
  245THY    HP2 6108   1.014   8.987   2.839  0.0610 -0.2670 -0.8279
  245THY    HP3 6109   1.059   9.155   2.894  0.4426 -0.1817  0.2337
  245THY    HP4 6110   1.022   9.132   2.724  2.7431  1.9209  0.1823
  245THY    CP3 6111   1.276   8.949   2.841 -0.1320  0.1283  0.3295
  245THY    HP5 6112   1.384   8.945   2.828  0.3442  3.2187  2.4013
  245THY    HP6 6113   1.252   8.954   2.948 -2.0141  1.5021 -0.0915
  245THY    HP7 6114   1.248   8.847   2.812  0.9711 -0.8217  2.3912
  245THY    CA3 6115   1.117   8.964   2.535 -0.3281 -0.0107 -0.0316
  245THY    HA3 6116   1.028   8.940   2.594 -0.0520 -2.2084 -0.3938
  245THY    CA4 6117   1.135   8.932   2.396  0.3286  0.3159 -0.2607
  245THY    HA4 6118   1.058   8.881   2.338  0.3205 -0.7017  0.6084
  245THY    CA5 6119   1.253   8.959   2.326  0.1283 -0.4838  0.2399
  245THY    CM1 6120   1.274   8.942   2.175  0.0133 -0.1020 -0.1523
  245THY    HM1 6121   1.348   8.864   2.155 -0.2634 -0.8333  1.5036
  245THY    HM2 6122   1.182   8.922   2.120 -0.8162 -0.7595  1.4203
  245THY    HM3 6123   1.318   9.029   2.125  0.8204 -0.8064 -0.6928
  245THY    CA6 6124   1.356   9.020   2.402 -0.2862  0.1941  0.0881
  245THY    HA6 6125   1.445   9.046   2.347 -0.6568 -0.8080 -1.0136
  246THY      O 6126   8.211   5.522   7.376  0.1996  0.4623  0.0227
  246THY     HO 6127   8.199   5.531   7.280  0.5246 -0.7331 -0.1449
  246THY    CA1 6128   8.144   5.411   7.404 -0.0353 -0.3312  0.7540
  246THY    CA2 6129   8.059   5.404   7.520 -0.3973  0.4948 -0.1787
  246THY    CP1 6130   8.055   5.519   7.615 -0.4267 -0.5147  0.5259
  246THY    HP1 6131   8.087   5.613   7.568  0.4628  1.3770  4.5382
  246THY    CP2 6132   7.922   5.547   7.674  0.0377 -0.1775  1.0822
  246THY    HP2 6133   7.850   5.534   7.593  0.2660  2.0046  0.4459
  246THY    HP3 6134   7.904   5.480   7.758 -1.0968 -4.2137 -2.0742
  246THY    HP4 6135   7.908   5.647   7.717 -1.3828  1.3524 -2.5450
  246THY    CP3 6136   8.156   5.497   7.721  0.1022 -0.2313  0.2523
  246THY    HP5 6137   8.256   5.481   7.678  0.7455  2.5747  0.5090
  246THY    HP6 6138   8.172   5.586   7.783  0.4746  0.4349 -0.7701
  246THY    HP7 6139   8.136   5.399   7.767  0.2713 -0.7323 -0.7101
  246THY    CA3 6140   8.004   5.274   7.555 -0.8648  0.9933  0.6234
  246THY    HA3 6141   7.947   5.260   7.647  0.1435 -0.6862  1.0355
  246THY    CA4 6142   8.025   5.166   7.466  0.0097  0.0463 -0.2109
  246THY    HA4 6143   7.974   5.073   7.489 -1.0994  0.7413  0.2171
  246THY    CA5 6144   8.118   5.177   7.364 -0.2825 -0.3564  0.0309
  246THY    CM1 6145   8.165   5.057   7.290  0.7943 -0.2060 -0.3914
  246THY    HM1 6146   8.274   5.056   7.279  0.7752 -0.2588 -0.5895
  246THY    HM2 6147   8.147   4.956   7.326 -0.4654  0.4417  0.8878
  246THY    HM3 6148   8.126   5.054   7.187  0.4526 -0.4302 -0.2557
  246THY    CA6 6149   8.180   5.300   7.330  0.2094  0.1462 -0.4637
  246THY    HA6 6150   8.251   5.292   7.249 -0.3821 -3.3477 -0.8070
  247THY      O 6151   0.402   9.150   6.994 -0.2378  0.2403  0.0003
  247THY     HO 6152   0.384   9.107   6.909 -2.1992 -0.5436  0.7528
  247THY    CA1 6153   0.510   9.087   7.048  0.2621 -0.0575 -0.2938
  247THY    CA2 6154   0.600   9.155   7.139 -0.2523  0.0101 -0.9121
  247THY    CP1 6155   0.547   9.281   7.204 -0.7694 -0.2457  0.8169
  247THY    HP1 6156   0.469   9.330   7.145 -0.6330 -1.7492 -0.7221
  247THY    CP2 6157   0.499   9.244   7.335  0.4449 -0.8330 -0.1066
  247THY    HP2 6158   0.413   9.176   7.334 -1.3479  1.3339 -0.8164
  247THY    HP3 6159   0.581   9.209   7.400 -0.6134 -1.6571  0.8257
  247THY    HP4 6160   0.468   9.337   7.384 -2.2914 -1.7233 -0.0068
  247THY    CP3 6161   0.658   9.390   7.201 -0.5189 -0.1228  0.2987
  247THY    HP5 6162   0.616   9.483   7.243  1.1197  0.6001  0.4096
  247THY    HP6 6163   0.745   9.354   7.258  0.2623 -0.3056 -0.9867
  247THY    HP7 6164   0.689   9.404   7.097  2.6935  1.4313  1.3411
  247THY    CA3 6165   0.712   9.090   7.191 -0.4127  0.2803  0.5232
  247THY    HA3 6166   0.784   9.135   7.260  0.5415 -1.6071  0.8239
  247THY    CA4 6167   0.731   8.958   7.156  0.0611  0.2626 -0.2899
  247THY    HA4 6168   0.809   8.896   7.199  0.6655 -2.0022 -4.1399
  247THY    CA5 6169   0.648   8.893   7.060 -0.2486 -0.0127 -0.3773
  247THY    CM1 6170   0.670   8.751   7.017  0.0359 -0.2559 -0.4839
  247THY    HM1 6171   0.652   8.687   7.104  1.3211 -1.1299 -0.8335
  247THY    HM2 6172   0.606   8.719   6.934  2.0992 -1.8591 -1.5566
  247THY    HM3 6173   0.775   8.737   6.992 -0.3560  1.2346 -3.4842
  247THY    CA6 6174   0.537   8.960   7.003  0.0003  0.5602 -0.1075
  247THY    HA6 6175   0.473   8.905   6.934 -1.7443  1.1697  0.9648
  248THY      O 6176   1.946   4.016   9.493 -0.1391 -0.4215 -0.2859
  248THY     HO 6177   2.024   4.072   9.486 -2.1518  2.4381 -1.8974
  248THY    CA1 6178   1.962   3.909   9.562  0.4858  0.3836 -0.2105
  248THY    CA2 6179   1.873   3.803   9.549  0.9248 -0.2266 -0.4977
  248THY    CP1 6180   1.751   3.815   9.455  0.3951 -0.2049  0.3105
  248THY    HP1 6181   1.732   3.922   9.437  2.0985  0.1635  0.5388
  248THY    CP2 6182   1.786   3.759   9.322  0.1712  0.5374 -0.1383
  248THY    HP2 6183   1.704   3.772   9.251 -0.4417 -2.5294 -0.1675
  248THY    HP3 6184   1.877   3.793   9.272 -1.6821  0.4711 -3.9296
  248THY    HP4 6185   1.800   3.650   9.333  0.3165  0.6166  0.5524
  248THY    CP3 6186   1.621   3.762   9.508  0.1876  0.4300  0.0186
  248THY    HP5 6187   1.575   3.819   9.589 -1.9472 -2.5775  1.1266
  248THY    HP6 6188   1.543   3.771   9.431 -0.4724 -0.8099  0.5211
  248THY    HP7 6189   1.628   3.655   9.531 -1.1972  0.6118  1.4108
  248THY    CA3 6190   1.901   3.684   9.614 -0.4859  0.1392  0.4763
  248THY    HA3 6191   1.839   3.603   9.579 -1.0363  1.4190 -1.7653
  248THY    CA4 6192   2.002   3.682   9.708 -0.3824 -0.0457 -0.2919
  248THY    HA4 6193   2.021   3.582   9.748  0.7266 -0.1861 -1.1071
  248THY    CA5 6194   2.085   3.787   9.733 -0.5867  0.0737  0.0287
  248THY    CM1 6195   2.202   3.771   9.834 -0.4642  0.3630 -0.9174
  248THY    HM1 6196   2.300   3.773   9.785  0.1971 -1.3034  0.2447
  248THY    HM2 6197   2.205   3.848   9.912 -0.5345 -0.9534  0.4374
  248THY    HM3 6198   2.193   3.674   9.885 -1.9034  0.7760 -0.3659
  248THY    CA6 6199   2.065   3.904   9.658 -0.1267 -0.2404  0.2008
  248THY    HA6 6200   2.129   3.988   9.685  0.4227 -0.4668 -0.3761
  249THY      O 6201   9.667   5.818   9.413  0.0941 -0.1599  0.2075
  249THY     HO 6202   9.659   5.783   9.323 -1.7694  1.5152 -0.3559
  249THY    CA1 6203   9.576   5.916   9.429  0.0375  0.1634 -0.6512
  249THY    CA2 6204   9.575   5.993   9.546  0.2756  0.0231  0.0397
  249THY    CP1 6205   9.672   5.944   9.665  0.2210 -0.3234  0.3949
  249THY    HP1 6206   9.678   5.835   9.661 -0.4213 -0.3413 -0.4059
  249THY    CP2 6207   9.809   5.997   9.648 -1.1092 -0.3480 -0.1047
  249THY    HP2 6208   9.869   5.951   9.569 -2.0266  2.2917 -2.4784
  249THY    HP3 6209   9.808   6.106   9.638 -0.4876  0.2058  4.0624
  249THY    HP4 6210   9.866   5.976   9.740 -0.3987 -0.4200 -0.5568
  249THY    CP3 6211   9.620   5.970   9.814 -0.1300  0.0993  0.8776
  249THY    HP5 6212   9.690   5.925   9.885 -1.2378 -1.5911  0.9644
  249THY    HP6 6213   9.618   6.079   9.825  0.3543  0.4023 -1.4614
  249THY    HP7 6214   9.520   5.936   9.844  0.8476 -1.0145  3.0868
  249THY    CA3 6215   9.480   6.099   9.564  0.6629  0.7344  0.3323
  249THY    HA3 6216   9.466   6.146   9.660  0.7584  1.5366 -0.0409
  249THY    CA4 6217   9.399   6.135   9.456  0.7317  0.4691 -0.2526
  249THY    HA4 6218   9.319   6.205   9.481 -1.3777 -2.1729  0.9869
  249THY    CA5 6219   9.409   6.066   9.337  0.1903 -0.1460  1.2132
  249THY    CM1 6220   9.321   6.090   9.218  0.4093 -0.1783  0.8046
  249THY    HM1 6221   9.302   6.198   9.209 -0.7902 -0.5686 -2.3501
  249THY    HM2 6222   9.358   6.046   9.125 -0.0441 -2.5053  1.6747
  249THY    HM3 6223   9.227   6.042   9.247 -1.7008  2.6618 -0.7750
  249THY    CA6 6224   9.493   5.955   9.328  0.6029  0.2548  0.1791
  249THY    HA6 6225   9.494   5.909   9.230  2.8592  0.6901 -0.0411
  250THY      O 6226   2.106   6.497   2.265  0.3196 -0.7730  0.6598
  250THY     HO 6227   2.052   6.475   2.187 -1.2593  1.8281  0.8884
  250THY    CA1 6228   2.225   6.545   2.222 -0.4133 -0.2479 -0.1629
  250THY    CA2 6229   2.330   6.591   2.310  0.0933  0.1756  0.3843
  250THY    CP1 6230   2.313   6.590   2.459  0.3013 -0.1331 -0.4971
  250THY    HP1 6231   2.227   6.525   2.479 -0.4342  0.7551 -0.7450
  250THY    CP2 6232   2.432   6.537   2.532 -0.4633  0.1033  0.4538
  250THY    HP2 6233   2.523   6.598   2.533  0.1863 -0.8241 -0.4004
  250THY    HP3 6234   2.409   6.524   2.638 -2.6451 -0.7316 -0.0715
  250THY    HP4 6235   2.450   6.439   2.487 -2.4887  0.2396 -0.7724
  250THY    CP3 6236   2.289   6.735   2.505 -0.2208  0.1286  0.7243
  250THY    HP5 6237   2.383   6.791   2.494 -0.1973 -0.3441 -2.4020
  250THY    HP6 6238   2.219   6.776   2.432 -0.1179 -2.1968 -0.7953
  250THY    HP7 6239   2.255   6.739   2.609  0.2988  3.4445  0.8531
  250THY    CA3 6240   2.455   6.639   2.253 -0.2414 -0.0484  0.5040
  250THY    HA3 6241   2.540   6.655   2.319  0.5975  0.6587 -0.7156
  250THY    CA4 6242   2.463   6.652   2.118 -0.5397  0.3473  0.7371
  250THY    HA4 6243   2.550   6.693   2.066 -0.0967 -1.7069 -0.2465
  250THY    CA5 6244   2.358   6.616   2.028  1.0030  1.1547 -0.2827
  250THY    CM1 6245   2.368   6.621   1.879  0.3637 -0.5352 -0.0091
  250THY    HM1 6246   2.473   6.617   1.848  1.6252  1.7506  3.4371
  250THY    HM2 6247   2.321   6.531   1.837  4.2590 -2.4617 -0.6747
  250THY    HM3 6248   2.326   6.708   1.827  1.3481 -0.2423 -0.3302
  250THY    CA6 6249   2.238   6.562   2.082 -0.1397 -0.4804 -0.3176
  250THY    HA6 6250   2.160   6.519   2.019 -1.0435  0.3963  0.1770
  251THY      O 6251   5.994   4.887   4.682  0.0088 -0.5591  0.0159
  251THY     HO 6252   5.920   4.949   4.683  0.0865 -0.3515 -2.2645
  251THY    CA1 6253   5.979   4.845   4.553  0.4902  0.1244  0.3262
  251THY    CA2 6254   6.083   4.795   4.473 -0.4788 -0.1899 -1.7406
  251THY    CP1 6255   6.224   4.786   4.537  0.4202 -0.1154  0.5308
  251THY    HP1 6256   6.224   4.813   4.643 -2.2232  2.7773 -0.0472
  251THY    CP2 6257   6.288   4.643   4.533 -0.2641  0.2740 -0.1756
  251THY    HP2 6258   6.393   4.650   4.562  0.0814  1.6281 -1.6254
  251THY    HP3 6259   6.236   4.561   4.584  0.1067  0.9336  1.3161
  251THY    HP4 6260   6.293   4.613   4.428 -0.7410  0.5463 -0.2794
  251THY    CP3 6261   6.316   4.891   4.459  0.8375  0.6693  0.6446
  251THY    HP5 6262   6.286   4.994   4.480 -0.1414  0.2539  1.4436
  251THY    HP6 6263   6.418   4.893   4.499  0.5867  0.8713  1.2990
  251THY    HP7 6264   6.311   4.884   4.350  1.0999  1.0506  0.6066
  251THY    CA3 6265   6.065   4.760   4.341  0.0899 -0.5322 -0.3378
  251THY    HA3 6266   6.143   4.716   4.279  0.3198  0.0887 -0.5022
  251THY    CA4 6267   5.936   4.780   4.288 -0.3086  0.3593 -0.0659
  251THY    HA4 6268   5.908   4.743   4.189  3.6804 -1.5083 -0.6942
  251THY    CA5 6269   5.833   4.835   4.362 -0.5178 -0.6796 -0.1807
  251THY    CM1 6270   5.695   4.851   4.317 -0.1282 -0.4006  0.4619
  251THY    HM1 6271   5.668   4.956   4.334 -0.3972  0.0581 -2.2684
  251THY    HM2 6272   5.694   4.836   4.208 -1.6626 -2.1793  0.6739
  251THY    HM3 6273   5.615   4.789   4.358 -2.0832  0.9851 -1.0145
  251THY    CA6 6274   5.858   4.869   4.495 -0.3072  0.3711  0.3645
  251THY    HA6 6275   5.772   4.906   4.550 -1.4024 -0.7241 -0.5537
  252THY      O 6276   7.552   9.473   2.323 -0.4187  0.4541 -0.7996
  252THY     HO 6277   7.623   9.407   2.320  0.6478  0.8680  4.8128
  252THY    CA1 6278   7.507   9.439   2.450 -0.3016 -0.9301  0.0823
  252THY    CA2 6279   7.433   9.534   2.524  0.3015 -0.1735 -0.0436
  252THY    CP1 6280   7.396   9.664   2.471  0.0856  0.0445 -0.7137
  252THY    HP1 6281   7.377   9.655   2.363 -1.7200  2.5150 -0.7008
  252THY    CP2 6282   7.264   9.718   2.530  0.2488 -0.5141  0.3068
  252THY    HP2 6283   7.267   9.741   2.637  0.8725  0.3185  0.1185
  252THY    HP3 6284   7.234   9.814   2.487 -1.7566 -0.6348  1.3335
  252THY    HP4 6285   7.181   9.650   2.507  0.7275 -0.8096 -0.6469
  252THY    CP3 6286   7.510   9.761   2.488  0.3305  0.1772  0.1624
  252THY    HP5 6287   7.605   9.712   2.465 -0.8562 -1.2193 -2.0813
  252THY    HP6 6288   7.494   9.850   2.427 -0.5913  1.9042  2.7680
  252THY    HP7 6289   7.515   9.801   2.591 -1.1964  0.3620  0.1853
  252THY    CA3 6290   7.401   9.505   2.660 -0.2039  0.2753 -0.4711
  252THY    HA3 6291   7.340   9.570   2.722 -0.8479 -0.1976 -0.5920
  252THY    CA4 6292   7.442   9.382   2.709  0.1701 -0.6716 -0.5517
  252THY    HA4 6293   7.417   9.349   2.809  2.4013  2.6988  1.3190
  252THY    CA5 6294   7.517   9.292   2.634  0.0579  0.1377  0.3059
  252THY    CM1 6295   7.580   9.175   2.687  0.3240 -0.0708 -0.2242
  252THY    HM1 6296   7.628   9.113   2.611 -0.9045 -0.2861 -0.8556
  252THY    HM2 6297   7.652   9.206   2.764  1.6340  0.7271 -1.7097
  252THY    HM3 6298   7.511   9.122   2.754  0.9413  0.9115  1.2391
  252THY    CA6 6299   7.546   9.321   2.499  0.2069 -0.1188 -0.9017
  252THY    HA6 6300   7.607   9.256   2.437  1.2096  0.1293 -0.1892
  253THY      O 6301   6.530   5.998   9.768  0.1579 -0.6337  0.5407
  253THY     HO 6302   6.500   6.038   9.685  2.5015  1.5310  0.6160
  253THY    CA1 6303   6.466   6.077   9.864  0.1946  0.2628 -0.0870
  253THY    CA2 6304   6.527   6.109   9.987 -0.1632 -0.0788  0.8502
  253THY    CP1 6305   6.658   6.047  10.041  0.2032  0.2038 -0.4565
  253THY    HP1 6306   6.684   5.960   9.979 -1.1990 -0.3934 -0.2461
  253THY    CP2 6307   6.772   6.147  10.015 -0.6979  0.0303 -0.9047
  253THY    HP2 6308   6.869   6.122  10.059 -1.5832  0.1303  1.2068
  253THY    HP3 6309   6.786   6.164   9.907 -0.6232  3.2728 -0.4670
  253THY    HP4 6310   6.747   6.238  10.070  0.4633 -1.6646  2.7184
  253THY    CP3 6311   6.653   5.999  10.188 -0.0348 -0.5038  0.1929
  253THY    HP5 6312   6.652   6.084  10.257 -1.5624  1.6020 -2.2268
  253THY    HP6 6313   6.559   5.947  10.213 -0.4684  0.2591  0.1758
  253THY    HP7 6314   6.735   5.927  10.195 -0.9716 -1.6247  0.0841
  253THY    CA3 6315   6.449   6.194  10.075  0.5846  0.1686  0.2619
  253THY    HA3 6316   6.485   6.232  10.170  0.7070 -0.2288  0.3780
  253THY    CA4 6317   6.325   6.239  10.030 -0.5338 -0.5063  0.2889
  253THY    HA4 6318   6.273   6.308  10.096 -1.0547 -0.1989 -0.4240
  253THY    CA5 6319   6.270   6.199   9.905  0.1809  0.3384 -0.1153
  253THY    CM1 6320   6.121   6.235   9.875  0.3165 -0.4052  0.0154
  253THY    HM1 6321   6.058   6.157   9.830  0.9723 -2.8775  3.0268
  253THY    HM2 6322   6.078   6.274   9.969  0.0193 -0.2791 -0.1712
  253THY    HM3 6323   6.117   6.317   9.804 -3.2178  0.3382  0.8798
  253THY    CA6 6324   6.339   6.119   9.820  0.6031  0.3408  0.1713
  253THY    HA6 6325   6.293   6.089   9.727 -0.7142  1.8871  0.2866
  254THY      O 6326   2.134   0.443   6.081  0.0079 -0.7581 -0.6797
  254THY     HO 6327   2.087   0.447   6.167 -1.8975 -0.1173 -1.6908
  254THY    CA1 6328   2.072   0.336   6.019 -0.7050 -0.2629  0.3957
  254THY    CA2 6329   2.112   0.310   5.884  0.1331  0.2388  0.3473
  254THY    CP1 6330   2.211   0.395   5.806 -0.6576  0.0455  0.7454
  254THY    HP1 6331   2.262   0.471   5.867  1.3716 -0.1455 -0.6140
  254THY    CP2 6332   2.327   0.304   5.737 -0.2527 -0.9275 -0.0491
  254THY    HP2 6333   2.285   0.233   5.665 -1.1524  0.8902 -1.4011
  254THY    HP3 6334   2.394   0.378   5.692 -2.5538  0.8042 -0.8336
  254THY    HP4 6335   2.375   0.252   5.821  1.2403 -0.3827 -0.5221
  254THY    CP3 6336   2.135   0.475   5.695  0.6472 -0.1913  0.1528
  254THY    HP5 6337   2.058   0.538   5.741  0.4239 -1.0121  0.9432
  254THY    HP6 6338   2.201   0.539   5.637 -1.7063  3.3898  1.0910
  254THY    HP7 6339   2.082   0.414   5.621  1.7749 -2.5819  1.2175
  254THY    CA3 6340   2.051   0.200   5.825 -0.0163 -0.4155  0.4487
  254THY    HA3 6341   2.081   0.160   5.728 -0.6772 -0.2628  0.1827
  254THY    CA4 6342   1.947   0.133   5.888 -0.1243 -0.0461 -0.2391
  254THY    HA4 6343   1.907   0.054   5.825 -0.1324  0.0937 -0.4080
  254THY    CA5 6344   1.920   0.151   6.019 -0.0743 -0.1634 -0.6300
  254THY    CM1 6345   1.829   0.053   6.091  0.0365  0.3142  0.7472
  254THY    HM1 6346   1.852   0.052   6.198 -0.0565 -0.9508  0.7651
  254THY    HM2 6347   1.726   0.089   6.078 -0.9451 -1.1805  3.6009
  254THY    HM3 6348   1.848  -0.048   6.052  2.8941  0.0714  2.5315
  254THY    CA6 6349   1.982   0.259   6.086  0.3923  0.1194 -0.2706
  254THY    HA6 6350   1.961   0.270   6.192 -0.0996 -2.0053 -0.1013
  255THY      O 6351   9.260   5.835   6.780 -0.2570 -0.1766  0.0333
  255THY     HO 6352   9.247   5.813   6.686 -2.4460 -1.3150  0.5191
  255THY    CA1 6353   9.230   5.725   6.853 -0.3307 -0.5416 -0.1538
  255THY    CA2 6354   9.274   5.709   6.989 -0.4092 -0.0741  0.3119
  255THY    CP1 6355   9.312   5.834   7.072 -0.0459  0.4536  0.6933
  255THY    HP1 6356   9.318   5.929   7.017  0.9879  0.5321  0.9157
  255THY    CP2 6357   9.212   5.850   7.186  0.2122 -0.8187 -1.0178
  255THY    HP2 6358   9.108   5.861   7.151 -0.9718 -1.0160  2.1335
  255THY    HP3 6359   9.199   5.759   7.244 -0.6681 -0.3126 -0.3965
  255THY    HP4 6360   9.244   5.937   7.244 -1.2081 -0.6267 -0.4792
  255THY    CP3 6361   9.456   5.825   7.132  0.0088 -0.3371  0.0052
  255THY    HP5 6362   9.535   5.799   7.060  1.4203  1.0848  0.9831
  255THY    HP6 6363   9.488   5.922   7.173  1.0983  0.3389 -2.2803
  255THY    HP7 6364   9.456   5.759   7.220  0.3890  0.9308  0.9908
  255THY    CA3 6365   9.279   5.583   7.054  0.1533 -1.0441 -0.1179
  255THY    HA3 6366   9.301   5.577   7.160 -1.2705 -1.9237  0.1560
  255THY    CA4 6367   9.229   5.476   6.986 -0.4426 -0.2117 -0.4951
  255THY    HA4 6368   9.211   5.384   7.042 -1.7898  1.4540  2.0239
  255THY    CA5 6369   9.176   5.493   6.855  0.3402  0.1057  0.0338
  255THY    CM1 6370   9.122   5.366   6.783  0.4406 -0.1376 -0.0476
  255THY    HM1 6371   9.154   5.269   6.820  3.1402  0.8755  0.4740
  255THY    HM2 6372   9.013   5.356   6.793  0.3507  0.2367 -0.5693
  255THY    HM3 6373   9.148   5.371   6.677 -0.4696 -1.8772 -0.3889
  255THY    CA6 6374   9.177   5.616   6.789  0.0500 -0.2008  0.2100
  255THY    HA6 6375   9.150   5.623   6.684  1.3458  1.1154 -0.0765
  256THY      O 6376   3.935   4.479   8.088 -0.0604  0.4678  0.7223
  256THY     HO 6377   3.913   4.493   7.995  1.1829  1.9653  0.6163
  256THY    CA1 6378   4.032   4.566   8.108  0.3421 -1.0327 -0.4926
  256THY    CA2 6379   4.113   4.559   8.218  0.0399  0.0425 -0.9664
  256THY    CP1 6380   4.086   4.459   8.326  0.0793  0.2221 -0.9593
  256THY    HP1 6381   4.002   4.393   8.303  0.3111 -1.6435  2.7660
  256THY    CP2 6382   4.197   4.360   8.339 -0.7222  0.2748 -0.3751
  256THY    HP2 6383   4.217   4.319   8.240 -0.2099  0.4493 -0.3535
  256THY    HP3 6384   4.291   4.409   8.368 -0.8062  0.7494 -0.8856
  256THY    HP4 6385   4.173   4.280   8.410 -1.4456  0.3024 -0.5824
  256THY    CP3 6386   4.057   4.528   8.461 -0.0417  0.1048  0.0680
  256THY    HP5 6387   4.035   4.446   8.531 -1.8474  0.4238 -0.0684
  256THY    HP6 6388   4.145   4.583   8.495  0.0835  0.9019 -1.4714
  256THY    HP7 6389   3.975   4.598   8.443  0.3042  0.3286 -0.6636
  256THY    CA3 6390   4.223   4.648   8.226  0.0295  0.2870 -0.2319
  256THY    HA3 6391   4.292   4.648   8.310 -0.5537 -0.0136  0.2540
  256THY    CA4 6392   4.264   4.726   8.114  0.3997  0.5886  0.1501
  256THY    HA4 6393   4.359   4.779   8.110  0.7967 -0.1510 -1.4371
  256THY    CA5 6394   4.187   4.719   7.996 -0.1715 -0.5083  0.1972
  256THY    CM1 6395   4.225   4.787   7.869  0.0567  0.4293  0.1762
  256THY    HM1 6396   4.325   4.830   7.858  0.4237 -0.7178 -1.4013
  256THY    HM2 6397   4.230   4.712   7.789  1.0009  1.6198 -0.9190
  256THY    HM3 6398   4.149   4.858   7.833  0.0480  0.3181 -0.0291
  256THY    CA6 6399   4.074   4.638   8.000 -0.2094  0.1117  0.1151
  256THY    HA6 6400   4.021   4.634   7.905  0.4030 -2.0903 -0.1913
  257THY      O 6401   2.342   2.268   5.147 -0.3046  0.0722  0.5092
  257THY     HO 6402   2.426   2.220   5.134 -1.1254 -1.3162  0.0433
  257THY    CA1 6403   2.246   2.190   5.105  0.2097 -0.1209  0.7146
  257THY    CA2 6404   2.137   2.248   5.039  0.3918 -0.1275  0.2706
  257THY    CP1 6405   2.116   2.402   5.050 -0.5453 -0.2490 -0.7284
  257THY    HP1 6406   2.147   2.432   5.151 -0.0758 -0.1201 -0.9120
  257THY    CP2 6407   2.184   2.475   4.936 -0.0962 -0.6705  0.0371
  257THY    HP2 6408   2.288   2.445   4.914 -0.6303 -1.1099 -2.1163
  257THY    HP3 6409   2.119   2.461   4.849 -2.1910  1.1503  1.2114
  257THY    HP4 6410   2.177   2.584   4.943  0.1070 -0.5246 -1.5506
  257THY    CP3 6411   1.968   2.439   5.054 -0.1342 -1.2477 -0.3793
  257THY    HP5 6412   1.964   2.544   5.084 -0.3266 -1.4638  0.3801
  257THY    HP6 6413   1.914   2.418   4.961  1.9999 -0.9451 -1.7578
  257THY    HP7 6414   1.920   2.388   5.138  0.9069 -0.0521  0.9848
  257THY    CA3 6415   2.039   2.166   4.979  0.0585 -0.2399 -0.6521
  257THY    HA3 6416   1.950   2.206   4.932  0.6156  1.5683 -0.2735
  257THY    CA4 6417   2.071   2.033   4.970 -0.3688  0.5343  0.0285
  257THY    HA4 6418   2.004   1.976   4.906 -0.1798 -0.9543  1.1131
  257THY    CA5 6419   2.180   1.970   5.038 -0.1200  0.8992 -0.0614
  257THY    CM1 6420   2.193   1.818   5.025 -0.6287 -0.2198  0.0716
  257THY    HM1 6421   2.234   1.766   5.112 -0.7167 -0.1142  0.1766
  257THY    HM2 6422   2.094   1.777   4.999 -1.7533  1.5692  1.2684
  257THY    HM3 6423   2.261   1.796   4.942 -0.8119 -1.1543  0.1580
  257THY    CA6 6424   2.274   2.052   5.098 -0.4579  0.0065 -1.0769
  257THY    HA6 6425   2.367   2.018   5.144 -0.6576  0.6975 -0.1320
  258THY      O 6426   0.245   3.687   5.965 -0.2194  0.4052 -0.1813
  258THY     HO 6427   0.303   3.725   6.034 -1.3375  2.2087 -0.1468
  258THY    CA1 6428   0.140   3.625   6.031 -0.0864 -0.5481  0.4147
  258THY    CA2 6429   0.038   3.552   5.968 -0.5839 -0.1992  0.3124
  258THY    CP1 6430   0.036   3.560   5.819  0.0522  0.0462 -0.3334
  258THY    HP1 6431   0.137   3.584   5.782  0.0086  1.4538  0.3848
  258THY    CP2 6432  -0.011   3.422   5.763  0.5951  0.1574 -0.2267
  258THY    HP2 6433  -0.016   3.430   5.654 -2.5531 -0.3324 -0.2281
  258THY    HP3 6434   0.067   3.353   5.796  1.1325  0.0080 -1.7235
  258THY    HP4 6435  -0.109   3.382   5.792 -1.1527  3.2571 -1.3674
  258THY    CP3 6436  -0.051   3.674   5.759  0.7551  0.5511 -0.6684
  258THY    HP5 6437  -0.009   3.772   5.785  0.6457  0.2068  0.9192
  258THY    HP6 6438  -0.044   3.670   5.650 -0.8472  0.9881 -0.8032
  258THY    HP7 6439  -0.154   3.665   5.796  0.3304  0.8634 -1.7227
  258THY    CA3 6440  -0.057   3.485   6.045 -0.2556  0.4587  0.5660
  258THY    HA3 6441  -0.139   3.430   5.999 -0.7612  2.4053 -0.9881
  258THY    CA4 6442  -0.049   3.503   6.185 -0.0027 -0.1532  0.3176
  258THY    HA4 6443  -0.127   3.455   6.243 -0.5198 -0.7871 -0.8607
  258THY    CA5 6444   0.053   3.572   6.246 -0.4712  0.3377 -0.2746
  258THY    CM1 6445   0.051   3.605   6.394  0.4898 -0.1984 -0.1421
  258THY    HM1 6446   0.127   3.678   6.426 -0.1230  0.2562  0.2958
  258THY    HM2 6447  -0.050   3.645   6.409  0.3411  0.3068 -2.2563
  258THY    HM3 6448   0.071   3.507   6.440 -0.2796 -0.8657 -1.2060
  258THY    CA6 6449   0.147   3.634   6.167 -0.4487 -0.6025  0.4882
  258THY    HA6 6450   0.232   3.679   6.217 -0.1526 -1.8689  1.1633
  259THY      O 6451   3.721   7.569   0.122  0.8769  0.2455 -0.0364
  259THY     HO 6452   3.669   7.642   0.084 -1.0837 -1.0117  0.0371
  259THY    CA1 6453   3.783   7.604   0.232 -0.1655 -0.0982 -0.1600
  259THY    CA2 6454   3.810   7.510   0.336 -0.5690  0.0535  0.4202
  259THY    CP1 6455   3.784   7.361   0.302  0.7599 -0.1893 -0.3342
  259THY    HP1 6456   3.751   7.342   0.199  0.1115 -0.1346 -0.1373
  259THY    CP2 6457   3.898   7.269   0.347 -0.6867  0.5761  0.0204
  259THY    HP2 6458   3.870   7.166   0.324 -0.6977  0.2961  1.2588
  259THY    HP3 6459   3.992   7.282   0.290 -0.8324  0.0021 -0.3608
  259THY    HP4 6460   3.917   7.279   0.454  0.6186 -1.9893  0.0864
  259THY    CP3 6461   3.666   7.318   0.393  0.3874 -0.2233  0.5292
  259THY    HP5 6462   3.583   7.388   0.374  0.0090 -0.4295  1.3590
  259THY    HP6 6463   3.624   7.221   0.365 -2.2229  0.7453  0.8107
  259THY    HP7 6464   3.692   7.316   0.500  0.7623  3.1963  0.6296
  259THY    CA3 6465   3.878   7.563   0.451 -0.4597 -0.7071  0.0489
  259THY    HA3 6466   3.910   7.501   0.534  0.7997  1.2196  1.0800
  259THY    CA4 6467   3.909   7.702   0.463  0.8250 -0.3041 -0.5346
  259THY    HA4 6468   3.954   7.742   0.553 -0.4548 -0.9343  0.4334
  259THY    CA5 6469   3.874   7.788   0.359 -0.3237  0.1650 -0.0041
  259THY    CM1 6470   3.909   7.931   0.373  0.3988 -0.0573 -0.2627
  259THY    HM1 6471   3.869   7.982   0.461  3.0222 -0.2136  1.1066
  259THY    HM2 6472   4.016   7.952   0.369  0.4824 -0.5574 -2.9942
  259THY    HM3 6473   3.874   7.993   0.289 -1.8907 -1.1749 -0.2097
  259THY    CA6 6474   3.816   7.740   0.241  0.3446  0.7548 -0.0739
  259THY    HA6 6475   3.794   7.804   0.156  0.7837  2.1589  0.8259
  260THY      O 6476   2.776   8.345   0.718  0.3211 -0.0837 -0.0874
  260THY     HO 6477   2.748   8.408   0.649 -0.6997 -1.3321 -0.8588
  260THY    CA1 6478   2.676   8.256   0.720  0.2702 -0.5128 -0.2682
  260THY    CA2 6479   2.642   8.169   0.826 -0.5724  0.2183 -0.1295
  260THY    CP1 6480   2.729   8.177   0.958 -0.5653 -0.5859  0.1099
  260THY    HP1 6481   2.756   8.282   0.970  1.3478 -1.0268  0.0572
  260THY    CP2 6482   2.649   8.137   1.079  0.0742 -0.2513  0.1936
  260THY    HP2 6483   2.709   8.158   1.169  1.9104 -1.2319 -0.7292
  260THY    HP3 6484   2.553   8.188   1.081  0.2371  0.0686 -0.0909
  260THY    HP4 6485   2.629   8.029   1.084 -3.0677  0.2610  0.5771
  260THY    CP3 6486   2.852   8.090   0.944 -0.7104 -0.4611  0.5856
  260THY    HP5 6487   2.935   8.116   1.011  1.1290 -0.6807 -1.5095
  260THY    HP6 6488   2.837   7.985   0.970  1.1173 -0.6483  0.9626
  260THY    HP7 6489   2.893   8.087   0.843  0.5570 -0.0856  1.0704
  260THY    CA3 6490   2.538   8.078   0.816 -0.5135  0.2476 -0.3011
  260THY    HA3 6491   2.520   8.007   0.896  1.8270 -1.2549 -0.9960
  260THY    CA4 6492   2.472   8.072   0.697  0.1152  0.9128 -0.4958
  260THY    HA4 6493   2.397   7.996   0.683  0.4646  0.4109  0.2915
  260THY    CA5 6494   2.512   8.150   0.587  0.4228  0.0753 -0.3236
  260THY    CM1 6495   2.438   8.137   0.459  0.1486  0.3609  0.0391
  260THY    HM1 6496   2.353   8.206   0.452 -0.0393  0.0934 -0.3208
  260THY    HM2 6497   2.506   8.153   0.375  2.1860  0.3031  1.6035
  260THY    HM3 6498   2.394   8.038   0.442 -0.5345  0.5572  0.6072
  260THY    CA6 6499   2.611   8.245   0.602 -0.1896  0.2331 -0.0303
  260THY    HA6 6500   2.641   8.290   0.507  0.1885  0.5709  0.2470
  261THY      O 6501   8.219   3.107   7.193  0.0136 -0.2607 -0.1213
  261THY     HO 6502   8.284   3.036   7.180 -0.2420 -0.1908 -2.1555
  261THY    CA1 6503   8.112   3.060   7.264 -0.5345  0.4550  0.0460
  261THY    CA2 6504   8.053   3.134   7.367 -0.5081  0.3019  0.7147
  261THY    CP1 6505   8.096   3.280   7.398 -0.3947 -0.6982 -0.9934
  261THY    HP1 6506   8.198   3.302   7.364 -0.8249 -0.0328 -1.8848
  261THY    CP2 6507   8.001   3.384   7.340  0.4887 -0.3831  0.0513
  261THY    HP2 6508   7.896   3.351   7.343  0.0591  0.6589 -1.7879
  261THY    HP3 6509   8.021   3.480   7.388  0.8029  0.2584 -1.3274
  261THY    HP4 6510   8.040   3.401   7.239  1.0834 -0.0494  0.3358
  261THY    CP3 6511   8.107   3.300   7.553 -0.0573  0.0011 -0.5237
  261THY    HP5 6512   8.178   3.233   7.603  1.0357  2.7345  1.8464
  261THY    HP6 6513   8.142   3.397   7.590 -1.8118  1.0885 -1.5806
  261THY    HP7 6514   8.010   3.278   7.599  0.6604 -0.4743  0.8136
  261THY    CA3 6515   7.946   3.073   7.439 -0.5249 -0.5880 -0.6021
  261THY    HA3 6516   7.904   3.123   7.526 -0.3804 -0.3738 -0.6546
  261THY    CA4 6517   7.918   2.939   7.419 -0.0390 -0.3676  0.7278
  261THY    HA4 6518   7.846   2.879   7.474  0.5024 -1.5751  0.1704
  261THY    CA5 6519   7.981   2.864   7.315  0.1512  0.5985 -0.2900
  261THY    CM1 6520   7.946   2.713   7.300  0.0034  0.0895  0.3878
  261THY    HM1 6521   7.840   2.702   7.273  0.0525  0.1810  0.1557
  261THY    HM2 6522   8.021   2.668   7.234  1.4135 -0.2567  2.1481
  261THY    HM3 6523   7.960   2.658   7.394  1.7632  0.8769  0.6297
  261THY    CA6 6524   8.072   2.930   7.232 -0.1721  0.7156 -0.0400
  261THY    HA6 6525   8.138   2.880   7.161  0.3677  0.0038  0.9384
  262THY      O 6526   5.132   6.028   2.053 -0.0420  0.5160  0.5463
  262THY     HO 6527   5.181   6.037   2.136  1.0451 -4.0773  0.6784
  262THY    CA1 6528   5.142   5.897   2.032  0.6251  0.0610 -0.7055
  262THY    CA2 6529   5.054   5.824   1.953  0.2513 -0.0626 -0.7805
  262THY    CP1 6530   4.922   5.887   1.904 -0.1337  0.2743  0.1859
  262THY    HP1 6531   4.933   5.995   1.922 -2.9806  0.1623  3.5788
  262THY    CP2 6532   4.887   5.881   1.758  0.3326  0.0293 -0.1272
  262THY    HP2 6533   4.786   5.920   1.740 -0.0597  0.3153  2.2716
  262THY    HP3 6534   4.960   5.948   1.712  0.3416  1.3085  1.6242
  262THY    HP4 6535   4.915   5.781   1.723  3.3341 -0.2467  2.5895
  262THY    CP3 6536   4.804   5.842   1.984  0.0690  0.1428 -0.0190
  262THY    HP5 6537   4.839   5.848   2.087  1.4282 -1.7508 -0.3050
  262THY    HP6 6538   4.712   5.899   1.966  0.9297  1.1718 -1.3042
  262THY    HP7 6539   4.780   5.737   1.964  1.0857 -0.8336  3.2695
  262THY    CA3 6540   5.065   5.677   1.939  0.5823 -0.5561 -0.6708
  262THY    HA3 6541   4.990   5.616   1.889 -0.5387  1.1323 -1.1425
  262THY    CA4 6542   5.177   5.622   2.008  0.4007 -0.3459  0.4340
  262THY    HA4 6543   5.197   5.515   2.005 -0.7822 -0.5698 -1.8932
  262THY    CA5 6544   5.270   5.699   2.072  0.3610 -0.1311  0.3954
  262THY    CM1 6545   5.388   5.634   2.121  0.5165 -0.1565  0.4665
  262THY    HM1 6546   5.418   5.706   2.198 -4.9089  0.8998  2.0117
  262THY    HM2 6547   5.378   5.533   2.163  0.8380 -0.9662 -1.3012
  262THY    HM3 6548   5.469   5.627   2.047  0.8232  0.8833  0.6907
  262THY    CA6 6549   5.255   5.833   2.086 -0.2458 -0.3329 -0.2485
  262THY    HA6 6550   5.335   5.895   2.125  0.6497  0.6229 -3.3102
  263THY      O 6551   4.868   4.566   4.599  0.8910  0.7829  0.2158
  263THY     HO 6552   4.826   4.504   4.660  0.1880  0.1468 -0.8830
  263THY    CA1 6553   4.937   4.501   4.497 -0.8176 -0.1150 -0.6915
  263THY    CA2 6554   4.925   4.537   4.365  0.4128  1.2526  0.1657
  263THY    CP1 6555   4.875   4.673   4.329  0.3046 -0.4130 -0.5251
  263THY    HP1 6556   4.893   4.744   4.410 -1.7040 -1.2585  0.7325
  263THY    CP2 6557   4.953   4.739   4.218  0.2101  0.4579  0.5399
  263THY    HP2 6558   5.060   4.750   4.238  0.5603  0.3855 -1.1052
  263THY    HP3 6559   4.932   4.686   4.124 -1.2039  0.9113  0.5650
  263THY    HP4 6560   4.905   4.837   4.210  0.0349  0.3097 -0.4749
  263THY    CP3 6561   4.725   4.678   4.308 -0.4863  0.5182 -0.3808
  263THY    HP5 6562   4.690   4.781   4.305  0.5244  0.9430  1.3992
  263THY    HP6 6563   4.719   4.623   4.213  1.9877 -0.7099  0.0772
  263THY    HP7 6564   4.676   4.626   4.391  0.1736 -2.9849 -1.9912
  263THY    CA3 6565   4.991   4.446   4.275  0.3844 -0.3490  0.4661
  263THY    HA3 6566   4.991   4.468   4.168  0.5289 -1.8532  0.1386
  263THY    CA4 6567   5.066   4.337   4.316 -0.6419 -0.3220  0.0131
  263THY    HA4 6568   5.117   4.270   4.247 -1.8683 -0.0136 -1.2531
  263THY    CA5 6569   5.075   4.306   4.452  0.2413 -0.1586  0.4676
  263THY    CM1 6570   5.152   4.187   4.498 -0.4049  0.2687  0.7689
  263THY    HM1 6571   5.111   4.140   4.588 -0.7710 -2.4614 -0.7050
  263THY    HM2 6572   5.139   4.111   4.420  0.9508  1.8044 -1.0223
  263THY    HM3 6573   5.259   4.208   4.500 -0.7208  2.1978 -0.5122
  263THY    CA6 6574   5.008   4.388   4.543 -0.5821  0.0778  0.7575
  263THY    HA6 6575   5.018   4.362   4.648 -2.6975 -1.4514  0.6482
  264THY      O 6576   3.007   8.548   3.649  0.1054  0.1365 -0.6200
  264THY     HO 6577   3.094   8.523   3.684 -0.5832 -1.0866  0.3041
  264THY    CA1 6578   2.996   8.684   3.644 -0.0388 -0.7528  0.1471
  264THY    CA2 6579   2.877   8.745   3.680 -0.1595  0.7024  0.1136
  264THY    CP1 6580   2.758   8.658   3.704 -0.3439  0.5207 -1.0438
  264THY    HP1 6581   2.785   8.563   3.751 -0.9796  0.0126 -1.6743
  264THY    CP2 6582   2.659   8.719   3.810  0.2847 -0.4813  0.2405
  264THY    HP2 6583   2.709   8.767   3.895 -2.2879  1.0818  1.0081
  264THY    HP3 6584   2.605   8.802   3.762 -2.9200 -1.6546  1.5583
  264THY    HP4 6585   2.587   8.643   3.843  1.5583 -1.8130  0.0193
  264THY    CP3 6586   2.694   8.643   3.563 -0.0558 -0.6114  0.7653
  264THY    HP5 6587   2.606   8.579   3.579 -1.3995  1.1938  0.9725
  264THY    HP6 6588   2.661   8.737   3.518  0.7876 -0.9028 -0.5115
  264THY    HP7 6589   2.757   8.589   3.491  1.1624  0.5667  0.9098
  264THY    CA3 6590   2.870   8.883   3.680  0.1918  0.2363  0.2700
  264THY    HA3 6591   2.781   8.938   3.708  0.4071  1.1192 -0.6973
  264THY    CA4 6592   2.984   8.960   3.643 -0.3797 -0.4514  0.3676
  264THY    HA4 6593   2.978   9.068   3.650  0.8737 -0.3370 -0.1696
  264THY    CA5 6594   3.101   8.899   3.599  0.8849 -0.2855 -0.1313
  264THY    CM1 6595   3.215   8.992   3.552  0.2498  0.5880  0.8811
  264THY    HM1 6596   3.223   9.080   3.617  2.2248  1.7393 -0.8125
  264THY    HM2 6597   3.306   8.932   3.540 -0.7910 -0.7289 -0.9250
  264THY    HM3 6598   3.198   9.035   3.453 -2.7813 -0.0936  0.9961
  264THY    CA6 6599   3.107   8.760   3.604 -0.3393 -0.4995 -0.0284
  264THY    HA6 6600   3.205   8.721   3.578  2.5646  3.6154  3.2105
  265THY      O 6601   6.913   2.686   3.082  0.0370  0.1698  0.3075
  265THY     HO 6602   6.939   2.758   3.024 -1.3779  1.7756  1.5595
  265THY    CA1 6603   6.839   2.755   3.167  0.5417  0.3406  0.7815
  265THY    CA2 6604   6.743   2.699   3.253 -0.1611  0.4967  0.3796
  265THY    CP1 6605   6.717   2.552   3.251  0.7087  0.8312  0.0180
  265THY    HP1 6606   6.790   2.501   3.186 -0.4951  0.0577 -0.7688
  265THY    CP2 6607   6.739   2.496   3.390  0.0962  0.3136 -0.1132
  265THY    HP2 6608   6.838   2.523   3.428  0.4184 -1.9578  0.8302
  265THY    HP3 6609   6.663   2.534   3.459 -0.5516 -2.2028  0.6863
  265THY    HP4 6610   6.729   2.387   3.396 -0.7715  0.4500  1.9960
  265THY    CP3 6611   6.575   2.516   3.205  0.2759 -0.1030  0.2223
  265THY    HP5 6612   6.575   2.532   3.097  0.6595  1.7603  0.4679
  265THY    HP6 6613   6.538   2.415   3.225 -0.7512 -0.3080 -2.3972
  265THY    HP7 6614   6.512   2.585   3.264  1.5666 -0.4775  2.1380
  265THY    CA3 6615   6.676   2.788   3.337  0.2573 -0.4327 -0.0447
  265THY    HA3 6616   6.601   2.753   3.408  0.3378 -0.5152 -0.0006
  265THY    CA4 6617   6.697   2.930   3.328 -0.1493  0.2258 -0.7091
  265THY    HA4 6618   6.644   2.998   3.394 -0.3792 -0.9871  0.4093
  265THY    CA5 6619   6.778   2.983   3.228 -0.6825  0.1926 -0.2118
  265THY    CM1 6620   6.787   3.126   3.192 -0.4841 -0.4899  0.0320
  265THY    HM1 6621   6.692   3.176   3.216  0.7163  1.2022  1.5326
  265THY    HM2 6622   6.863   3.183   3.246 -1.0523  1.4647 -1.1507
  265THY    HM3 6623   6.806   3.138   3.085 -4.2093 -0.4165 -0.7629
  265THY    CA6 6624   6.858   2.895   3.154  0.6395 -0.2374  0.7912
  265THY    HA6 6625   6.930   2.937   3.085  1.9967 -1.2676  1.5214
  266THY      O 6626   7.790   1.343   2.910  0.0034 -0.5843  0.1783
  266THY     HO 6627   7.763   1.329   3.002  0.4729  1.5454  0.6914
  266THY    CA1 6628   7.864   1.242   2.861  0.3415  0.9551  0.0439
  266THY    CA2 6629   7.881   1.220   2.723  1.0420 -1.3924 -0.1453
  266THY    CP1 6630   7.841   1.323   2.620 -0.5840  0.0509 -0.0023
  266THY    HP1 6631   7.805   1.416   2.666  0.9499  0.6446  0.0380
  266THY    CP2 6632   7.975   1.361   2.547 -0.2091  0.2053 -0.5403
  266THY    HP2 6633   7.971   1.443   2.475 -1.6384 -0.5955 -1.4219
  266THY    HP3 6634   8.044   1.396   2.626 -1.5805  2.9385 -0.4297
  266THY    HP4 6635   8.013   1.272   2.496 -2.1286 -1.1597  0.3099
  266THY    CP3 6636   7.744   1.268   2.515 -0.1426  0.0012  0.4445
  266THY    HP5 6637   7.719   1.341   2.437 -1.8582  0.6357  1.5298
  266THY    HP6 6638   7.785   1.173   2.480  1.4740  1.0154 -0.5389
  266THY    HP7 6639   7.653   1.248   2.573 -1.2907  2.2079 -0.4746
  266THY    CA3 6640   7.947   1.098   2.687  0.3865  0.4302 -0.5742
  266THY    HA3 6641   7.979   1.071   2.587 -0.0717  1.5555 -1.0481
  266THY    CA4 6642   7.994   1.007   2.778  0.1586 -0.3738 -0.3311
  266THY    HA4 6643   8.042   0.914   2.749  0.6016 -0.8497  1.7228
  266THY    CA5 6644   7.961   1.020   2.912  0.1265 -0.1686  0.5490
  266THY    CM1 6645   8.004   0.928   3.020  0.4004  0.6565  0.0610
  266THY    HM1 6646   8.104   0.958   3.056  0.1334  0.9711  0.5484
  266THY    HM2 6647   7.926   0.931   3.096  0.0663  0.2767 -0.2660
  266THY    HM3 6648   8.015   0.824   2.988  1.3021  0.7878 -0.0797
  266THY    CA6 6649   7.898   1.142   2.951 -0.8058 -0.2265  0.0824
  266THY    HA6 6650   7.876   1.144   3.058 -0.7921  0.2586  0.0755
  267THY      O 6651   8.197   9.462   5.631  0.4879  0.3793 -0.7154
  267THY     HO 6652   8.140   9.541   5.632 -0.1829 -0.0928  0.3135
  267THY    CA1 6653   8.228   9.422   5.760 -0.2585 -0.2148 -0.4640
  267THY    CA2 6654   8.356   9.385   5.804 -0.2324 -0.3787 -0.3403
  267THY    CP1 6655   8.469   9.395   5.701  0.1803  0.1022  0.2346
  267THY    HP1 6656   8.435   9.387   5.597  1.5834  2.5451 -0.5116
  267THY    CP2 6657   8.535   9.530   5.704  0.3639  0.1105  0.0926
  267THY    HP2 6658   8.630   9.523   5.650 -0.4028  0.3412 -1.3580
  267THY    HP3 6659   8.461   9.603   5.669 -0.7222 -0.8726  0.2586
  267THY    HP4 6660   8.559   9.557   5.807  0.7184 -0.7115  0.2275
  267THY    CP3 6661   8.573   9.288   5.717 -0.3139 -0.0668  0.4852
  267THY    HP5 6662   8.515   9.195   5.713  0.1145 -0.2993 -0.2892
  267THY    HP6 6663   8.649   9.286   5.639 -1.1960 -1.2387 -0.3706
  267THY    HP7 6664   8.627   9.303   5.811  0.2549 -0.2349  0.1865
  267THY    CA3 6665   8.380   9.360   5.943  0.4232  0.3038  0.1677
  267THY    HA3 6666   8.477   9.323   5.972  0.5746  0.3213 -0.3026
  267THY    CA4 6667   8.272   9.383   6.033 -0.0182 -0.8569 -1.7816
  267THY    HA4 6668   8.286   9.366   6.139 -1.2305  2.4270 -0.9610
  267THY    CA5 6669   8.146   9.423   5.993 -0.5937 -0.0651  0.3092
  267THY    CM1 6670   8.035   9.439   6.099 -0.5974  0.5352  0.4153
  267THY    HM1 6671   8.038   9.537   6.147 -0.0398  1.1411 -0.7864
  267THY    HM2 6672   7.934   9.428   6.059 -0.8904  1.7952  0.7479
  267THY    HM3 6673   8.052   9.361   6.173 -0.4121 -1.5740 -1.7273
  267THY    CA6 6674   8.127   9.443   5.853 -0.6183  0.1014 -0.3208
  267THY    HA6 6675   8.029   9.482   5.827 -0.8705 -0.1195  0.2635
  268THY      O 6676   7.467   2.535   6.842  0.0952  0.3256 -0.5615
  268THY     HO 6677   7.555   2.495   6.849 -0.2233 -0.3570 -0.4560
  268THY    CA1 6678   7.402   2.494   6.735  0.3095 -0.0623 -0.1516
  268THY    CA2 6679   7.277   2.551   6.708 -0.0903  1.1095 -0.3700
  268THY    CP1 6680   7.214   2.661   6.800  0.3875  0.2155 -0.2371
  268THY    HP1 6681   7.270   2.700   6.886  0.4348  0.8352 -0.5489
  268THY    CP2 6682   7.183   2.787   6.715  0.0054  0.4135  0.6284
  268THY    HP2 6683   7.205   2.874   6.778  2.6089 -0.1981  0.6820
  268THY    HP3 6684   7.242   2.793   6.623 -2.1948 -1.8792 -1.0586
  268THY    HP4 6685   7.083   2.784   6.672  0.5914 -1.4255 -0.7495
  268THY    CP3 6686   7.077   2.620   6.867 -0.3233 -0.6417 -0.0001
  268THY    HP5 6687   7.086   2.551   6.952 -0.0565 -1.3131 -0.5648
  268THY    HP6 6688   7.043   2.713   6.913  1.1485  0.3357 -0.8152
  268THY    HP7 6689   6.995   2.597   6.798 -1.1690 -0.1286  0.8138
  268THY    CA3 6690   7.214   2.501   6.591  0.2409  0.1095 -0.5734
  268THY    HA3 6691   7.117   2.536   6.558  0.6226  0.3148 -1.5014
  268THY    CA4 6692   7.281   2.413   6.505  0.3545 -0.5190 -0.2353
  268THY    HA4 6693   7.230   2.376   6.417 -1.1362 -2.7152  1.4512
  268THY    CA5 6694   7.404   2.370   6.539 -0.0160 -0.1601  0.3998
  268THY    CM1 6695   7.471   2.290   6.436  0.6080 -0.7134 -1.0046
  268THY    HM1 6696   7.520   2.355   6.362  0.6934  0.9514  0.4245
  268THY    HM2 6697   7.545   2.226   6.486 -0.3547  0.2475  1.8963
  268THY    HM3 6698   7.403   2.214   6.397  1.4776 -1.8823 -0.2988
  268THY    CA6 6699   7.473   2.418   6.649 -0.2450 -0.1077 -0.3916
  268THY    HA6 6700   7.578   2.398   6.670 -0.6164 -0.3647  1.3932
  269THY      O 6701   8.603   4.128   1.511  0.2000 -0.1579 -0.2679
  269THY     HO 6702   8.522   4.124   1.566  0.6909 -2.7493  0.4367
  269THY    CA1 6703   8.700   4.044   1.552  0.5098 -0.1597  0.0076
  269THY    CA2 6704   8.817   4.009   1.483 -0.4740 -0.4018  0.2837
  269THY    CP1 6705   8.850   4.070   1.346  1.1612  0.2952 -0.0034
  269THY    HP1 6706   8.779   4.144   1.308  0.8213  1.0486  2.0301
  269THY    CP2 6707   8.990   4.127   1.355  0.6599 -0.5454  0.8853
  269THY    HP2 6708   9.023   4.165   1.258  2.8165 -0.6869  1.5136
  269THY    HP3 6709   8.990   4.208   1.428  0.2686  0.5972 -0.3431
  269THY    HP4 6710   9.059   4.049   1.390  1.1701  0.1295  1.3829
  269THY    CP3 6711   8.867   3.948   1.253  0.5109  0.5642  0.6774
  269THY    HP5 6712   8.783   3.882   1.280 -1.2215  2.1764 -0.4708
  269THY    HP6 6713   8.845   3.979   1.150  1.0192 -1.5980 -0.1266
  269THY    HP7 6714   8.964   3.898   1.253  1.2662  1.9634  0.9130
  269THY    CA3 6715   8.911   3.928   1.551  0.0811  0.1850  0.2481
  269THY    HA3 6716   8.995   3.883   1.499 -0.3216 -0.0411 -0.2171
  269THY    CA4 6717   8.881   3.873   1.678  0.3003 -0.4337  0.0918
  269THY    HA4 6718   8.949   3.808   1.732  1.7697  0.8746 -0.1112
  269THY    CA5 6719   8.763   3.919   1.743 -0.1475 -0.1036 -0.4718
  269THY    CM1 6720   8.746   3.888   1.891 -0.0279  0.1276  0.3682
  269THY    HM1 6721   8.833   3.845   1.942  0.2436 -3.6081 -2.7945
  269THY    HM2 6722   8.707   3.982   1.931 -2.2730  0.4505 -2.3024
  269THY    HM3 6723   8.665   3.816   1.901 -1.3939  1.0278 -2.7257
  269THY    CA6 6724   8.673   3.995   1.674  0.8114 -0.0171 -0.2992
  269THY    HA6 6725   8.581   4.026   1.722  0.5462 -1.6453  0.2817
  270THY      O 6726   7.739   9.414   8.299  0.3519 -0.5882 -0.4078
  270THY     HO 6727   7.814   9.459   8.256  0.9428 -2.1150 -1.0856
  270THY    CA1 6728   7.764   9.283   8.301 -0.3928 -1.1179 -0.2642
  270THY    CA2 6729   7.699   9.185   8.376 -0.1868  1.0169 -0.0803
  270THY    CP1 6730   7.595   9.225   8.474  0.1732  0.4446 -0.0304
  270THY    HP1 6731   7.606   9.334   8.488 -0.5863  0.5035  0.1474
  270THY    CP2 6732   7.455   9.202   8.427  0.3954 -0.1894 -0.0190
  270THY    HP2 6733   7.425   9.097   8.419 -0.9402  0.3056 -2.7010
  270THY    HP3 6734   7.384   9.256   8.490 -0.8035 -0.5576 -1.0068
  270THY    HP4 6735   7.436   9.234   8.324 -1.4416  0.0783  0.3640
  270THY    CP3 6736   7.603   9.149   8.615  0.1631 -0.1894  0.3095
  270THY    HP5 6737   7.707   9.167   8.646  0.8880  1.9443 -2.7822
  270THY    HP6 6738   7.530   9.179   8.690 -1.0070  0.2139 -0.9513
  270THY    HP7 6739   7.577   9.042   8.616  1.1074 -0.4383  1.6061
  270THY    CA3 6740   7.726   9.048   8.358 -1.0739  0.2621 -0.0299
  270THY    HA3 6741   7.686   8.967   8.418  1.9251  0.3882  2.4173
  270THY    CA4 6742   7.826   9.016   8.263  0.0283  0.0927 -0.0587
  270THY    HA4 6743   7.863   8.915   8.249  0.7884  0.6368 -2.5680
  270THY    CA5 6744   7.890   9.113   8.197 -0.2475  0.2191 -0.0867
  270THY    CM1 6745   8.002   9.079   8.106  0.1534 -0.8808 -0.4565
  270THY    HM1 6746   8.013   8.974   8.078  1.0019 -1.0468  0.4170
  270THY    HM2 6747   7.997   9.121   8.005  1.1948 -1.8809 -0.9513
  270THY    HM3 6748   8.099   9.096   8.154 -0.0747 -0.6645 -0.0713
  270THY    CA6 6749   7.864   9.250   8.216 -0.5280  0.5585  0.4833
  270THY    HA6 6750   7.919   9.326   8.161  1.4492  2.2964  4.4451
  271THY      O 6751   4.544   2.480   9.394  0.0519  0.4151  0.2291
  271THY     HO 6752   4.537   2.572   9.423  1.3125  1.5739 -2.6641
  271THY    CA1 6753   4.427   2.439   9.340  0.2268  0.4175  0.0081
  271THY    CA2 6754   4.414   2.353   9.231  0.3857 -0.4676 -0.0629
  271THY    CP1 6755   4.551   2.330   9.152 -0.2150 -0.4502 -1.0198
  271THY    HP1 6756   4.635   2.325   9.223 -0.7263 -0.7022 -0.4166
  271THY    CP2 6757   4.547   2.198   9.065  0.2072  0.1802 -0.5815
  271THY    HP2 6758   4.480   2.208   8.978  1.1762 -0.2901 -1.3977
  271THY    HP3 6759   4.648   2.189   9.026 -0.0123  1.6943 -1.5986
  271THY    HP4 6760   4.515   2.104   9.111  0.8310 -0.5862 -1.6748
  271THY    CP3 6761   4.577   2.450   9.059 -0.2791  0.3762  0.3411
  271THY    HP5 6762   4.565   2.546   9.111  2.8996  1.2033 -0.2341
  271THY    HP6 6763   4.671   2.445   9.002 -1.3590 -0.7051 -1.4181
  271THY    HP7 6764   4.513   2.462   8.971  1.4531  0.8022 -0.9146
  271THY    CA3 6765   4.293   2.294   9.198 -0.2985 -0.1252 -0.1761
  271THY    HA3 6766   4.281   2.227   9.113 -1.4486 -0.4752  0.2436
  271THY    CA4 6767   4.182   2.332   9.270  0.1458  0.0572 -0.1266
  271THY    HA4 6768   4.084   2.301   9.234 -0.3292  0.2984  0.9281
  271THY    CA5 6769   4.188   2.429   9.372 -0.2084  0.1063 -0.1513
  271THY    CM1 6770   4.069   2.469   9.451  0.1182  0.6029  0.3058
  271THY    HM1 6771   4.098   2.550   9.519  0.7841  1.2541 -0.7256
  271THY    HM2 6772   3.985   2.510   9.393  1.8363  2.3913 -1.0453
  271THY    HM3 6773   4.033   2.388   9.514 -1.2714  2.4777  2.0720
  271THY    CA6 6774   4.310   2.475   9.411 -0.4366 -0.1593  0.7273
  271THY    HA6 6775   4.313   2.546   9.493 -0.1401 -1.4896  1.8974
  272THY      O 6776   2.580   7.300   4.484  0.1844 -0.0439 -0.6409
  272THY     HO 6777   2.653   7.257   4.533 -3.0577 -4.9141  0.6660
  272THY    CA1 6778   2.589   7.437   4.475  0.5750  0.8110  0.1141
  272THY    CA2 6779   2.544   7.502   4.358  0.4711  0.4113  0.2770
  272THY    CP1 6780   2.464   7.420   4.250 -0.0706  0.1936  0.0787
  272THY    HP1 6781   2.405   7.343   4.301 -1.7489  2.6472  2.1171
  272THY    CP2 6782   2.365   7.507   4.170  0.0537 -0.3011  0.0390
  272THY    HP2 6783   2.306   7.576   4.231  1.3372  1.0369 -0.1499
  272THY    HP3 6784   2.414   7.567   4.092  0.3943  0.9339  1.1765
  272THY    HP4 6785   2.295   7.442   4.116 -2.6485  2.6576 -0.3124
  272THY    CP3 6786   2.553   7.345   4.145 -0.4719 -0.1565 -0.0460
  272THY    HP5 6787   2.542   7.378   4.041  0.1346  1.0727  0.2572
  272THY    HP6 6788   2.656   7.351   4.181 -1.2606 -1.1078  2.6195
  272THY    HP7 6789   2.534   7.237   4.145  0.7742 -0.4088  1.4131
  272THY    CA3 6790   2.559   7.638   4.341  0.2725 -0.5047  0.6540
  272THY    HA3 6791   2.538   7.683   4.244  1.4761 -1.1294  0.0904
  272THY    CA4 6792   2.634   7.708   4.433 -0.4294 -0.0443  0.5331
  272THY    HA4 6793   2.648   7.815   4.418 -2.1144  0.0791 -0.5075
  272THY    CA5 6794   2.690   7.646   4.547  0.1831 -0.4501  0.1755
  272THY    CM1 6795   2.776   7.726   4.648  0.8210 -0.2209 -0.1642
  272THY    HM1 6796   2.852   7.789   4.600  1.0014 -0.5966 -0.3816
  272THY    HM2 6797   2.700   7.764   4.716 -0.0331 -3.4666  0.8955
  272THY    HM3 6798   2.828   7.657   4.716 -1.3268  0.0957  1.9219
  272THY    CA6 6799   2.668   7.511   4.567 -0.2281 -0.0308  0.0152
  272THY    HA6 6800   2.710   7.452   4.648 -2.1156  0.7178  1.6284
  273THY      O 6801   6.114   2.159   1.220 -0.3930 -0.4086 -0.0680
  273THY     HO 6802   6.056   2.085   1.241 -1.0469  0.3815  1.0193
  273THY    CA1 6803   6.040   2.238   1.144 -0.0107 -0.5794  0.2346
  273THY    CA2 6804   6.094   2.358   1.091 -0.2543  0.2241 -0.5106
  273THY    CP1 6805   6.237   2.402   1.127  0.4371 -0.1541 -0.6982
  273THY    HP1 6806   6.305   2.323   1.161  0.8646  0.7694  0.6618
  273THY    CP2 6807   6.317   2.450   1.005 -0.1229 -0.6061  0.0605
  273THY    HP2 6808   6.420   2.473   1.035 -0.6978  1.6497  0.4664
  273THY    HP3 6809   6.308   2.373   0.928 -0.0504 -1.2091  0.6443
  273THY    HP4 6810   6.281   2.541   0.956 -0.5953 -1.5699 -1.4301
  273THY    CP3 6811   6.240   2.511   1.236 -1.0351 -0.2022 -0.0337
  273THY    HP5 6812   6.348   2.530   1.243 -0.1850 -3.9980 -0.7254
  273THY    HP6 6813   6.181   2.601   1.216 -1.8880 -0.2262  2.0686
  273THY    HP7 6814   6.217   2.474   1.337  0.5806 -0.4106  0.2852
  273THY    CA3 6815   6.009   2.436   1.009 -0.0851 -0.2512  0.0551
  273THY    HA3 6816   6.047   2.525   0.959 -1.7464  0.0304 -0.7811
  273THY    CA4 6817   5.875   2.399   0.986 -0.3319 -0.6215  0.2152
  273THY    HA4 6818   5.822   2.463   0.915  3.1657  2.1900 -0.1368
  273THY    CA5 6819   5.827   2.283   1.044  1.0875 -0.4581  1.2803
  273THY    CM1 6820   5.682   2.248   1.024  0.8176 -0.1339 -0.0445
  273THY    HM1 6821   5.613   2.306   1.086 -0.3129 -0.1869 -1.2111
  273THY    HM2 6822   5.645   2.264   0.922 -1.7475  0.1898  0.8472
  273THY    HM3 6823   5.671   2.142   1.047  0.7582 -0.0450  0.3340
  273THY    CA6 6824   5.904   2.207   1.129  0.0546  0.1597  0.7863
  273THY    HA6 6825   5.870   2.111   1.165 -0.6736 -1.6281 -4.0452
  274THY      O 6826   1.392   7.789   2.908  0.5324 -0.3721  0.1023
  274THY     HO 6827   1.406   7.695   2.929 -0.7115 -0.7562 -0.6652
  274THY    CA1 6828   1.496   7.856   2.958 -0.2032 -0.3775 -0.2409
  274THY    CA2 6829   1.511   7.995   2.955  0.1652  0.2046 -0.3430
  274THY    CP1 6830   1.411   8.070   2.872 -0.2024  0.7913 -0.3233
  274THY    HP1 6831   1.374   8.000   2.796  1.1527 -1.7575  1.2262
  274THY    CP2 6832   1.279   8.115   2.945  0.2367 -0.2349  0.5391
  274THY    HP2 6833   1.225   8.029   2.986 -0.1464  0.1539  0.8587
  274THY    HP3 6834   1.289   8.181   3.032  1.4186  0.5487 -0.1495
  274THY    HP4 6835   1.210   8.153   2.868 -0.3077 -1.7994  0.2133
  274THY    CP3 6836   1.471   8.186   2.799 -0.0542  0.4728 -0.3092
  274THY    HP5 6837   1.571   8.164   2.759  0.1358 -0.0223  0.4183
  274THY    HP6 6838   1.403   8.217   2.719 -0.6050  0.3766  0.1133
  274THY    HP7 6839   1.490   8.273   2.863  0.0703  0.6355 -0.5694
  274THY    CA3 6840   1.615   8.052   3.024  0.2260 -0.3237 -0.2368
  274THY    HA3 6841   1.633   8.158   3.010  0.2127 -0.0817  1.3594
  274THY    CA4 6842   1.704   7.982   3.102  0.1916 -0.1745  0.0995
  274THY    HA4 6843   1.785   8.032   3.155  0.5427  0.8420 -1.3642
  274THY    CA5 6844   1.684   7.846   3.110 -0.2776  0.0919  0.3950
  274THY    CM1 6845   1.786   7.758   3.190  0.8832 -0.1401  0.0275
  274THY    HM1 6846   1.890   7.792   3.181  0.6937  0.1108 -1.5939
  274THY    HM2 6847   1.771   7.761   3.298  2.2254 -1.2995  0.2878
  274THY    HM3 6848   1.766   7.657   3.152 -1.6803  0.6719 -1.0117
  274THY    CA6 6849   1.587   7.784   3.031 -0.3430 -0.0773 -0.0017
  274THY    HA6 6850   1.579   7.676   3.025 -2.1603  0.0411 -0.2861
  275THY      O 6851   2.138   7.922   5.325 -0.8052  0.7485 -0.0101
  275THY     HO 6852   2.044   7.908   5.343  0.0144 -3.0603  2.3640
  275THY    CA1 6853   2.195   7.934   5.452  0.0745 -0.6128 -0.2365
  275THY    CA2 6854   2.328   7.961   5.484  0.1192  0.4452 -0.1496
  275THY    CP1 6855   2.426   7.959   5.366 -0.2647 -0.0147  0.0213
  275THY    HP1 6856   2.387   7.924   5.269 -0.8021  2.6253 -0.8109
  275THY    CP2 6857   2.456   8.111   5.328 -0.2779  0.1763  0.8749
  275THY    HP2 6858   2.497   8.168   5.412  1.0704 -2.0212  1.7848
  275THY    HP3 6859   2.516   8.124   5.237 -1.2671 -0.4304  0.1072
  275THY    HP4 6860   2.364   8.161   5.294 -0.2039  2.4745  3.6639
  275THY    CP3 6861   2.557   7.878   5.388  0.2042 -0.0089  0.1502
  275THY    HP5 6862   2.598   7.888   5.489 -0.1584  0.4218  0.2574
  275THY    HP6 6863   2.538   7.770   5.386 -1.0013  0.1583 -2.8710
  275THY    HP7 6864   2.634   7.897   5.313 -0.4051  0.1360 -0.4452
  275THY    CA3 6865   2.373   7.969   5.620  0.0797 -0.1834 -0.4307
  275THY    HA3 6866   2.475   8.004   5.636 -0.8905  2.4202  0.6466
  275THY    CA4 6867   2.288   7.944   5.727 -0.1017  0.4765  0.5631
  275THY    HA4 6868   2.327   7.936   5.828 -0.2369  0.6334  0.6278
  275THY    CA5 6869   2.154   7.916   5.693  0.2769  0.1252 -0.4466
  275THY    CM1 6870   2.041   7.904   5.795 -0.1824  0.2212 -0.0917
  275THY    HM1 6871   1.978   7.993   5.792  1.6141  1.5454 -0.4455
  275THY    HM2 6872   1.988   7.811   5.776  2.0789 -1.8921  2.9307
  275THY    HM3 6873   2.074   7.913   5.899  0.6891 -0.4130 -0.3009
  275THY    CA6 6874   2.108   7.914   5.562 -0.0736  0.2088  0.8125
  275THY    HA6 6875   2.004   7.895   5.537 -0.0538 -0.1870  1.0298
  276THY      O 6876   1.896   9.339   0.339 -0.4055  0.0330 -0.3006
  276THY     HO 6877   1.832   9.395   0.386 -0.8740 -1.2459  0.6779
  276THY    CA1 6878   1.852   9.293   0.219 -0.0509 -0.6558  0.5542
  276THY    CA2 6879   1.922   9.190   0.157 -0.0132  0.5199  0.0916
  276THY    CP1 6880   2.046   9.127   0.232 -0.3167  0.0162 -0.6161
  276THY    HP1 6881   2.079   9.195   0.312  0.0218 -2.1942  1.2293
  276THY    CP2 6882   2.025   9.000   0.309  0.2872 -0.3936  0.1062
  276THY    HP2 6883   1.991   8.916   0.247  2.3929 -0.3822 -1.1360
  276THY    HP3 6884   2.123   8.964   0.342  0.5829  1.3697  1.2800
  276THY    HP4 6885   1.966   9.016   0.401 -2.8056 -0.9379 -1.6375
  276THY    CP3 6886   2.165   9.109   0.139 -0.7325 -0.5411  0.5250
  276THY    HP5 6887   2.247   9.084   0.208  1.1326  2.9823 -0.2128
  276THY    HP6 6888   2.142   9.036   0.061 -2.7312 -2.0969  2.4098
  276THY    HP7 6889   2.191   9.203   0.090 -1.2790  0.9613  2.9433
  276THY    CA3 6890   1.866   9.133   0.040  1.3270 -0.1511  0.2923
  276THY    HA3 6891   1.908   9.042  -0.003  0.2920 -0.7111  0.4360
  276THY    CA4 6892   1.742   9.179  -0.013  0.5224  0.0398  0.8663
  276THY    HA4 6893   1.701   9.123  -0.097 -0.6112  1.9187  0.1079
  276THY    CA5 6894   1.672   9.282   0.046 -0.5259 -0.3049 -0.1831
  276THY    CM1 6895   1.544   9.319  -0.015  0.1990 -0.1766 -0.4149
  276THY    HM1 6896   1.531   9.425  -0.040 -1.1126 -0.6307 -1.7988
  276THY    HM2 6897   1.513   9.258  -0.101 -1.1949 -1.3525  0.8661
  276THY    HM3 6898   1.476   9.287   0.065  1.7053 -1.7295  0.3002
  276THY    CA6 6899   1.727   9.343   0.162  0.1886 -0.1310 -0.0600
  276THY    HA6 6900   1.671   9.417   0.219  2.5615  1.4569  0.3281
  277THY      O 6901   2.395   8.612   0.504 -0.4706  0.2241  0.2232
  277THY     HO 6902   2.492   8.606   0.502 -0.5173 -2.3814  1.6602
  277THY    CA1 6903   2.373   8.529   0.399 -0.3307  0.2740  0.2844
  277THY    CA2 6904   2.244   8.488   0.358  0.1556 -0.4719  0.0034
  277THY    CP1 6905   2.114   8.549   0.437 -0.5763  0.1952  0.3928
  277THY    HP1 6906   2.139   8.631   0.504 -1.1477  0.4578  0.2960
  277THY    CP2 6907   2.011   8.612   0.341  0.5727  0.2829 -0.0795
  277THY    HP2 6908   2.059   8.693   0.284 -2.4130  1.0977 -1.6440
  277THY    HP3 6909   1.955   8.542   0.278 -1.5475  0.8521  1.0582
  277THY    HP4 6910   1.932   8.647   0.409  1.5443  0.4515  0.9852
  277THY    CP3 6911   2.047   8.443   0.519  0.2524  0.1588 -0.2393
  277THY    HP5 6912   1.955   8.486   0.560  0.3209  1.4251 -1.3435
  277THY    HP6 6913   2.026   8.362   0.448  3.0258  0.7825 -1.9168
  277THY    HP7 6914   2.121   8.409   0.592 -0.6994 -1.2412  0.1189
  277THY    CA3 6915   2.232   8.404   0.245  0.2324 -0.3938 -0.7073
  277THY    HA3 6916   2.130   8.380   0.220  0.1271 -1.4587  0.6512
  277THY    CA4 6917   2.346   8.356   0.181 -0.4669 -0.0847  0.8837
  277THY    HA4 6918   2.336   8.294   0.092 -0.9475  1.0963  0.0901
  277THY    CA5 6919   2.472   8.401   0.220  0.3638  0.6973 -0.0051
  277THY    CM1 6920   2.597   8.369   0.145  0.1154 -0.5027 -0.7468
  277THY    HM1 6921   2.569   8.290   0.075 -0.5139 -2.0051  1.1315
  277THY    HM2 6922   2.618   8.459   0.086 -1.3689 -0.0344 -0.5979
  277THY    HM3 6923   2.674   8.345   0.219 -1.2281  0.1431  0.9170
  277THY    CA6 6924   2.484   8.477   0.335  0.6390 -0.1434 -0.2315
  277THY    HA6 6925   2.583   8.512   0.362  0.3983  0.0600  0.4164
  278THY      O 6926   7.479   6.877   3.930  0.4021  0.1907  0.2280
  278THY     HO 6927   7.573   6.875   3.953  0.4584  0.7107  0.0464
  278THY    CA1 6928   7.416   6.888   4.051 -0.9737  0.8060  0.5091
  278THY    CA2 6929   7.279   6.856   4.064  0.1929 -0.0157 -0.2876
  278THY    CP1 6930   7.186   6.819   3.949 -0.0027 -0.4019  0.1553
  278THY    HP1 6931   7.236   6.843   3.854  2.1666 -1.5010  0.9480
  278THY    CP2 6932   7.170   6.666   3.952 -0.8547  0.0414 -0.0823
  278THY    HP2 6933   7.100   6.632   3.874  0.0239 -1.2311 -0.3349
  278THY    HP3 6934   7.265   6.612   3.947 -1.3043 -0.8810  1.0190
  278THY    HP4 6935   7.113   6.634   4.040  0.3234  0.8353  0.9896
  278THY    CP3 6936   7.043   6.890   3.957 -0.3453  0.1533 -0.0055
  278THY    HP5 6937   6.993   6.848   3.869  0.7379  1.4958 -1.3226
  278THY    HP6 6938   6.990   6.862   4.048  1.3357 -1.6241  0.4784
  278THY    HP7 6939   7.052   7.000   3.954 -1.6938  0.2539 -2.4174
  278THY    CA3 6940   7.227   6.873   4.190 -0.8652 -0.4639  0.1335
  278THY    HA3 6941   7.122   6.864   4.216 -0.7654 -2.6840 -0.0804
  278THY    CA4 6942   7.313   6.905   4.297  0.0546  0.2226  0.4003
  278THY    HA4 6943   7.256   6.931   4.385 -1.6913 -0.0304 -0.6025
  278THY    CA5 6944   7.449   6.918   4.287  0.2151 -0.0998 -0.0696
  278THY    CM1 6945   7.539   6.927   4.406  0.6048  0.1119  0.0207
  278THY    HM1 6946   7.535   6.831   4.458 -0.4196 -0.1056 -0.4507
  278THY    HM2 6947   7.643   6.956   4.383  0.6438 -0.1574 -0.1445
  278THY    HM3 6948   7.507   7.007   4.473  1.2084  1.4469 -1.2220
  278THY    CA6 6949   7.502   6.912   4.159 -0.1999 -0.0067  0.4740
  278THY    HA6 6950   7.610   6.914   4.146 -0.2832 -2.4098 -1.2840
  279THY      O 6951   1.083   2.673   2.431 -0.0115 -0.3813 -0.4254
  279THY     HO 6952   1.129   2.602   2.384 -0.7445  0.3028 -2.3055
  279THY    CA1 6953   1.060   2.777   2.348 -0.4081 -0.7235 -0.2818
  279THY    CA2 6954   0.931   2.844   2.348 -0.2665 -0.6517 -0.0646
  279THY    CP1 6955   0.816   2.792   2.425  0.0215 -0.3595 -0.0750
  279THY    HP1 6956   0.841   2.702   2.483  0.4204  0.2411  0.7106
  279THY    CP2 6957   0.767   2.900   2.524 -0.2208 -0.0511  0.0960
  279THY    HP2 6958   0.719   2.988   2.480  1.6488  0.5356 -0.8747
  279THY    HP3 6959   0.691   2.845   2.580  2.3976 -2.2832  1.7180
  279THY    HP4 6960   0.846   2.934   2.592 -2.1676  2.3530  1.3150
  279THY    CP3 6961   0.708   2.749   2.332  0.2445 -0.2971  0.2157
  279THY    HP5 6962   0.650   2.665   2.373  2.0779 -0.8972  1.7695
  279THY    HP6 6963   0.642   2.833   2.309 -0.9168 -1.0395  0.7742
  279THY    HP7 6964   0.750   2.715   2.237  0.1349 -0.5561  0.2585
  279THY    CA3 6965   0.932   2.967   2.274  0.6073 -0.0960  1.0220
  279THY    HA3 6966   0.838   3.022   2.268  1.0829  0.5549 -1.0214
  279THY    CA4 6967   1.046   3.026   2.207  0.7363  0.0989 -0.2303
  279THY    HA4 6968   1.035   3.106   2.134 -0.2728  0.4547  0.2850
  279THY    CA5 6969   1.161   2.948   2.197 -0.5136 -0.1792  0.3478
  279THY    CM1 6970   1.274   2.979   2.102 -1.0024 -0.2392 -0.1622
  279THY    HM1 6971   1.352   3.011   2.173 -0.4315 -1.8299 -0.0511
  279THY    HM2 6972   1.298   2.895   2.037  0.8351  0.7450 -0.8283
  279THY    HM3 6973   1.251   3.065   2.038  1.1144  0.4359 -0.1057
  279THY    CA6 6974   1.166   2.825   2.267  0.1009 -0.3551 -0.0985
  279THY    HA6 6975   1.264   2.779   2.266 -0.2914 -1.2389  1.0682
  280THY      O 6976   8.035   8.646   6.638  0.0606 -0.5781 -0.5664
  280THY     HO 6977   8.108   8.709   6.654 -1.1588  0.9252 -0.6497
  280THY    CA1 6978   8.062   8.577   6.524  0.2490 -0.4974 -0.1956
  280THY    CA2 6979   7.967   8.512   6.444 -0.1915 -1.0123  0.2336
  280THY    CP1 6980   7.818   8.508   6.489 -0.5305  0.1002 -0.7277
  280THY    HP1 6981   7.816   8.549   6.591  0.4075 -3.3008  0.7953
  280THY    CP2 6982   7.713   8.570   6.394 -1.0281 -0.3793  0.1959
  280THY    HP2 6983   7.695   8.508   6.306 -1.3227 -2.4967  1.6620
  280THY    HP3 6984   7.616   8.580   6.445 -0.7908 -0.4847  0.6722
  280THY    HP4 6985   7.740   8.668   6.354  0.2415 -0.4962  0.7353
  280THY    CP3 6986   7.769   8.370   6.528  0.4618  0.0555  1.0309
  280THY    HP5 6987   7.678   8.373   6.589  0.0914  0.0544  0.4823
  280THY    HP6 6988   7.742   8.318   6.435 -0.3548  1.7898  0.2389
  280THY    HP7 6989   7.838   8.304   6.581 -0.1251 -4.0192 -2.7058
  280THY    CA3 6990   8.010   8.436   6.330  0.1536  0.2446  0.6046
  280THY    HA3 6991   7.948   8.386   6.256  1.8237  1.3286 -1.6591
  280THY    CA4 6992   8.143   8.431   6.302 -0.4561 -0.3331  0.9667
  280THY    HA4 6993   8.183   8.372   6.220  0.0762  1.5600 -0.1894
  280THY    CA5 6994   8.238   8.497   6.379 -0.2140 -0.5444 -0.1087
  280THY    CM1 6995   8.384   8.481   6.350 -0.0339  0.2369 -0.1195
  280THY    HM1 6996   8.400   8.405   6.273  0.3349  1.6218 -1.4381
  280THY    HM2 6997   8.431   8.566   6.299 -1.0439  0.1532 -1.2284
  280THY    HM3 6998   8.441   8.466   6.442  1.3335  1.1534 -0.7922
  280THY    CA6 6999   8.194   8.566   6.494 -0.2214 -0.0886  0.0220
  280THY    HA6 7000   8.272   8.587   6.566  0.5446 -0.9853 -0.5308
  281THY      O 7001   2.220   3.598   8.613 -0.5586  0.0970 -0.0321
  281THY     HO 7002   2.274   3.532   8.660  1.4971 -0.0739 -2.4458
  281THY    CA1 7003   2.211   3.706   8.689 -1.2429 -1.0029  0.3417
  281THY    CA2 7004   2.187   3.842   8.635  0.6249  0.7863 -0.6586
  281THY    CP1 7005   2.187   3.865   8.485  0.0933  0.2771 -0.0890
  281THY    HP1 7006   2.125   3.784   8.446 -1.5973  2.0596 -1.3045
  281THY    CP2 7007   2.105   3.980   8.428  0.6435 -0.3924 -0.6968
  281THY    HP2 7008   1.997   3.962   8.435  0.5322 -0.9103 -2.9316
  281THY    HP3 7009   2.126   4.084   8.455 -1.4483  0.1923 -1.0854
  281THY    HP4 7010   2.122   3.980   8.319  0.5857 -2.0282 -0.7229
  281THY    CP3 7011   2.319   3.842   8.409  0.0465  0.2404  0.2391
  281THY    HP5 7012   2.293   3.816   8.305 -1.4368 -3.5848  1.3846
  281THY    HP6 7013   2.390   3.925   8.419  0.3868 -0.1462  1.1947
  281THY    HP7 7014   2.369   3.753   8.450  1.7299  1.6906  1.5204
  281THY    CA3 7015   2.151   3.936   8.732  0.2653 -0.9099  0.0088
  281THY    HA3 7016   2.127   4.036   8.695  2.3355 -0.2256  0.3695
  281THY    CA4 7017   2.149   3.906   8.869 -0.0385 -0.4394 -0.5604
  281THY    HA4 7018   2.109   3.979   8.938 -2.1487 -0.8977 -1.2162
  281THY    CA5 7019   2.179   3.779   8.915 -0.2067  1.1351  0.0447
  281THY    CM1 7020   2.168   3.749   9.060 -0.5305 -0.0320 -0.1960
  281THY    HM1 7021   2.250   3.693   9.107 -0.4234 -0.3406 -0.7552
  281THY    HM2 7022   2.150   3.840   9.120  0.1986 -1.8581  3.0450
  281THY    HM3 7023   2.081   3.688   9.088 -0.2733 -0.9850 -1.4017
  281THY    CA6 7024   2.212   3.679   8.825 -0.1427  0.1594 -0.1270
  281THY    HA6 7025   2.226   3.580   8.867  0.0860  0.4941  0.6009
  282THY      O 7026   7.590   4.905   2.116 -0.3828 -0.1966  0.0995
  282THY     HO 7027   7.636   4.948   2.190 -0.4647  0.4558 -0.2178
  282THY    CA1 7028   7.596   4.983   2.006  0.1143 -0.4607  0.0888
  282THY    CA2 7029   7.516   4.966   1.892  0.4009  0.0592 -0.0248
  282THY    CP1 7030   7.415   4.851   1.902  0.4008 -0.0749  0.4889
  282THY    HP1 7031   7.453   4.779   1.975  0.9477 -1.4432 -1.0787
  282THY    CP2 7032   7.277   4.913   1.947  0.4975  0.3559 -0.3016
  282THY    HP2 7033   7.295   4.951   2.048 -0.9999 -0.5727  0.3505
  282THY    HP3 7034   7.249   4.992   1.876  1.7682 -0.5809 -1.9077
  282THY    HP4 7035   7.194   4.841   1.946 -0.6535  1.6036  0.9587
  282THY    CP3 7036   7.401   4.776   1.774  0.1489  0.4287  0.0154
  282THY    HP5 7037   7.497   4.745   1.730 -0.2478 -1.0388  0.1297
  282THY    HP6 7038   7.351   4.681   1.796 -0.3760  1.3357  3.1602
  282THY    HP7 7039   7.340   4.827   1.699 -0.4168 -2.3629 -1.6113
  282THY    CA3 7040   7.525   5.060   1.781 -0.3331  0.2913 -0.4561
  282THY    HA3 7041   7.465   5.047   1.691 -1.4585  0.5764  0.2378
  282THY    CA4 7042   7.617   5.164   1.787  0.0783 -0.8504  0.2914
  282THY    HA4 7043   7.614   5.229   1.700  2.9264 -1.2245 -0.1738
  282THY    CA5 7044   7.702   5.180   1.898  0.9080 -0.3272 -0.2258
  282THY    CM1 7045   7.810   5.277   1.906 -0.2377  0.2937 -0.7173
  282THY    HM1 7046   7.886   5.264   1.984  0.3871 -0.6233 -1.4574
  282THY    HM2 7047   7.864   5.285   1.811 -0.0262 -0.4988 -0.6707
  282THY    HM3 7048   7.768   5.377   1.925  1.2633  0.5863  1.3722
  282THY    CA6 7049   7.692   5.089   2.007 -0.0660  0.3984  0.3225
  282THY    HA6 7050   7.770   5.097   2.083 -0.2523  0.1359  0.5414
  283THY      O 7051   0.834   7.009   7.042  0.3736  0.1309 -0.1444
  283THY     HO 7052   0.885   6.943   6.992 -1.7794 -1.8383  0.0934
  283THY    CA1 7053   0.754   6.941   7.124  0.3557 -0.7110  0.1342
  283THY    CA2 7054   0.670   7.006   7.217 -1.1406  1.0244  0.4414
  283THY    CP1 7055   0.671   7.162   7.225 -0.3267  0.2488  0.5150
  283THY    HP1 7056   0.774   7.197   7.217 -0.8763  2.1521  1.0876
  283THY    CP2 7057   0.573   7.215   7.117  0.2800 -0.2567  0.1498
  283THY    HP2 7058   0.470   7.212   7.154 -0.3341 -0.2881 -1.4599
  283THY    HP3 7059   0.594   7.321   7.098  1.2867  0.0973  2.8068
  283THY    HP4 7060   0.577   7.150   7.029  2.0917 -0.0770  0.0608
  283THY    CP3 7061   0.633   7.219   7.359 -0.6541  0.2336 -0.6126
  283THY    HP5 7062   0.637   7.327   7.348  0.6123  0.3305  0.5013
  283THY    HP6 7063   0.534   7.195   7.400 -0.2144 -0.8561 -0.1252
  283THY    HP7 7064   0.694   7.198   7.448 -2.2881 -0.4094  0.4131
  283THY    CA3 7065   0.601   6.916   7.300  0.4023 -0.4027  0.2361
  283THY    HA3 7066   0.525   6.960   7.364 -0.2125  2.0860 -1.9999
  283THY    CA4 7067   0.612   6.778   7.298 -0.1901 -0.3446  0.3042
  283THY    HA4 7068   0.555   6.724   7.372 -0.9921  1.8968  1.4331
  283THY    CA5 7069   0.693   6.724   7.196 -0.1163 -0.2394 -0.0029
  283THY    CM1 7070   0.706   6.572   7.193  0.7002  0.7393  0.2435
  283THY    HM1 7071   0.622   6.538   7.132 -0.4432  0.7424  1.7548
  283THY    HM2 7072   0.797   6.544   7.140  0.5550 -1.1841  0.9594
  283THY    HM3 7073   0.707   6.527   7.293 -1.8869  0.3784  0.1777
  283THY    CA6 7074   0.756   6.806   7.104 -0.5467  0.2698 -0.1438
  283THY    HA6 7075   0.811   6.766   7.019  1.5493  1.6998  0.4641
  284THY      O 7076   0.088   6.399   2.275 -0.3675 -0.0437  0.8681
  284THY     HO 7077   0.101   6.483   2.229  0.4567 -0.0966  0.9873
  284THY    CA1 7078   0.049   6.418   2.402  0.2977  0.4181 -0.6723
  284THY    CA2 7079   0.047   6.307   2.494  0.3223  0.0021  0.6757
  284THY    CP1 7080   0.092   6.172   2.449  0.9843 -0.1851 -0.2211
  284THY    HP1 7081   0.124   6.171   2.345  1.2751  0.0264 -0.1342
  284THY    CP2 7082   0.210   6.139   2.542 -0.2339  0.4274  0.2088
  284THY    HP2 7083   0.252   6.046   2.502  0.0836 -0.1343  1.8118
  284THY    HP3 7084   0.276   6.226   2.536 -1.1583  1.1806  0.6230
  284THY    HP4 7085   0.176   6.107   2.641 -1.2710  0.5646 -0.0889
  284THY    CP3 7086  -0.006   6.056   2.455 -0.3305 -0.1689  0.0891
  284THY    HP5 7087  -0.073   6.068   2.369  1.3065 -1.1546 -1.3945
  284THY    HP6 7088   0.040   5.958   2.435  0.5527  0.0651  0.8809
  284THY    HP7 7089  -0.056   6.062   2.552 -1.7829 -1.1076 -0.5721
  284THY    CA3 7090   0.007   6.337   2.623  0.7182  0.6742 -0.3163
  284THY    HA3 7091  -0.002   6.256   2.695  1.5167  0.1521 -0.7888
  284THY    CA4 7092  -0.016   6.468   2.671  0.5189  0.5756 -0.1064
  284THY    HA4 7093  -0.045   6.485   2.774  0.0493 -1.8625  0.2381
  284THY    CA5 7094  -0.016   6.576   2.580  0.0588 -0.5393 -0.1586
  284THY    CM1 7095  -0.058   6.712   2.628  0.6231 -0.0395  0.3072
  284THY    HM1 7096  -0.158   6.711   2.673 -0.6114 -1.1544 -2.2640
  284THY    HM2 7097   0.020   6.756   2.692 -0.9096  1.6640  1.1010
  284THY    HM3 7098  -0.074   6.778   2.541  2.7894  1.0863  0.7004
  284THY    CA6 7099   0.010   6.544   2.445  0.7842  0.0921  0.5034
  284THY    HA6 7100   0.016   6.630   2.379  3.5153 -0.7795 -0.4966
  285THY      O 7101   1.250   5.822   6.607  0.0680 -0.1081  0.1421
  285THY     HO 7102   1.274   5.850   6.697  2.0502  1.0799 -0.6950
  285THY    CA1 7103   1.151   5.735   6.623  0.0353  0.5959  0.4771
  285THY    CA2 7104   1.045   5.714   6.535  0.3542  0.0758 -0.5725
  285THY    CP1 7105   1.022   5.809   6.417 -0.0331  0.4408  0.7543
  285THY    HP1 7106   1.110   5.874   6.408 -0.2147  0.9138  2.1737
  285THY    CP2 7107   1.011   5.729   6.289 -0.1822 -0.1003 -0.5275
  285THY    HP2 7108   0.974   5.793   6.208 -0.4162  0.5652  0.0863
  285THY    HP3 7109   1.105   5.677   6.269  0.4854  0.8336  0.0565
  285THY    HP4 7110   0.929   5.657   6.303  1.0557 -1.2672  1.1910
  285THY    CP3 7111   0.908   5.908   6.437  0.2769  0.5187  0.3145
  285THY    HP5 7112   0.922   5.962   6.531 -1.7050  0.8125  0.5024
  285THY    HP6 7113   0.903   5.983   6.357  0.3630 -2.6866 -2.9560
  285THY    HP7 7114   0.812   5.856   6.446  0.1595  0.8532  1.0833
  285THY    CA3 7115   0.944   5.616   6.559 -0.8689  0.0741  0.0163
  285THY    HA3 7116   0.857   5.603   6.495  0.1136 -1.1113 -1.1448
  285THY    CA4 7117   0.952   5.543   6.684 -0.5233  0.7507 -0.2369
  285THY    HA4 7118   0.884   5.460   6.701  0.0200 -0.2050 -2.3929
  285THY    CA5 7119   1.049   5.574   6.773 -0.2411  0.0983 -0.3781
  285THY    CM1 7120   1.047   5.504   6.903 -0.0637  0.2860 -0.3289
  285THY    HM1 7121   1.053   5.395   6.892  1.3068  0.3401 -0.3619
  285THY    HM2 7122   1.131   5.542   6.963 -1.1454  1.2898  0.5888
  285THY    HM3 7123   0.960   5.535   6.962  1.5094  1.6155  1.4267
  285THY    CA6 7124   1.151   5.662   6.741 -0.1896 -0.3076 -0.2573
  285THY    HA6 7125   1.232   5.679   6.811 -0.3708 -1.2541  0.1972
  286THY      O 7126   8.117   7.515   2.855  0.1042  0.0660  0.1299
  286THY     HO 7127   8.146   7.493   2.765 -0.9305 -0.3521 -0.1091
  286THY    CA1 7128   8.217   7.569   2.923 -0.0670 -0.1193 -0.3826
  286THY    CA2 7129   8.189   7.659   3.027 -0.0083 -0.2730 -0.4011
  286THY    CP1 7130   8.045   7.704   3.054 -0.0226  0.3680  0.0994
  286THY    HP1 7131   7.964   7.652   3.001 -2.8703  3.2698  1.2974
  286THY    CP2 7132   8.009   7.707   3.195 -0.0763 -0.6197  0.4981
  286THY    HP2 7133   8.050   7.792   3.251  1.9948 -1.8029  0.9029
  286THY    HP3 7134   7.903   7.706   3.222  0.0424 -0.1244  1.0180
  286THY    HP4 7135   8.035   7.608   3.233  0.7750 -1.1534 -1.3666
  286THY    CP3 7136   8.029   7.845   2.992 -0.0944 -0.2361  0.3564
  286THY    HP5 7137   8.054   7.839   2.886 -3.3253  1.6849 -0.6672
  286THY    HP6 7138   7.933   7.897   2.998  1.2858  2.7385 -1.3853
  286THY    HP7 7139   8.098   7.916   3.038  2.6420 -3.2287  1.2779
  286THY    CA3 7140   8.307   7.709   3.110  0.1027 -0.8880  1.0860
  286THY    HA3 7141   8.289   7.773   3.195  1.8364 -0.2562  1.0071
  286THY    CA4 7142   8.435   7.662   3.067 -0.0737  0.2995 -0.0235
  286THY    HA4 7143   8.520   7.704   3.120  1.3585 -0.1957 -1.8117
  286THY    CA5 7144   8.449   7.571   2.964 -0.1051 -0.0457 -0.4788
  286THY    CM1 7145   8.590   7.529   2.927  0.0069  0.4765 -0.0035
  286THY    HM1 7146   8.597   7.479   2.830 -1.7169  0.2757 -0.0512
  286THY    HM2 7147   8.653   7.616   2.905 -0.4757  0.7991 -0.1108
  286THY    HM3 7148   8.646   7.475   3.005  2.6732  1.7183 -0.9355
  286THY    CA6 7149   8.345   7.523   2.895  0.4315 -0.1410  0.2491
  286THY    HA6 7150   8.365   7.441   2.828  0.5334 -1.3191  1.6631
  287THY      O 7151   4.579   1.415   9.412 -0.0846  0.3603 -0.2050
  287THY     HO 7152   4.554   1.332   9.455 -1.3384  0.6823 -0.2787
  287THY    CA1 7153   4.664   1.371   9.318  0.0788 -0.3038 -0.3160
  287THY    CA2 7154   4.708   1.454   9.212  0.2444  0.0360 -0.5214
  287THY    CP1 7155   4.640   1.595   9.195  0.0473  0.1874  0.6177
  287THY    HP1 7156   4.533   1.593   9.219 -0.7352 -2.6150 -2.3930
  287THY    CP2 7157   4.705   1.703   9.284  0.8101  0.1336  0.6381
  287THY    HP2 7158   4.814   1.712   9.270  0.8423  0.1800  0.9039
  287THY    HP3 7159   4.649   1.796   9.267 -1.1473 -0.9355  0.9478
  287THY    HP4 7160   4.690   1.680   9.390  0.4685  2.9896  1.2911
  287THY    CP3 7161   4.641   1.649   9.047  0.2625  0.6584  0.3335
  287THY    HP5 7162   4.742   1.669   9.011 -0.2526  0.9450 -0.9864
  287THY    HP6 7163   4.582   1.570   8.999  0.1576 -0.8042  2.6581
  287THY    HP7 7164   4.581   1.740   9.045  1.4150  1.4233 -2.0474
  287THY    CA3 7165   4.808   1.403   9.126 -0.2073 -0.1441 -0.0415
  287THY    HA3 7166   4.850   1.463   9.047  0.8753  0.3622  0.8841
  287THY    CA4 7167   4.861   1.274   9.145  0.4960 -0.3104  0.7653
  287THY    HA4 7168   4.934   1.232   9.077 -0.1127 -1.3263  0.7217
  287THY    CA5 7169   4.820   1.197   9.250 -0.2422  0.1088  0.3411
  287THY    CM1 7170   4.890   1.074   9.282  0.1017  0.6539  0.2960
  287THY    HM1 7171   4.950   1.081   9.374  0.6380 -2.9065  0.3349
  287THY    HM2 7172   4.820   0.992   9.305 -0.9857  1.4946  0.0899
  287THY    HM3 7173   4.959   1.033   9.208  1.0417  0.9829  0.9708
  287THY    CA6 7174   4.712   1.244   9.327  0.0452  0.1758 -0.2386
  287THY    HA6 7175   4.673   1.191   9.413  0.2210 -0.3140 -0.4579
  288THY      O 7176   0.745   4.661   6.168 -0.6478 -0.8988  0.3236
  288THY     HO 7177   0.765   4.723   6.095  2.5091 -1.5073  0.5338
  288THY    CA1 7178   0.688   4.552   6.113 -0.1404 -0.3449  0.6290
  288THY    CA2 7179   0.563   4.512   6.158 -0.4861 -0.0181 -0.3843
  288THY    CP1 7180   0.480   4.580   6.267  0.0494  0.2995  0.2376
  288THY    HP1 7181   0.527   4.676   6.290  2.4899 -1.1308  1.6508
  288THY    CP2 7182   0.333   4.594   6.234  0.2988 -0.3385 -0.4551
  288THY    HP2 7183   0.325   4.640   6.135  1.7970  3.8516  1.1648
  288THY    HP3 7184   0.283   4.497   6.247 -0.6015  0.4432  3.1157
  288THY    HP4 7185   0.301   4.664   6.313  1.3970  0.1993 -0.4691
  288THY    CP3 7186   0.500   4.497   6.390  0.6900  0.8656  0.2070
  288THY    HP5 7187   0.447   4.537   6.478 -0.2296 -2.2324  1.1724
  288THY    HP6 7188   0.463   4.395   6.376 -1.1824  1.6747 -1.2648
  288THY    HP7 7189   0.608   4.494   6.408  0.8695  0.2877 -0.9047
  288THY    CA3 7190   0.507   4.400   6.090 -0.1132  0.2133 -0.3332
  288THY    HA3 7191   0.409   4.363   6.117  1.0107 -2.1587  0.8091
  288THY    CA4 7192   0.584   4.336   5.986  0.3707  0.4492  0.2858
  288THY    HA4 7193   0.554   4.245   5.934  3.5618 -0.8038  0.3905
  288THY    CA5 7194   0.715   4.383   5.948 -0.1315  0.1590  0.3322
  288THY    CM1 7195   0.798   4.321   5.837  0.4059  0.5176  0.0402
  288THY    HM1 7196   0.768   4.216   5.831  1.1412  0.3285 -0.3809
  288THY    HM2 7197   0.781   4.373   5.742  2.7873 -0.4201 -0.9832
  288THY    HM3 7198   0.905   4.326   5.858  0.1812  0.7883  1.1797
  288THY    CA6 7199   0.758   4.501   6.005 -0.4976 -0.2959  0.0483
  288THY    HA6 7200   0.847   4.554   5.974 -0.2057 -0.5589  0.4328
  289THY      O 7201   7.272   5.536   3.221 -0.5260  0.0794 -0.3899
  289THY     HO 7202   7.363   5.509   3.199  0.4646  2.0362  0.9522
  289THY    CA1 7203   7.252   5.632   3.130 -0.7478  0.2705  0.8217
  289THY    CA2 7204   7.149   5.726   3.140  0.8729 -0.1678  0.0865
  289THY    CP1 7205   7.062   5.725   3.273 -0.1081  0.3267 -0.2328
  289THY    HP1 7206   7.110   5.657   3.343  0.7392  0.0933 -1.0177
  289THY    CP2 7207   7.054   5.858   3.341 -0.1793 -0.3792  0.0928
  289THY    HP2 7208   7.138   5.923   3.313 -0.0673 -0.2507  0.7172
  289THY    HP3 7209   6.968   5.917   3.306  0.6819  0.5817 -0.4956
  289THY    HP4 7210   7.052   5.848   3.450  1.2958  1.2650  0.3205
  289THY    CP3 7211   6.927   5.660   3.256 -0.2376 -0.6068  0.6272
  289THY    HP5 7212   6.938   5.571   3.194 -0.2467  0.5928 -1.1802
  289THY    HP6 7213   6.886   5.626   3.351  0.4044 -1.2682  0.6756
  289THY    HP7 7214   6.859   5.732   3.209  1.0292  0.0285 -0.3196
  289THY    CA3 7215   7.123   5.815   3.029 -0.7585 -0.0993 -0.2031
  289THY    HA3 7216   7.038   5.883   3.034  0.5444  1.5913 -0.2452
  289THY    CA4 7217   7.212   5.814   2.922 -0.0105  0.0318 -0.1086
  289THY    HA4 7218   7.184   5.870   2.834 -1.9087  0.4136  0.6999
  289THY    CA5 7219   7.330   5.737   2.925 -0.3504  0.0567 -0.2041
  289THY    CM1 7220   7.432   5.757   2.815  0.5082 -0.0221 -0.4831
  289THY    HM1 7221   7.421   5.855   2.765  0.9625  0.8550  1.0918
  289THY    HM2 7222   7.535   5.752   2.853 -0.7359 -2.4874  3.0547
  289THY    HM3 7223   7.419   5.673   2.746 -0.3708 -0.8323  0.6405
  289THY    CA6 7224   7.344   5.641   3.026 -0.5623 -0.2181 -0.1346
  289THY    HA6 7225   7.427   5.571   3.034 -1.8018 -1.7825 -0.5839
  290THY      O 7226   1.175   8.437   2.603  0.3121  0.3933  0.1013
  290THY     HO 7227   1.196   8.521   2.557 -1.1670  1.6869  1.6546
  290THY    CA1 7228   1.042   8.445   2.616 -0.0733  0.0440 -0.2277
  290THY    CA2 7229   0.963   8.327   2.626 -0.2874 -0.3757  0.3278
  290THY    CP1 7230   1.023   8.186   2.600 -0.0825  0.3463  0.3366
  290THY    HP1 7231   1.132   8.187   2.617 -0.4746 -1.0465  3.9209
  290THY    CP2 7232   0.968   8.098   2.716 -0.1544  0.4287  0.6006
  290THY    HP2 7233   0.982   8.153   2.810  0.1783  1.7146 -0.1775
  290THY    HP3 7234   0.860   8.078   2.712 -0.1525  0.5794 -2.8530
  290THY    HP4 7235   1.030   8.008   2.726  1.2927  0.8394 -3.1927
  290THY    CP3 7236   0.989   8.135   2.459 -0.1611  0.6074  0.0579
  290THY    HP5 7237   1.056   8.053   2.434 -0.9477  0.1147 -0.4854
  290THY    HP6 7238   0.884   8.104   2.452  0.0680 -0.2314  0.2491
  290THY    HP7 7239   1.009   8.211   2.383  0.3568  1.4602  1.0264
  290THY    CA3 7240   0.821   8.338   2.645 -0.6196  0.4502 -0.3178
  290THY    HA3 7241   0.759   8.249   2.642 -0.2870  0.1262  1.3591
  290THY    CA4 7242   0.772   8.469   2.662 -0.9457 -1.1391  0.0309
  290THY    HA4 7243   0.664   8.485   2.664 -0.7326  0.5719  3.0638
  290THY    CA5 7244   0.855   8.590   2.665  0.3929  0.0548 -0.6086
  290THY    CM1 7245   0.794   8.726   2.653  0.8584  0.3278  0.0892
  290THY    HM1 7246   0.836   8.777   2.565  0.3709  0.2794 -0.1718
  290THY    HM2 7247   0.688   8.730   2.627  0.6423  2.0281  1.1092
  290THY    HM3 7248   0.801   8.791   2.740 -2.2306  1.7242 -0.5709
  290THY    CA6 7249   0.992   8.575   2.637  0.3779 -0.0707 -0.6514
  290THY    HA6 7250   1.047   8.667   2.623  0.9435 -0.3417 -0.2515
  291THY      O 7251   8.029   0.983   0.018  0.1745 -0.1355 -0.6401
  291THY     HO 7252   8.056   0.892   0.038  0.1596  0.2387  1.2511
  291THY    CA1 7253   8.006   1.037   0.131  0.3232 -0.6380 -0.3212
  291THY    CA2 7254   8.002   1.173   0.147 -0.2993  0.0705 -0.4687
  291THY    CP1 7255   8.012   1.267   0.026 -0.3541  0.7730 -0.0257
  291THY    HP1 7256   7.952   1.220  -0.053 -0.6768 -1.5008  1.4977
  291THY    CP2 7257   7.951   1.401   0.050  0.3178  0.3062 -0.2952
  291THY    HP2 7258   7.969   1.463  -0.039  3.4175 -1.0180 -0.7256
  291THY    HP3 7259   7.847   1.391   0.083  0.4200  0.2093  0.0055
  291THY    HP4 7260   8.013   1.446   0.129  0.4195 -0.7521  0.2407
  291THY    CP3 7261   8.160   1.287  -0.023 -1.1631  0.2839 -0.3242
  291THY    HP5 7262   8.211   1.190  -0.030  1.8565  1.6565  0.7883
  291THY    HP6 7263   8.166   1.326  -0.126 -0.1610 -3.0665 -1.6857
  291THY    HP7 7264   8.221   1.343   0.049  0.3475 -2.4306  0.6623
  291THY    CA3 7265   7.996   1.228   0.283 -0.2354 -0.3009  0.3009
  291THY    HA3 7266   7.970   1.333   0.292 -0.7890 -0.0394 -2.9732
  291THY    CA4 7267   8.001   1.144   0.390 -0.8758  0.2531 -0.0219
  291THY    HA4 7268   7.986   1.182   0.490 -1.5949  3.1297 -1.1372
  291THY    CA5 7269   8.006   1.007   0.370 -0.2259  0.2990 -0.3410
  291THY    CM1 7270   7.997   0.913   0.486 -0.2629 -0.1854  0.7981
  291THY    HM1 7271   7.976   0.965   0.580  0.1146 -0.0330  0.8012
  291THY    HM2 7272   7.926   0.832   0.462 -0.7342  0.2892  0.5878
  291THY    HM3 7273   8.098   0.869   0.495 -0.5004 -1.3740 -1.5545
  291THY    CA6 7274   8.014   0.954   0.241 -1.0743  0.1663  0.2173
  291THY    HA6 7275   8.007   0.846   0.230 -1.2565  0.0892  1.0470
  292THY      O 7276   8.120   2.802   0.102 -0.0954  0.2786  0.4032
  292THY     HO 7277   8.112   2.806   0.199  1.3336 -0.4206  0.5694
  292THY    CA1 7278   8.104   2.929   0.055  0.1462 -0.1303  0.5780
  292THY    CA2 7279   8.102   2.958  -0.086 -0.0734  0.1970 -0.5801
  292THY    CP1 7280   8.120   2.845  -0.185 -0.2701  0.6099 -0.7296
  292THY    HP1 7281   8.060   2.758  -0.156 -0.7834  0.8542 -1.0535
  292THY    CP2 7282   8.082   2.890  -0.328  0.6612 -0.0474  0.3460
  292THY    HP2 7283   7.985   2.939  -0.332  1.4742  1.5516 -2.2680
  292THY    HP3 7284   8.163   2.951  -0.369  0.0431  1.0183  0.6887
  292THY    HP4 7285   8.071   2.798  -0.388 -1.2767  0.3640  0.0011
  292THY    CP3 7286   8.266   2.808  -0.194  0.3240 -0.0866  0.9627
  292THY    HP5 7287   8.334   2.879  -0.243  0.3597  1.5534  3.2236
  292THY    HP6 7288   8.310   2.771  -0.101 -0.6133 -2.3439  0.5563
  292THY    HP7 7289   8.262   2.716  -0.253 -2.7487  0.2278  0.5185
  292THY    CA3 7290   8.103   3.098  -0.125  0.3807 -0.0194 -0.1381
  292THY    HA3 7291   8.100   3.128  -0.230  1.0243 -2.2612 -0.8446
  292THY    CA4 7292   8.098   3.199  -0.026  0.2220  0.2058  0.7557
  292THY    HA4 7293   8.086   3.302  -0.060 -1.8287 -0.2249  0.0503
  292THY    CA5 7294   8.098   3.166   0.104 -0.4841 -0.2054 -0.0312
  292THY    CM1 7295   8.096   3.270   0.203  0.0746 -0.2973 -0.7984
  292THY    HM1 7296   7.992   3.286   0.235 -0.1185 -1.5206 -0.7604
  292THY    HM2 7297   8.162   3.238   0.285  0.9232 -0.5269 -1.5647
  292THY    HM3 7298   8.134   3.361   0.155 -2.4212  1.1922 -0.1623
  292THY    CA6 7299   8.104   3.035   0.146 -0.7431  0.2205 -0.1303
  292THY    HA6 7300   8.115   3.010   0.251 -0.0524 -1.6175 -0.5866
  293THY      O 7301   6.550   3.809   8.905 -0.2647 -0.3004  0.2588
  293THY     HO 7302   6.556   3.727   8.854  1.3620  0.8055 -1.4600
  293THY    CA1 7303   6.600   3.908   8.829  0.5298  0.1571  0.0541
  293THY    CA2 7304   6.594   4.047   8.872 -0.4503 -0.7762 -0.5355
  293THY    CP1 7305   6.556   4.078   9.014  1.0423  0.9193  0.5239
  293THY    HP1 7306   6.592   3.995   9.076  0.6872 -0.3630 -0.9322
  293THY    CP2 7307   6.627   4.206   9.061 -0.1328 -0.7406 -0.6752
  293THY    HP2 7308   6.626   4.216   9.171 -2.0225  0.2132 -0.7488
  293THY    HP3 7309   6.735   4.204   9.041  0.0548  0.1666  0.1208
  293THY    HP4 7310   6.589   4.299   9.018 -1.2186 -1.0246 -0.3478
  293THY    CP3 7311   6.407   4.083   9.038  0.2918  0.3841 -0.0547
  293THY    HP5 7312   6.355   3.987   9.026 -1.7422  1.3184  0.7114
  293THY    HP6 7313   6.388   4.134   9.134 -1.9693 -0.4608  0.0232
  293THY    HP7 7314   6.358   4.144   8.962  0.5818  1.0161  0.2624
  293THY    CA3 7315   6.632   4.143   8.773 -0.7298 -0.7348 -1.3390
  293THY    HA3 7316   6.637   4.246   8.805 -1.3878 -0.7691 -1.1086
  293THY    CA4 7317   6.666   4.101   8.646 -0.5447 -0.5257 -0.9825
  293THY    HA4 7318   6.695   4.174   8.571  0.5002  0.4413  0.3087
  293THY    CA5 7319   6.680   3.971   8.608 -0.7605  0.0771 -0.0073
  293THY    CM1 7320   6.718   3.939   8.465  0.3190 -0.5560  0.6220
  293THY    HM1 7321   6.781   4.018   8.423 -1.2613  3.1519  4.4677
  293THY    HM2 7322   6.778   3.847   8.473  1.9768  0.5367  1.3393
  293THY    HM3 7323   6.631   3.917   8.401  1.9844 -0.4653 -1.8120
  293THY    CA6 7324   6.644   3.872   8.700 -0.5912  0.2406  0.0931
  293THY    HA6 7325   6.635   3.772   8.661 -1.1929  1.2271 -2.5165
  294THY      O 7326   2.423   4.634   7.267  0.2856 -0.2253  0.3635
  294THY     HO 7327   2.450   4.621   7.360  2.6763 -0.1904 -0.2536
  294THY    CA1 7328   2.330   4.728   7.252 -0.0951  0.0286 -0.6852
  294THY    CA2 7329   2.260   4.743   7.126  0.1102 -0.1082  0.5811
  294THY    CP1 7330   2.293   4.649   7.017  0.0734 -0.1985 -0.4185
  294THY    HP1 7331   2.398   4.620   7.026 -0.1136 -0.2737  2.2104
  294THY    CP2 7332   2.207   4.516   7.009 -0.2487 -0.1137  0.4387
  294THY    HP2 7333   2.208   4.476   6.907 -0.0089  1.4652 -0.2004
  294THY    HP3 7334   2.234   4.450   7.093  0.7815  2.4621  2.2380
  294THY    HP4 7335   2.110   4.560   7.035 -0.3280  0.0973 -0.1966
  294THY    CP3 7336   2.272   4.712   6.877  0.1352  0.6395  0.0086
  294THY    HP5 7337   2.308   4.644   6.798  0.4537  2.1439 -1.2047
  294THY    HP6 7338   2.166   4.727   6.856  0.6233  3.0850 -1.0830
  294THY    HP7 7339   2.322   4.809   6.866  0.7932  0.2385 -0.7086
  294THY    CA3 7340   2.164   4.852   7.110  0.2957 -0.2308  0.0496
  294THY    HA3 7341   2.125   4.864   7.010  0.2560 -0.3096  0.0552
  294THY    CA4 7342   2.119   4.920   7.227 -0.5223 -0.6795  0.9144
  294THY    HA4 7343   2.038   4.992   7.220 -0.5879 -0.3686  3.6955
  294THY    CA5 7344   2.195   4.915   7.350  0.3224 -0.2446  0.2379
  294THY    CM1 7345   2.162   4.990   7.472  0.2583  0.0146 -0.3881
  294THY    HM1 7346   2.209   4.933   7.553  2.1849  1.1334 -0.6694
  294THY    HM2 7347   2.200   5.092   7.460 -3.7725  1.7958  0.3467
  294THY    HM3 7348   2.053   5.001   7.486 -0.2323 -1.0341 -2.8526
  294THY    CA6 7349   2.297   4.813   7.358  0.1394  0.3209  0.2102
  294THY    HA6 7350   2.350   4.797   7.452 -1.6156  1.1043  1.3924
  295THY      O 7351   2.490   7.420   7.253  0.6455  0.3557  0.6511
  295THY     HO 7352   2.424   7.360   7.292 -0.8778  1.6527  0.1454
  295THY    CA1 7353   2.581   7.453   7.350  0.8052 -0.0832 -0.3640
  295THY    CA2 7354   2.679   7.545   7.332  0.1405 -0.2407  0.6617
  295THY    CP1 7355   2.694   7.616   7.199 -0.0740 -0.0989 -0.0334
  295THY    HP1 7356   2.639   7.560   7.122  1.0841 -0.4545 -0.6282
  295THY    CP2 7357   2.644   7.756   7.214  0.0876  0.3215  0.2521
  295THY    HP2 7358   2.690   7.800   7.303 -0.9544  0.7281  0.6041
  295THY    HP3 7359   2.666   7.823   7.130 -0.8532 -0.1032 -0.3509
  295THY    HP4 7360   2.535   7.760   7.232  0.0600  1.9649 -0.1237
  295THY    CP3 7361   2.836   7.616   7.154  0.0667  0.4615 -0.0819
  295THY    HP5 7362   2.852   7.665   7.057  0.0998 -0.3255 -0.4868
  295THY    HP6 7363   2.893   7.682   7.220  1.6234 -2.7013  2.0091
  295THY    HP7 7364   2.890   7.520   7.159 -0.7860  0.0334  1.1192
  295THY    CA3 7365   2.770   7.579   7.438 -0.2307  0.1914 -0.0916
  295THY    HA3 7366   2.845   7.657   7.439 -1.0877  1.0382  0.5876
  295THY    CA4 7367   2.750   7.519   7.560 -0.6406  0.6299  0.0826
  295THY    HA4 7368   2.812   7.538   7.647  0.2230 -0.6784 -0.2271
  295THY    CA5 7369   2.657   7.416   7.569 -0.1069 -0.8297  0.0548
  295THY    CM1 7370   2.641   7.333   7.695  0.5981  0.3156 -0.8498
  295THY    HM1 7371   2.552   7.366   7.749 -0.1402 -0.5812 -1.4886
  295THY    HM2 7372   2.642   7.226   7.672  1.7343 -1.2570  4.9747
  295THY    HM3 7373   2.727   7.343   7.763  0.7706  0.1241 -1.0381
  295THY    CA6 7374   2.560   7.396   7.473  0.3259 -0.2192 -0.1738
  295THY    HA6 7375   2.479   7.324   7.482 -0.6938  0.5729 -2.3185
  296THY      O 7376   9.124   8.292   0.385 -0.0764 -0.1552 -0.0344
  296THY     HO 7377   9.055   8.319   0.449  1.6620  1.3181  1.3245
  296THY    CA1 7378   9.137   8.161   0.380 -0.4812 -0.3805  0.3667
  296THY    CA2 7379   9.203   8.104   0.265 -0.6897  0.2942 -0.7713
  296THY    CP1 7380   9.270   8.193   0.162 -0.3370  0.1547  0.0955
  296THY    HP1 7381   9.224   8.293   0.163 -1.8986 -0.5178 -1.1371
  296THY    CP2 7382   9.425   8.181   0.186  0.6389  0.7212 -0.1516
  296THY    HP2 7383   9.451   8.081   0.224  0.0631  0.1649 -1.1786
  296THY    HP3 7384   9.483   8.200   0.095 -0.2095  4.4547 -0.0511
  296THY    HP4 7385   9.452   8.256   0.261 -2.3538  0.3950  1.4079
  296THY    CP3 7386   9.249   8.141   0.021 -0.3282  0.3496  0.1945
  296THY    HP5 7387   9.143   8.139  -0.007  0.4111  1.1885 -3.1052
  296THY    HP6 7388   9.297   8.206  -0.052 -0.4602  0.3437  0.1017
  296THY    HP7 7389   9.291   8.040   0.012 -0.0940 -0.0058  3.6810
  296THY    CA3 7390   9.226   7.961   0.268  0.0362  0.6795 -0.7059
  296THY    HA3 7391   9.283   7.908   0.193 -0.8324 -2.3143  0.6297
  296THY    CA4 7392   9.179   7.878   0.376 -0.0691 -0.6593 -0.5787
  296THY    HA4 7393   9.205   7.772   0.385 -0.7586 -0.6446  3.1440
  296THY    CA5 7394   9.119   7.940   0.487  0.3950 -0.6088 -0.2143
  296THY    CM1 7395   9.090   7.856   0.609  0.2442  0.2149  0.0128
  296THY    HM1 7396   9.150   7.764   0.602 -1.2370 -0.7748 -0.2831
  296THY    HM2 7397   9.134   7.900   0.699 -0.4555 -2.4309  1.7865
  296THY    HM3 7398   8.985   7.827   0.623  0.1174  1.2153  1.2646
  296THY    CA6 7399   9.100   8.074   0.489 -0.8263 -0.8515 -0.1040
  296THY    HA6 7400   9.056   8.123   0.576  1.2170  2.4998 -0.7550
  297THY      O 7401   8.432   7.921   9.598 -1.0767  0.1019 -0.3653
  297THY     HO 7402   8.483   7.857   9.545 -0.4360  0.4153 -0.1476
  297THY    CA1 7403   8.408   8.015   9.506 -0.0158  0.2053  0.8184
  297THY    CA2 7404   8.398   8.149   9.531 -0.2322  0.3011  0.3442
  297THY    CP1 7405   8.424   8.207   9.667  0.7827 -0.6010  0.5415
  297THY    HP1 7406   8.446   8.132   9.744 -0.5483  0.2647  1.8211
  297THY    CP2 7407   8.543   8.309   9.670  0.2022 -0.7387  0.0594
  297THY    HP2 7408   8.632   8.250   9.646  0.2660 -0.3182 -0.7592
  297THY    HP3 7409   8.543   8.380   9.586  0.9541 -0.4563  0.2907
  297THY    HP4 7410   8.548   8.355   9.770 -1.0047 -0.1676 -0.1147
  297THY    CP3 7411   8.286   8.268   9.717  0.6570  0.0487 -0.4001
  297THY    HP5 7412   8.206   8.201   9.682  1.6836 -1.2022 -0.4157
  297THY    HP6 7413   8.287   8.272   9.826 -0.6199  0.5590 -0.3905
  297THY    HP7 7414   8.278   8.367   9.670 -0.0113 -1.3266 -3.4131
  297THY    CA3 7415   8.376   8.238   9.421 -0.7377 -0.2817  0.1622
  297THY    HA3 7416   8.354   8.343   9.438 -0.0786 -0.5216  2.8773
  297THY    CA4 7417   8.365   8.186   9.282  0.6058  0.5593  0.1670
  297THY    HA4 7418   8.330   8.251   9.202  2.8133 -0.3469 -1.6181
  297THY    CA5 7419   8.373   8.047   9.266 -0.1873 -1.5579  0.0790
  297THY    CM1 7420   8.348   7.979   9.127 -0.3932 -0.2259 -0.1429
  297THY    HM1 7421   8.419   8.013   9.052 -0.5697  1.7534  0.5145
  297THY    HM2 7422   8.369   7.872   9.133  2.4326  0.3177  1.3180
  297THY    HM3 7423   8.247   8.001   9.090 -1.0079  0.8379  1.9951
  297THY    CA6 7424   8.386   7.969   9.373 -0.1020  0.6752  0.2800
  297THY    HA6 7425   8.392   7.862   9.356  1.5779  0.7390  0.2484
  298THY      O 7426   4.563   8.965   5.821 -0.7265 -0.9298  0.0368
  298THY     HO 7427   4.614   8.897   5.868 -0.2992 -0.3022  0.5064
  298THY    CA1 7428   4.631   9.083   5.831  0.2266  0.4073  0.2355
  298THY    CA2 7429   4.605   9.186   5.746 -0.2681 -0.1043 -0.8854
  298THY    CP1 7430   4.502   9.176   5.633  0.3601 -0.1222 -0.1586
  298THY    HP1 7431   4.439   9.088   5.651 -0.6755  0.4074 -1.0489
  298THY    CP2 7432   4.410   9.296   5.616 -0.1915 -0.2567 -0.5149
  298THY    HP2 7433   4.405   9.347   5.713  0.7796 -0.8167 -0.1482
  298THY    HP3 7434   4.450   9.373   5.548 -0.9359  0.6158  0.0142
  298THY    HP4 7435   4.312   9.266   5.578 -0.6888  0.0335  0.5043
  298THY    CP3 7436   4.555   9.153   5.493  0.2014 -0.2573 -0.3939
  298THY    HP5 7437   4.472   9.145   5.422 -1.3422 -2.4038  1.5096
  298THY    HP6 7438   4.624   9.235   5.471 -0.0269  0.4438  1.3752
  298THY    HP7 7439   4.618   9.063   5.488  1.7150  0.5242  2.3346
  298THY    CA3 7440   4.689   9.298   5.752 -0.2921 -0.0489 -0.1436
  298THY    HA3 7441   4.675   9.380   5.682 -1.8001  0.0081  0.1912
  298THY    CA4 7442   4.783   9.311   5.855 -0.3373 -0.0928 -0.1410
  298THY    HA4 7443   4.842   9.400   5.876  1.0553 -1.3575  1.6335
  298THY    CA5 7444   4.810   9.197   5.934 -0.2616 -0.2888 -0.3433
  298THY    CM1 7445   4.915   9.200   6.036 -0.8241 -0.3293 -0.3395
  298THY    HM1 7446   4.924   9.105   6.090 -1.7413 -0.1741  0.1035
  298THY    HM2 7447   5.015   9.224   5.999  1.6188 -5.1765  2.1967
  298THY    HM3 7448   4.874   9.272   6.108  1.1697  0.2243  0.3146
  298THY    CA6 7449   4.730   9.086   5.924  0.4025 -0.8185  0.2470
  298THY    HA6 7450   4.740   9.006   5.997 -0.0582  0.0668  1.3192
  299THY      O 7451   2.311   8.049   8.963 -0.5986 -0.0539 -0.2275
  299THY     HO 7452   2.385   8.113   8.961  1.2065 -1.7767  2.9658
  299THY    CA1 7453   2.193   8.101   8.921 -0.3182  0.4434  0.2254
  299THY    CA2 7454   2.079   8.019   8.910 -0.3682 -0.5563 -0.1795
  299THY    CP1 7455   2.071   7.886   8.980 -0.1588 -0.0591  0.4385
  299THY    HP1 7456   2.142   7.883   9.064 -1.1282 -1.0877  1.2550
  299THY    CP2 7457   1.932   7.858   9.036  0.8522 -1.4664 -0.3052
  299THY    HP2 7458   1.864   7.825   8.956 -2.0355  0.5505  1.1173
  299THY    HP3 7459   1.947   7.777   9.107 -0.8857 -1.1227  0.5224
  299THY    HP4 7460   1.890   7.938   9.099  0.5926 -1.5998 -0.3080
  299THY    CP3 7461   2.091   7.773   8.866 -0.4798  0.7233 -0.4713
  299THY    HP5 7462   2.059   7.679   8.913  1.8840  0.7080  1.2887
  299THY    HP6 7463   2.041   7.792   8.770 -0.4753 -1.0327 -0.8633
  299THY    HP7 7464   2.195   7.763   8.834 -0.3113  1.6812 -0.2528
  299THY    CA3 7465   1.960   8.070   8.846 -0.2157  0.4250 -0.4003
  299THY    HA3 7466   1.868   8.016   8.826 -0.0536 -0.4986  1.1915
  299THY    CA4 7467   1.968   8.200   8.801 -0.2646 -0.9458 -0.1629
  299THY    HA4 7468   1.876   8.242   8.762 -0.3204  1.3480  2.1354
  299THY    CA5 7469   2.085   8.279   8.819 -0.1188 -0.2011  0.1582
  299THY    CM1 7470   2.075   8.414   8.754  0.2507  0.4845 -0.1859
  299THY    HM1 7471   2.100   8.397   8.648 -0.0546 -0.1200 -0.1708
  299THY    HM2 7472   1.979   8.461   8.779  0.7077  2.0932 -1.2828
  299THY    HM3 7473   2.157   8.473   8.796  1.8289 -1.6593 -0.0517
  299THY    CA6 7474   2.194   8.229   8.880  0.0889  0.0074 -0.3027
  299THY    HA6 7475   2.287   8.285   8.880 -0.3473  0.7549 -0.2292
  300THY      O 7476   6.790   3.533   1.396 -0.6298  0.2841  0.1128
  300THY     HO 7477   6.780   3.581   1.479 -0.0100  0.6657 -0.0293
  300THY    CA1 7478   6.816   3.409   1.449  0.2572 -0.0484 -0.1406
  300THY    CA2 7479   6.842   3.293   1.370 -0.1105 -0.4034  0.8085
  300THY    CP1 7480   6.824   3.299   1.218 -0.1484  0.8740 -0.1831
  300THY    HP1 7481   6.817   3.400   1.175 -2.5603  0.7549 -0.1804
  300THY    CP2 7482   6.941   3.240   1.140  0.4931  0.0472  0.9170
  300THY    HP2 7483   7.036   3.258   1.193  2.0070 -0.3677 -1.4991
  300THY    HP3 7484   6.946   3.131   1.129 -2.4481 -0.0119 -0.6487
  300THY    HP4 7485   6.955   3.301   1.050 -1.1526 -0.9535 -0.0780
  300THY    CP3 7486   6.699   3.224   1.171  0.1414  0.6829  0.7969
  300THY    HP5 7487   6.667   3.255   1.071 -1.4015 -0.5919  0.8677
  300THY    HP6 7488   6.705   3.115   1.172  2.2864  0.7584  1.4612
  300THY    HP7 7489   6.623   3.266   1.238  0.2854  1.3802  0.5328
  300THY    CA3 7490   6.867   3.169   1.442  0.5100 -0.5944  0.2548
  300THY    HA3 7491   6.883   3.069   1.401  1.0741 -1.4462  2.3799
  300THY    CA4 7492   6.882   3.167   1.583 -0.6673 -0.2538 -0.1362
  300THY    HA4 7493   6.901   3.073   1.634 -0.9122 -0.1854  0.0844
  300THY    CA5 7494   6.868   3.286   1.654 -0.1268 -0.3841 -0.2308
  300THY    CM1 7495   6.892   3.285   1.799 -0.0610  0.4111 -0.5930
  300THY    HM1 7496   6.994   3.309   1.831 -0.0105  0.4123 -0.7520
  300THY    HM2 7497   6.834   3.369   1.837  0.6155  0.6436 -0.0479
  300THY    HM3 7498   6.856   3.193   1.846 -0.3711  0.6332 -0.3933
  300THY    CA6 7499   6.836   3.406   1.584 -0.0381  0.1530 -0.9962
  300THY    HA6 7500   6.841   3.501   1.636  0.2260 -0.8651  0.9209
  301THY      O 7501   8.404   3.501   5.881 -0.0778 -0.1160  0.3827
  301THY     HO 7502   8.411   3.523   5.976 -1.2117  3.6357 -0.2358
  301THY    CA1 7503   8.392   3.365   5.867  0.9162 -0.8544 -0.1218
  301THY    CA2 7504   8.377   3.312   5.737  0.2068  0.4304 -0.6254
  301THY    CP1 7505   8.368   3.404   5.613  0.3960 -0.4059  0.9378
  301THY    HP1 7506   8.384   3.508   5.643 -0.6116  0.3695 -1.0795
  301THY    CP2 7507   8.465   3.366   5.501  0.3826  0.3621  0.4662
  301THY    HP2 7508   8.558   3.342   5.554  0.7980  0.5833 -0.1482
  301THY    HP3 7509   8.427   3.280   5.446 -0.0273  0.7274  0.1704
  301THY    HP4 7510   8.484   3.441   5.423  1.5136 -1.4555 -1.0931
  301THY    CP3 7511   8.224   3.401   5.567 -0.2460 -0.4448 -0.3172
  301THY    HP5 7512   8.155   3.436   5.645  0.2412  2.0367 -0.9000
  301THY    HP6 7513   8.217   3.451   5.469  1.3795 -0.3357 -0.4134
  301THY    HP7 7514   8.193   3.300   5.538 -2.0319 -0.0262  0.0214
  301THY    CA3 7515   8.389   3.176   5.725  0.6665 -0.6315  0.2600
  301THY    HA3 7516   8.371   3.131   5.628  1.7120  0.1578 -0.3275
  301THY    CA4 7517   8.409   3.102   5.837  0.2912  0.6572  0.6323
  301THY    HA4 7518   8.411   2.995   5.817  0.0386  0.1808  2.8963
  301THY    CA5 7519   8.418   3.154   5.970 -0.0856  0.0454  0.4444
  301THY    CM1 7520   8.437   3.067   6.086  0.0496  0.5505 -0.4021
  301THY    HM1 7521   8.419   2.959   6.076  2.1396  0.0548  0.6198
  301THY    HM2 7522   8.537   3.090   6.125  0.7520 -0.9690 -1.1966
  301THY    HM3 7523   8.367   3.102   6.163 -0.6896  2.7362 -1.9723
  301THY    CA6 7524   8.408   3.293   5.981 -0.2147  0.4275 -0.1353
  301THY    HA6 7525   8.430   3.334   6.079 -0.9230 -0.0370  0.2319
  302THY      O 7526   5.838   0.038   1.217 -0.7928  0.0030  0.0222
  302THY     HO 7527   5.758   0.013   1.266 -0.0454 -1.3835  0.6216
  302THY    CA1 7528   5.879   0.142   1.297 -0.0335  0.9773  0.2519
  302THY    CA2 7529   5.982   0.226   1.256 -0.0365  0.2975 -0.6659
  302THY    CP1 7530   6.049   0.201   1.125 -0.4599  0.3639  0.4145
  302THY    HP1 7531   5.988   0.133   1.065 -1.0149  0.9541  0.2945
  302THY    CP2 7532   6.062   0.329   1.039  0.0669 -0.0522  0.1110
  302THY    HP2 7533   6.146   0.393   1.069 -1.5526  1.7246  1.0473
  302THY    HP3 7534   6.061   0.297   0.935 -2.8927  1.2378 -0.3573
  302THY    HP4 7535   5.969   0.383   1.060  0.6416  0.1438  2.4456
  302THY    CP3 7536   6.193   0.154   1.137 -0.1887  0.0339  0.1277
  302THY    HP5 7537   6.246   0.123   1.046 -1.5053 -0.9594 -0.3327
  302THY    HP6 7538   6.260   0.225   1.185  1.8404 -1.6917 -0.0273
  302THY    HP7 7539   6.186   0.065   1.201 -3.6881 -1.2800 -1.7892
  302THY    CA3 7540   6.034   0.320   1.344  0.4411  0.3830 -0.0632
  302THY    HA3 7541   6.113   0.387   1.308 -1.4304  3.6043  1.3740
  302THY    CA4 7542   5.972   0.334   1.468  0.1926  0.1039  0.7263
  302THY    HA4 7543   6.002   0.415   1.534 -3.2097  2.2563 -0.1437
  302THY    CA5 7544   5.860   0.253   1.503 -0.6292 -0.3433 -0.7181
  302THY    CM1 7545   5.799   0.275   1.647 -0.2702 -0.1537  0.4579
  302THY    HM1 7546   5.858   0.204   1.706 -1.5235  0.2872  2.3096
  302THY    HM2 7547   5.810   0.380   1.676 -0.1453  0.4105 -1.4516
  302THY    HM3 7548   5.694   0.249   1.660 -0.3034  0.6240  1.8480
  302THY    CA6 7549   5.805   0.166   1.414 -1.0308  0.2960 -0.1569
  302THY    HA6 7550   5.718   0.106   1.439 -1.4809  0.6005 -0.9491
  303THY      O 7551   0.070   2.429   9.308 -0.3449 -0.5470 -0.4709
  303THY     HO 7552   0.132   2.359   9.278 -0.7219  0.0669 -2.9677
  303THY    CA1 7553   0.130   2.486   9.419  0.1009 -0.3775 -0.2912
  303THY    CA2 7554   0.053   2.527   9.528  0.2662 -0.1992  0.3360
  303THY    CP1 7555  -0.106   2.514   9.526 -0.6141  0.1511  0.2747
  303THY    HP1 7556  -0.145   2.462   9.438 -0.7653 -0.5261  0.7347
  303THY    CP2 7557  -0.143   2.429   9.649  0.5304  0.4097 -0.2887
  303THY    HP2 7558  -0.135   2.491   9.739  1.9030 -2.0999  1.4419
  303THY    HP3 7559  -0.250   2.407   9.639  0.4945  1.4625 -3.6151
  303THY    HP4 7560  -0.075   2.343   9.653  1.2919  0.9277 -1.4193
  303THY    CP3 7561  -0.182   2.652   9.537  0.3073  0.7895 -0.1208
  303THY    HP5 7562  -0.159   2.721   9.455 -0.6840  1.7682  0.3845
  303THY    HP6 7563  -0.288   2.628   9.528  0.5071 -0.4840  0.7090
  303THY    HP7 7564  -0.171   2.693   9.639 -2.4401 -0.2432  0.6893
  303THY    CA3 7565   0.114   2.585   9.642  0.0127  0.6591  0.4936
  303THY    HA3 7566   0.053   2.618   9.726 -1.3130 -0.5981  0.0661
  303THY    CA4 7567   0.255   2.606   9.640  0.5503 -0.3097 -0.4037
  303THY    HA4 7568   0.318   2.651   9.716  2.7366 -1.0544 -1.6558
  303THY    CA5 7569   0.325   2.581   9.524  0.1250  0.3079  0.8700
  303THY    CM1 7570   0.459   2.622   9.503  0.0554  0.1009  0.2697
  303THY    HM1 7571   0.464   2.694   9.421  0.0518  0.2416  0.3919
  303THY    HM2 7572   0.507   2.678   9.585 -1.0281  1.2458  0.1469
  303THY    HM3 7573   0.525   2.538   9.477 -0.3607 -0.3710  0.7275
  303THY    CA6 7574   0.268   2.509   9.419 -0.3059 -0.0443 -0.0915
  303THY    HA6 7575   0.321   2.494   9.325 -0.0994 -0.1397  0.0390
  304THY      O 7576   3.380   3.242   2.607 -0.0248 -0.1264 -0.3213
  304THY     HO 7577   3.382   3.231   2.703 -2.0696  1.2404 -0.0564
  304THY    CA1 7578   3.271   3.164   2.566 -0.1609  0.4874 -0.1454
  304THY    CA2 7579   3.249   3.130   2.429 -1.4782  0.0865 -0.6206
  304THY    CP1 7580   3.355   3.186   2.326 -0.5323 -0.2512  0.8815
  304THY    HP1 7581   3.452   3.206   2.373 -0.4270 -0.9510  0.9749
  304THY    CP2 7582   3.377   3.099   2.194 -0.5833  0.0546 -0.4490
  304THY    HP2 7583   3.278   3.085   2.151 -1.0617  1.9840 -0.0854
  304THY    HP3 7584   3.443   3.146   2.120 -0.8244  2.3982  0.7308
  304THY    HP4 7585   3.417   3.002   2.226  1.4267  0.5880 -1.1963
  304THY    CP3 7586   3.311   3.320   2.288  0.5395  0.5366 -0.1992
  304THY    HP5 7587   3.324   3.383   2.377 -0.9296  0.5073  0.0487
  304THY    HP6 7588   3.363   3.353   2.197 -0.6110  0.5958 -0.8545
  304THY    HP7 7589   3.205   3.323   2.261  0.0467 -1.9379  1.1607
  304THY    CA3 7590   3.138   3.051   2.394  0.3580 -0.1758 -0.5810
  304THY    HA3 7591   3.115   3.037   2.288  2.2458 -0.0022 -1.0440
  304THY    CA4 7592   3.051   3.002   2.495 -0.6803 -0.3567  0.6684
  304THY    HA4 7593   2.970   2.937   2.463 -0.5164 -0.1057 -0.2822
  304THY    CA5 7594   3.072   3.034   2.633  0.2324 -0.4487  0.0194
  304THY    CM1 7595   2.979   2.965   2.732 -0.2859 -0.1959 -0.9327
  304THY    HM1 7596   2.969   3.021   2.826 -1.2129  0.8066 -1.6106
  304THY    HM2 7597   2.876   2.965   2.694 -0.3424  2.1762 -0.9297
  304THY    HM3 7598   3.014   2.867   2.765 -1.2134 -0.5167 -0.8868
  304THY    CA6 7599   3.181   3.124   2.666 -0.5655  0.3197 -0.0378
  304THY    HA6 7600   3.186   3.144   2.772 -0.6912  2.3532 -0.3595
  305THY      O 7601   3.697   3.112   3.307 -0.2063 -0.0344 -0.1455
  305THY     HO 7602   3.679   3.016   3.314  1.9694 -0.5308 -0.5790
  305THY    CA1 7603   3.831   3.107   3.325 -0.1017 -0.1255  0.5113
  305THY    CA2 7604   3.921   3.186   3.251 -0.2242  0.1527 -0.5301
  305THY    CP1 7605   3.871   3.297   3.154 -0.2429 -0.0946 -0.4326
  305THY    HP1 7606   3.767   3.326   3.170  0.6774  2.1993  2.3606
  305THY    CP2 7607   3.942   3.431   3.183 -0.9223 -0.1616 -0.4522
  305THY    HP2 7608   3.930   3.459   3.289  1.1806 -3.0234  0.6953
  305THY    HP3 7609   4.049   3.416   3.163 -0.9501 -0.7409 -0.1912
  305THY    HP4 7610   3.903   3.506   3.114  0.6007  0.5085 -0.6402
  305THY    CP3 7611   3.891   3.264   3.003 -0.4777 -0.9564  0.1904
  305THY    HP5 7612   3.844   3.167   2.982  1.0454 -1.3634 -1.6093
  305THY    HP6 7613   3.846   3.343   2.942  0.8343 -0.1449  0.2292
  305THY    HP7 7614   3.996   3.250   2.975  0.3218  2.2393  1.2659
  305THY    CA3 7615   4.063   3.162   3.262  0.1907 -0.7308 -0.1262
  305THY    HA3 7616   4.126   3.239   3.219  0.2764 -1.3853 -1.1966
  305THY    CA4 7617   4.107   3.054   3.336  0.0395  0.0559  0.0057
  305THY    HA4 7618   4.214   3.045   3.346 -0.0577 -0.6086  0.4917
  305THY    CA5 7619   4.012   2.969   3.399  0.0525 -0.0286 -0.2063
  305THY    CM1 7620   4.064   2.854   3.475  0.0927 -0.1389 -0.1007
  305THY    HM1 7621   4.047   2.758   3.426  1.2803 -0.7269  0.6004
  305THY    HM2 7622   4.167   2.869   3.508 -0.7917  2.3833  1.8376
  305THY    HM3 7623   4.002   2.850   3.566  1.2448 -1.7687  0.6740
  305THY    CA6 7624   3.874   2.990   3.388 -0.7461 -0.1929 -0.9115
  305THY    HA6 7625   3.800   2.927   3.437 -0.0059 -1.4863 -1.4100
  306THY      O 7626   3.902   3.759   0.217 -0.1549 -0.3170  0.6360
  306THY     HO 7627   3.861   3.685   0.265 -0.7996  0.4278  1.2564
  306THY    CA1 7628   4.031   3.751   0.251  0.1750  0.1336  0.1441
  306THY    CA2 7629   4.114   3.868   0.257 -0.1932  0.0989  0.3534
  306THY    CP1 7630   4.054   4.008   0.236  0.7920  0.0218  0.2570
  306THY    HP1 7631   3.945   4.005   0.240  0.7510 -0.2764 -0.7135
  306THY    CP2 7632   4.091   4.108   0.351  0.4688 -0.1701 -0.2628
  306THY    HP2 7633   4.065   4.074   0.451 -0.6207  0.7533 -0.2164
  306THY    HP3 7634   4.198   4.130   0.338  0.2353 -0.4024 -3.5231
  306THY    HP4 7635   4.035   4.201   0.344  0.6080  0.0048  0.8526
  306THY    CP3 7636   4.088   4.065   0.101  0.0380  0.2207  0.0979
  306THY    HP5 7637   4.026   4.153   0.083 -0.3528 -0.0503  0.1035
  306THY    HP6 7638   4.196   4.077   0.092  0.0269 -0.2713 -0.8614
  306THY    HP7 7639   4.063   3.981   0.035 -0.3479 -1.2501  2.0029
  306THY    CA3 7640   4.249   3.843   0.300 -0.0950  0.0617 -0.1517
  306THY    HA3 7641   4.313   3.928   0.320  1.7000 -1.0227 -0.9477
  306THY    CA4 7642   4.298   3.715   0.326  0.1384 -0.6727  0.0463
  306THY    HA4 7643   4.398   3.703   0.367  0.7351  1.6834 -0.5872
  306THY    CA5 7644   4.212   3.608   0.303 -0.5238 -0.9050 -0.8080
  306THY    CM1 7645   4.260   3.472   0.335  0.0869  0.1946 -0.4821
  306THY    HM1 7646   4.347   3.480   0.402  1.7220 -1.0323 -2.3217
  306THY    HM2 7647   4.189   3.409   0.390  2.0589 -1.0815  0.7646
  306THY    HM3 7648   4.290   3.409   0.251  0.8826 -2.9258  1.9228
  306THY    CA6 7649   4.081   3.624   0.268 -0.2943  0.5241 -0.0522
  306THY    HA6 7650   4.012   3.542   0.247 -1.3147  1.8171 -2.1130
  307THY      O 7651   5.218   9.855   4.830  0.6746 -0.0749  0.2968
  307THY     HO 7652   5.145   9.815   4.879 -0.7251  0.6047 -1.1361
  307THY    CA1 7653   5.164   9.941   4.741 -0.4956 -0.0208  0.4763
  307THY    CA2 7654   5.234   9.969   4.625 -0.1784 -0.3844 -0.2013
  307THY    CP1 7655   5.375   9.922   4.606  0.1262 -0.1693  0.0253
  307THY    HP1 7656   5.413   9.867   4.693  0.2179  0.3988  0.3465
  307THY    CP2 7657   5.396   9.834   4.492  0.7733 -0.8408  0.1640
  307THY    HP2 7658   5.337   9.742   4.502 -0.2827 -0.0461  1.5861
  307THY    HP3 7659   5.368   9.892   4.404  0.0485 -0.8246  0.4041
  307THY    HP4 7660   5.502   9.805   4.480  0.9038  0.2090 -1.4913
  307THY    CP3 7661   5.479  10.038   4.598 -0.2308 -0.3837  0.3799
  307THY    HP5 7662   5.459  10.104   4.683 -0.4833  1.0632 -0.7557
  307THY    HP6 7663   5.587  10.022   4.611 -0.3733 -0.7484  1.1328
  307THY    HP7 7664   5.466  10.096   4.506  0.3931  0.0308  0.5459
  307THY    CA3 7665   5.170  10.036   4.523 -0.4904 -0.0123 -0.2321
  307THY    HA3 7666   5.221  10.077   4.436  1.4613  0.0765  0.8834
  307THY    CA4 7667   5.045  10.085   4.545 -0.2822  0.2192 -0.4043
  307THY    HA4 7668   4.996  10.146   4.470  0.0572  0.0026 -0.8124
  307THY    CA5 7669   4.973  10.057   4.658 -0.4043 -0.4184  0.3243
  307THY    CM1 7670   4.839  10.124   4.687  0.1134  0.1458  0.0015
  307THY    HM1 7671   4.841  10.201   4.765 -1.1693 -0.1596  0.3499
  307THY    HM2 7672   4.784  10.159   4.599 -2.8248 -0.4534  1.4761
  307THY    HM3 7673   4.764  10.053   4.723  0.7006 -0.7126 -0.4231
  307THY    CA6 7674   5.028   9.978   4.756 -0.2520 -0.3633 -0.1747
  307THY    HA6 7675   4.965   9.950   4.840 -0.1375 -1.1768 -0.3583
  308THY      O 7676   9.239   7.126   4.784  0.1228 -0.0365 -0.2456
  308THY     HO 7677   9.258   7.212   4.742  0.4301  0.0265  0.0160
  308THY    CA1 7678   9.110   7.104   4.807 -0.6379  0.0223 -0.0366
  308THY    CA2 7679   9.061   7.019   4.908  0.0928 -0.2451  0.2593
  308THY    CP1 7680   9.159   6.938   4.996  0.6857  0.0439  0.0606
  308THY    HP1 7681   9.231   6.888   4.929  0.3679 -1.1750  0.5926
  308THY    CP2 7682   9.236   7.026   5.098 -0.0101  0.2456  0.0212
  308THY    HP2 7683   9.319   6.970   5.142 -2.2094 -0.8062  3.1593
  308THY    HP3 7684   9.265   7.109   5.032 -0.4005  1.2922  1.1267
  308THY    HP4 7685   9.168   7.065   5.174 -0.7293  1.2716 -1.1088
  308THY    CP3 7686   9.092   6.817   5.060 -0.3382  0.8801 -0.6540
  308THY    HP5 7687   9.033   6.837   5.150  1.3029  0.7022  0.5050
  308THY    HP6 7688   9.024   6.764   4.992  0.2110 -1.9802  0.8819
  308THY    HP7 7689   9.163   6.745   5.102 -0.4086  1.9260  1.3548
  308THY    CA3 7690   8.923   7.011   4.922  0.4893 -0.0071 -0.5224
  308THY    HA3 7691   8.884   6.944   4.998  3.0200 -0.2072  0.6945
  308THY    CA4 7692   8.836   7.081   4.837 -0.2330 -0.6847 -0.5630
  308THY    HA4 7693   8.728   7.079   4.847 -0.3101 -1.3891 -1.3931
  308THY    CA5 7694   8.896   7.166   4.738  0.5680  0.3563  0.1604
  308THY    CM1 7695   8.804   7.250   4.653 -0.1688 -0.2809 -0.7593
  308THY    HM1 7696   8.851   7.304   4.570  0.4494  1.3107  0.5816
  308THY    HM2 7697   8.719   7.195   4.612  0.7085  0.3158 -3.5795
  308THY    HM3 7698   8.756   7.327   4.714  0.4446  0.5743 -1.3412
  308THY    CA6 7699   9.029   7.170   4.726 -0.5017 -0.3422  0.8583
  308THY    HA6 7700   9.069   7.237   4.650 -2.8492  1.9760  1.5213
  309THY      O 7701   9.727   9.512   9.043 -0.4724 -0.4299  0.0966
  309THY     HO 7702   9.712   9.594   8.992  0.2059 -0.2940  0.1044
  309THY    CA1 7703   9.712   9.397   8.966 -0.2626 -0.3300  0.2130
  309THY    CA2 7704   9.702   9.271   9.022 -0.7009 -0.1890 -0.7001
  309THY    CP1 7705   9.720   9.245   9.172  0.4353 -0.5094  0.2905
  309THY    HP1 7706   9.694   9.331   9.234 -1.1420 -1.8192  1.5336
  309THY    CP2 7707   9.628   9.130   9.223 -0.2173 -0.5310  0.0383
  309THY    HP2 7708   9.665   9.039   9.175 -1.1743 -0.0947 -1.6036
  309THY    HP3 7709   9.631   9.121   9.332  4.7962 -0.0837  0.1941
  309THY    HP4 7710   9.525   9.141   9.187 -0.4105  0.1243  0.7638
  309THY    CP3 7711   9.871   9.218   9.195 -0.1842  0.0356  0.7853
  309THY    HP5 7712   9.881   9.194   9.301 -0.2827 -1.0519  0.5609
  309THY    HP6 7713   9.898   9.120   9.154  0.7705  0.2079  0.9816
  309THY    HP7 7714   9.943   9.294   9.161  2.1670 -1.9389  1.1248
  309THY    CA3 7715   9.700   9.157   8.934  0.8292  0.1728  0.3939
  309THY    HA3 7716   9.710   9.057   8.974  0.8417  0.2177  0.5026
  309THY    CA4 7717   9.684   9.182   8.797 -0.2039  0.5696 -0.6500
  309THY    HA4 7718   9.673   9.092   8.737 -1.7218 -0.7076  1.4006
  309THY    CA5 7719   9.678   9.312   8.742 -1.1484  0.6088  0.1338
  309THY    CM1 7720   9.663   9.337   8.591 -0.5020  0.5260  0.2460
  309THY    HM1 7721   9.761   9.325   8.545  0.0934 -0.3730  1.6693
  309THY    HM2 7722   9.595   9.262   8.547 -1.5273  0.9162  1.1077
  309THY    HM3 7723   9.628   9.440   8.577 -0.6578  0.6085  1.1780
  309THY    CA6 7724   9.694   9.421   8.830  0.5151  0.3331  0.4454
  309THY    HA6 7725   9.687   9.523   8.794  2.7619 -0.3877 -2.3907
  310THY      O 7726   2.652   3.883   4.861  0.2776  0.2031 -0.2130
  310THY     HO 7727   2.596   3.815   4.819  0.4182 -1.1611  1.6546
  310THY    CA1 7728   2.653   3.858   4.994 -0.0653 -1.3332  0.4678
  310THY    CA2 7729   2.690   3.962   5.086 -0.0859  0.2488 -0.2578
  310THY    CP1 7730   2.748   4.095   5.037  0.4203  0.2610  0.3158
  310THY    HP1 7731   2.793   4.079   4.938  0.9295  0.1933  0.5516
  310THY    CP2 7732   2.638   4.200   5.027 -0.5030  0.6101  0.7638
  310THY    HP2 7733   2.605   4.234   5.126  0.2278 -1.6000  1.8488
  310THY    HP3 7734   2.670   4.286   4.967 -2.8299  0.2579 -1.1060
  310THY    HP4 7735   2.554   4.157   4.972 -0.0434 -0.3522  0.7872
  310THY    CP3 7736   2.867   4.140   5.122 -0.1748 -0.0453 -0.3923
  310THY    HP5 7737   2.935   4.207   5.067  0.1018  0.9236  1.0782
  310THY    HP6 7738   2.836   4.175   5.221  0.3549  0.1655 -0.2987
  310THY    HP7 7739   2.919   4.043   5.129 -0.4003 -0.2389 -1.2336
  310THY    CA3 7740   2.689   3.931   5.217 -0.0222 -0.1362 -0.6089
  310THY    HA3 7741   2.718   4.004   5.292  2.3339 -0.6958 -0.8763
  310THY    CA4 7742   2.630   3.811   5.264  0.1304  0.2976  0.1722
  310THY    HA4 7743   2.616   3.783   5.368 -0.5153 -2.7657 -0.6316
  310THY    CA5 7744   2.583   3.710   5.169 -0.6589 -0.8696  0.2540
  310THY    CM1 7745   2.535   3.574   5.205  0.1307 -0.5704  0.3070
  310THY    HM1 7746   2.507   3.574   5.311 -1.4615 -1.7429 -0.0800
  310THY    HM2 7747   2.450   3.542   5.145 -0.1714  0.9634 -0.1310
  310THY    HM3 7748   2.607   3.491   5.203  0.4401 -0.3182 -2.3446
  310THY    CA6 7749   2.602   3.739   5.036  0.1143  0.2505  0.3813
  310THY    HA6 7750   2.558   3.670   4.964 -1.9496  1.5556  0.3026
  311THY      O 7751   6.271   3.223   2.071 -0.3973  0.1384 -0.0009
  311THY     HO 7752   6.242   3.313   2.046 -2.3968 -0.7528 -1.1734
  311THY    CA1 7753   6.357   3.188   1.977 -0.2205 -0.8327 -0.1954
  311THY    CA2 7754   6.392   3.056   1.949 -0.4111  0.3532 -0.2848
  311THY    CP1 7755   6.328   2.948   2.032  0.2041 -0.6658 -0.2279
  311THY    HP1 7756   6.285   2.997   2.120 -0.8823 -0.9140 -0.6055
  311THY    CP2 7757   6.216   2.888   1.951 -0.1197  0.2280  0.3425
  311THY    HP2 7758   6.241   2.866   1.847 -2.4542  4.5616 -1.3743
  311THY    HP3 7759   6.175   2.799   2.001 -1.0855  0.8738  0.7152
  311THY    HP4 7760   6.141   2.967   1.946 -1.5366 -1.0498  0.6154
  311THY    CP3 7761   6.419   2.837   2.085  0.8073 -0.4543  0.2996
  311THY    HP5 7762   6.356   2.769   2.143 -0.1164  1.7286  2.0056
  311THY    HP6 7763   6.444   2.785   1.992 -0.3729 -1.1300  0.3487
  311THY    HP7 7764   6.505   2.880   2.137 -0.2832  1.9742  0.2242
  311THY    CA3 7765   6.489   3.023   1.852  0.1736  0.5028  0.0512
  311THY    HA3 7766   6.515   2.919   1.836 -0.2836  0.0645  1.8914
  311THY    CA4 7767   6.543   3.128   1.781 -0.2565  0.4001 -0.0426
  311THY    HA4 7768   6.607   3.102   1.698 -1.8980 -2.4834 -0.5456
  311THY    CA5 7769   6.499   3.258   1.798 -0.1240 -0.4894 -0.5146
  311THY    CM1 7770   6.536   3.378   1.716 -0.4558  0.1035 -0.0555
  311THY    HM1 7771   6.451   3.423   1.662  0.5989  0.4236 -1.4838
  311THY    HM2 7772   6.603   3.443   1.774  0.5508 -0.3633 -0.6760
  311THY    HM3 7773   6.594   3.344   1.630 -0.0175 -0.1417  0.3319
  311THY    CA6 7774   6.412   3.290   1.903 -0.1019  0.7585 -0.5891
  311THY    HA6 7775   6.380   3.392   1.920 -0.0596  0.6378  0.2349
  312THY      O 7776   8.348   2.402   0.810 -0.1641 -0.0440 -0.0583
  312THY     HO 7777   8.417   2.453   0.763 -0.4214 -0.5965 -1.0610
  312THY    CA1 7778   8.271   2.340   0.720 -0.1099  0.2419 -1.1399
  312THY    CA2 7779   8.176   2.244   0.758 -0.4416  0.1103 -0.0840
  312THY    CP1 7780   8.151   2.203   0.905 -0.0202 -0.1862  0.4338
  312THY    HP1 7781   8.248   2.198   0.956  0.0153 -1.7204  0.2720
  312THY    CP2 7782   8.052   2.289   0.977  0.3535 -0.0521 -0.8253
  312THY    HP2 7783   7.969   2.308   0.908 -0.9133  0.3211  0.7372
  312THY    HP3 7784   8.011   2.240   1.066  0.2980  1.2503 -0.1111
  312THY    HP4 7785   8.101   2.381   1.011 -1.6808  0.8819 -0.3100
  312THY    CP3 7786   8.095   2.066   0.912 -0.3638  0.1993  0.3778
  312THY    HP5 7787   8.153   2.000   0.847 -0.1691  0.6754  0.0603
  312THY    HP6 7788   8.114   2.025   1.012  2.3326 -0.9599 -0.5262
  312THY    HP7 7789   7.986   2.064   0.904 -0.6077  0.8982  2.6675
  312THY    CA3 7790   8.106   2.187   0.646 -0.0310  0.0145 -0.3717
  312THY    HA3 7791   8.029   2.111   0.655  1.4348 -1.4719  0.1452
  312THY    CA4 7792   8.141   2.215   0.511 -0.0753 -0.2601 -0.0185
  312THY    HA4 7793   8.087   2.175   0.425  0.9217  2.0149 -1.8054
  312THY    CA5 7794   8.238   2.310   0.486 -0.4854  0.5452  0.0192
  312THY    CM1 7795   8.255   2.352   0.338 -0.2502  0.3856 -1.0855
  312THY    HM1 7796   8.162   2.393   0.298 -0.0637  0.7849 -1.1218
  312THY    HM2 7797   8.336   2.423   0.315  1.1390 -0.6164  0.4478
  312THY    HM3 7798   8.285   2.257   0.292  0.9712  0.3419 -0.2599
  312THY    CA6 7799   8.310   2.364   0.587  0.4326 -0.8346 -0.0452
  312THY    HA6 7800   8.383   2.442   0.566 -0.8269  1.1113  2.2146
  313THY      O 7801   1.202   3.341   5.623 -0.2899 -0.1732  0.2234
  313THY     HO 7802   1.191   3.437   5.617  2.5468  0.3037  1.0809
  313THY    CA1 7803   1.276   3.294   5.515 -0.0899  0.1190 -0.6611
  313THY    CA2 7804   1.339   3.162   5.511  0.3334  0.2713  0.3863
  313THY    CP1 7805   1.354   3.076   5.628  0.7316 -0.5284 -0.0656
  313THY    HP1 7806   1.331   3.147   5.709 -0.4811  0.3513 -1.1535
  313THY    CP2 7807   1.250   2.964   5.633 -0.1705 -1.3671  0.4755
  313THY    HP2 7808   1.244   2.911   5.728 -1.2782 -2.5681 -0.2265
  313THY    HP3 7809   1.152   3.006   5.610 -1.1621 -2.6585  2.1663
  313THY    HP4 7810   1.277   2.883   5.563 -2.0270 -0.5695 -1.2577
  313THY    CP3 7811   1.489   3.011   5.666 -0.2671  0.1783  0.4598
  313THY    HP5 7812   1.566   3.085   5.642  1.1893 -2.1788 -2.9580
  313THY    HP6 7813   1.493   2.996   5.775  0.5946  0.2091  0.4431
  313THY    HP7 7814   1.515   2.926   5.603  0.6884  0.8135 -0.0326
  313THY    CA3 7815   1.415   3.132   5.390  0.3317  0.3883  0.3943
  313THY    HA3 7816   1.473   3.041   5.378  0.6535  0.7865 -1.3869
  313THY    CA4 7817   1.413   3.232   5.287  0.2049  0.1601 -0.3982
  313THY    HA4 7818   1.475   3.215   5.199  1.5197 -1.8772  0.8352
  313THY    CA5 7819   1.350   3.351   5.299  0.5192 -0.4032  0.2252
  313THY    CM1 7820   1.344   3.449   5.189  0.2542  0.0143 -0.3144
  313THY    HM1 7821   1.443   3.489   5.163 -0.2943  1.3714 -0.3876
  313THY    HM2 7822   1.289   3.413   5.102  1.5743 -2.3958 -0.2438
  313THY    HM3 7823   1.291   3.539   5.221  0.4936 -0.1593  0.6098
  313THY    CA6 7824   1.276   3.384   5.415  0.6518  0.5727  0.7407
  313THY    HA6 7825   1.213   3.472   5.417 -1.3591 -0.7716  0.0049
  314THY      O 7826   4.948   3.094   9.466  0.3830 -0.0909 -0.1759
  314THY     HO 7827   5.005   3.069   9.391 -0.4745  0.0283 -0.8736
  314THY    CA1 7828   5.028   3.140   9.564  0.2079 -0.3899  0.7547
  314THY    CA2 7829   4.970   3.171   9.691 -0.1476 -0.1563 -0.1902
  314THY    CP1 7830   4.822   3.152   9.705  0.5024 -0.1438  0.0309
  314THY    HP1 7831   4.757   3.154   9.617  2.8505  0.7743 -1.8047
  314THY    CP2 7832   4.786   3.023   9.780  0.1094 -0.0162  0.4098
  314THY    HP2 7833   4.678   3.011   9.798  0.3370 -1.6977  0.9021
  314THY    HP3 7834   4.809   2.937   9.716 -1.9444  1.3903 -2.4535
  314THY    HP4 7835   4.844   3.012   9.872  0.0575 -2.0284  0.2639
  314THY    CP3 7836   4.765   3.269   9.792 -0.0977  0.6062  0.0917
  314THY    HP5 7837   4.776   3.368   9.746 -0.1122  2.0255  2.9103
  314THY    HP6 7838   4.658   3.254   9.811 -0.0542  1.3467  1.0166
  314THY    HP7 7839   4.819   3.280   9.887  1.6060  1.1957 -0.9050
  314THY    CA3 7840   5.062   3.214   9.792  0.5419 -1.1808  0.2742
  314THY    HA3 7841   5.027   3.220   9.894 -2.0512 -0.9485 -0.5584
  314THY    CA4 7842   5.196   3.235   9.766  0.2215 -0.8457  0.4697
  314THY    HA4 7843   5.256   3.262   9.852 -0.2973  0.2682  0.4941
  314THY    CA5 7844   5.246   3.206   9.635  0.6724 -0.2645  0.0882
  314THY    CM1 7845   5.398   3.232   9.617  0.8515 -0.4847 -0.1898
  314THY    HM1 7846   5.424   3.282   9.523  0.5271  0.8123  0.3926
  314THY    HM2 7847   5.437   3.293   9.699 -0.0308  0.1946 -0.2758
  314THY    HM3 7848   5.450   3.135   9.625 -0.7529 -1.3538  0.0104
  314THY    CA6 7849   5.163   3.151   9.536 -1.0619 -0.2653 -0.5157
  314THY    HA6 7850   5.199   3.130   9.436 -0.3432  0.5415 -0.4339
  315THY      O 7851   6.135   3.797   7.882 -0.6793 -0.2654  0.1858
  315THY     HO 7852   6.186   3.853   7.822 -1.3229  1.5324  1.2161
  315THY    CA1 7853   6.008   3.834   7.871  0.4855  1.1544  0.1108
  315THY    CA2 7854   5.903   3.795   7.957 -0.1345 -0.4089  0.2526
  315THY    CP1 7855   5.954   3.731   8.082 -0.3093  1.1896 -0.1767
  315THY    HP1 7856   6.040   3.666   8.059 -0.3184  0.9556  0.4203
  315THY    CP2 7857   5.991   3.837   8.192 -0.3747  0.1106  0.4235
  315THY    HP2 7858   6.030   3.791   8.283 -0.5408  2.8584  1.9621
  315THY    HP3 7859   6.078   3.890   8.151 -1.0654  0.7172 -0.2955
  315THY    HP4 7860   5.910   3.907   8.218 -0.2268  0.4909 -0.1226
  315THY    CP3 7861   5.848   3.639   8.152  0.1330 -0.5450  0.7210
  315THY    HP5 7862   5.865   3.614   8.258  0.0082  1.1407  1.1602
  315THY    HP6 7863   5.748   3.683   8.151  0.0816 -0.5447 -2.1784
  315THY    HP7 7864   5.849   3.540   8.104 -1.1384 -0.4610  0.4996
  315THY    CA3 7865   5.767   3.834   7.936 -0.1071 -0.0926  0.0128
  315THY    HA3 7866   5.685   3.811   8.003 -1.7343  0.8732 -1.5567
  315THY    CA4 7867   5.750   3.915   7.824 -0.1119  0.4723 -0.2239
  315THY    HA4 7868   5.652   3.956   7.803  0.4032  1.8944  0.0760
  315THY    CA5 7869   5.854   3.955   7.736  0.0632 -0.5463 -0.3091
  315THY    CM1 7870   5.820   4.048   7.621  0.1958  0.9694  0.4558
  315THY    HM1 7871   5.881   4.139   7.633  1.6685 -0.0695  1.2171
  315THY    HM2 7872   5.851   4.002   7.527  0.8010  1.3811  0.4446
  315THY    HM3 7873   5.713   4.065   7.607 -0.0077 -0.7566 -0.3806
  315THY    CA6 7874   5.986   3.909   7.756  1.0115 -0.2301  0.2533
  315THY    HA6 7875   6.070   3.933   7.691 -0.3497  1.1971 -1.0793
  316THY      O 7876   0.577   8.556   0.309 -0.1940 -0.0776 -0.6647
  316THY     HO 7877   0.498   8.543   0.253 -0.1659 -1.0534 -0.5046
  316THY    CA1 7878   0.571   8.445   0.388 -0.0105  0.0432 -0.5080
  316THY    CA2 7879   0.683   8.408   0.465 -0.5670 -0.4451  0.8583
  316THY    CP1 7880   0.811   8.497   0.454 -0.5600  0.6031  1.2007
  316THY    HP1 7881   0.792   8.584   0.390 -0.6275 -0.4876 -0.3087
  316THY    CP2 7882   0.851   8.558   0.581 -0.5643 -0.6287 -0.7112
  316THY    HP2 7883   0.777   8.635   0.604  1.0322  1.0129 -0.9317
  316THY    HP3 7884   0.850   8.483   0.662 -1.8822  0.3443  0.2198
  316THY    HP4 7885   0.947   8.608   0.566 -0.4045 -1.1093 -1.3377
  316THY    CP3 7886   0.931   8.412   0.405  0.0674 -0.5329 -0.0067
  316THY    HP5 7887   0.901   8.329   0.340  1.6256 -2.4728  1.5800
  316THY    HP6 7888   0.999   8.485   0.360 -1.6549  0.4842 -1.0622
  316THY    HP7 7889   0.990   8.357   0.480  1.5888  0.6086 -0.3129
  316THY    CA3 7890   0.676   8.290   0.547  0.3922  0.2798 -0.3465
  316THY    HA3 7891   0.754   8.256   0.615 -0.8325  2.2177  2.2101
  316THY    CA4 7892   0.553   8.211   0.545  0.2157 -0.1858  0.1508
  316THY    HA4 7893   0.537   8.122   0.604  0.1554 -0.2560  0.0311
  316THY    CA5 7894   0.452   8.243   0.454  0.2131  0.2909  0.2012
  316THY    CM1 7895   0.318   8.179   0.464 -0.3710 -0.0614 -0.0200
  316THY    HM1 7896   0.268   8.191   0.367  1.3786  0.9592 -0.8509
  316THY    HM2 7897   0.326   8.072   0.489 -0.0865 -0.5541 -2.0175
  316THY    HM3 7898   0.259   8.237   0.535 -2.8986  1.4512 -3.0929
  316THY    CA6 7899   0.460   8.358   0.375 -0.0536  1.3754  0.4421
  316THY    HA6 7900   0.382   8.371   0.301 -1.2036 -1.2373  1.0819
  317THY      O 7901   0.083   5.889   8.778  0.2930 -0.1651 -0.2092
  317THY     HO 7902   0.123   5.955   8.838 -0.4057  0.5825 -0.5467
  317THY    CA1 7903   0.131   5.767   8.809 -1.0875 -0.2512 -0.0568
  317THY    CA2 7904   0.080   5.651   8.739  0.0728 -0.1108 -0.3153
  317THY    CP1 7905  -0.028   5.653   8.633 -0.0882 -0.3333  0.0683
  317THY    HP1 7906  -0.071   5.754   8.634  0.7047  0.0082  1.6111
  317THY    CP2 7907   0.022   5.621   8.498 -0.0023  0.5655  0.4786
  317THY    HP2 7908  -0.065   5.637   8.433 -0.6401  2.4088  1.6816
  317THY    HP3 7909   0.106   5.690   8.483  1.3631 -1.5530 -2.5986
  317THY    HP4 7910   0.056   5.518   8.487  2.7784  1.6193 -1.8874
  317THY    CP3 7911  -0.139   5.550   8.671  0.5442 -0.5334  0.1509
  317THY    HP5 7912  -0.103   5.447   8.660  0.4268 -0.6540  0.8361
  317THY    HP6 7913  -0.164   5.566   8.777  0.0473  0.2042 -0.0723
  317THY    HP7 7914  -0.227   5.555   8.605  1.0532 -1.1904 -0.5882
  317THY    CA3 7915   0.149   5.531   8.774  0.1695 -0.4673 -0.1614
  317THY    HA3 7916   0.109   5.438   8.734  3.5068 -2.3571  0.4381
  317THY    CA4 7917   0.255   5.526   8.865  0.6668 -0.2699 -1.0502
  317THY    HA4 7918   0.287   5.426   8.895 -0.7213 -0.7354 -1.0171
  317THY    CA5 7919   0.297   5.640   8.921 -0.3000 -0.0200 -0.2228
  317THY    CM1 7920   0.406   5.639   9.018 -0.4664 -0.2844 -0.2718
  317THY    HM1 7921   0.442   5.738   9.047 -1.2084 -0.5139  1.5748
  317THY    HM2 7922   0.371   5.599   9.114 -0.4829  0.7418  0.1658
  317THY    HM3 7923   0.493   5.582   8.984  1.1871  1.2979  1.1060
  317THY    CA6 7924   0.242   5.758   8.888 -0.2800  0.0090 -0.0341
  317THY    HA6 7925   0.277   5.847   8.940  2.9187 -1.8495  1.3410
  318THY      O 7926   6.318   4.840   0.493  0.2295 -0.1860  0.2578
  318THY     HO 7927   6.375   4.910   0.458 -0.6582  0.5020  0.1431
  318THY    CA1 7928   6.187   4.859   0.462 -0.0071  0.5509  0.2256
  318THY    CA2 7929   6.093   4.757   0.482 -0.2876 -0.3353 -0.9654
  318THY    CP1 7930   6.149   4.613   0.517  0.0619 -0.5003  0.0407
  318THY    HP1 7931   6.252   4.608   0.553  0.3016 -1.9675 -0.7748
  318THY    CP2 7932   6.063   4.537   0.617 -0.4023 -0.1469  0.5317
  318THY    HP2 7933   6.004   4.604   0.681 -0.5416 -0.9042  1.2112
  318THY    HP3 7934   5.984   4.476   0.573 -0.3479 -0.8609  1.3870
  318THY    HP4 7935   6.130   4.467   0.669  1.3902  1.4611  0.5262
  318THY    CP3 7936   6.145   4.532   0.386  0.1177 -0.2555 -0.2830
  318THY    HP5 7937   6.221   4.575   0.319  1.9005 -2.6371  0.0610
  318THY    HP6 7938   6.168   4.425   0.398 -2.9735 -0.8175  1.7664
  318THY    HP7 7939   6.047   4.549   0.340 -0.2852 -2.4241 -0.3504
  318THY    CA3 7940   5.961   4.794   0.469  0.3885 -0.5636  0.3285
  318THY    HA3 7941   5.887   4.716   0.484 -0.3318 -0.4052 -2.0215
  318THY    CA4 7942   5.922   4.916   0.418 -0.2486  0.0640  0.5400
  318THY    HA4 7943   5.818   4.935   0.394  0.0350 -0.2543 -1.0404
  318THY    CA5 7944   6.015   5.013   0.389  0.8732 -0.2423  0.0575
  318THY    CM1 7945   5.974   5.148   0.349  0.0832 -0.6547  0.4110
  318THY    HM1 7946   5.900   5.191   0.418 -0.5696 -2.9647  1.2166
  318THY    HM2 7947   6.060   5.217   0.351  0.6085 -1.2006 -1.4407
  318THY    HM3 7948   5.931   5.145   0.249 -1.9352  0.5130  1.1759
  318THY    CA6 7949   6.150   4.983   0.411  0.0652 -0.5030 -0.1921
  318THY    HA6 7950   6.228   5.055   0.389 -0.1402 -0.6190 -1.3775
  319THY      O 7951   6.499   6.993   0.669  0.3212  0.2178  0.2320
  319THY     HO 7952   6.536   7.066   0.616  1.6528  0.8084  1.8908
  319THY    CA1 7953   6.516   6.876   0.594  0.0674  0.3575 -0.1861
  319THY    CA2 7954   6.441   6.760   0.623  0.0639 -0.3287  0.7409
  319THY    CP1 7955   6.361   6.750   0.745  0.0083 -0.2605  0.2632
  319THY    HP1 7956   6.385   6.837   0.807  1.9870  1.2045 -2.3272
  319THY    CP2 7957   6.208   6.759   0.726 -0.5491  0.2822  0.6527
  319THY    HP2 7958   6.163   6.672   0.676 -0.2823 -0.7932  2.2232
  319THY    HP3 7959   6.160   6.779   0.822  1.6106 -1.8565  2.3009
  319THY    HP4 7960   6.187   6.848   0.666 -0.0117 -0.5207 -0.8130
  319THY    CP3 7961   6.404   6.627   0.829  0.5916 -0.1745  1.0871
  319THY    HP5 7962   6.370   6.536   0.779 -0.7464  0.6928  0.3606
  319THY    HP6 7963   6.513   6.631   0.841  0.3717  0.4059  3.3678
  319THY    HP7 7964   6.359   6.622   0.929 -0.1342 -1.1601  0.7311
  319THY    CA3 7965   6.454   6.651   0.541  0.8412 -0.4760  0.3093
  319THY    HA3 7966   6.395   6.563   0.565 -0.2376  0.2957  0.5937
  319THY    CA4 7967   6.538   6.655   0.429  0.0552  0.0934 -0.3224
  319THY    HA4 7968   6.555   6.568   0.365  2.6516  0.6125 -0.4772
  319THY    CA5 7969   6.620   6.765   0.408  0.4613  0.0751  0.5716
  319THY    CM1 7970   6.726   6.769   0.292 -0.7883  1.1349  0.3492
  319THY    HM1 7971   6.697   6.827   0.204 -2.0786  1.9864  1.3059
  319THY    HM2 7972   6.816   6.826   0.319  1.9964 -0.6782 -3.9740
  319THY    HM3 7973   6.769   6.671   0.269 -2.5946 -0.0965  1.8991
  319THY    CA6 7974   6.608   6.877   0.494  0.1208  0.0715 -0.4672
  319THY    HA6 7975   6.679   6.959   0.485  2.5812 -1.6585  1.5009
  320THY      O 7976   0.305   7.655   3.821 -0.8503  0.1519  0.2663
  320THY     HO 7977   0.218   7.612   3.821 -1.2997  0.9091  2.5389
  320THY    CA1 7978   0.353   7.644   3.693  0.6381 -0.3806 -0.4449
  320THY    CA2 7979   0.474   7.682   3.658 -0.5797  0.5861 -0.4346
  320THY    CP1 7980   0.570   7.739   3.763  0.0048 -0.1598  0.0124
  320THY    HP1 7981   0.535   7.726   3.866 -1.0562  0.0621 -0.3091
  320THY    CP2 7982   0.716   7.684   3.763  0.5843  0.2068 -0.1351
  320THY    HP2 7983   0.776   7.715   3.849  1.0759 -2.6532  0.6635
  320THY    HP3 7984   0.718   7.574   3.761 -2.5684  0.0620 -1.8556
  320THY    HP4 7985   0.763   7.721   3.671  0.8629 -1.0490 -0.5097
  320THY    CP3 7986   0.581   7.893   3.744 -0.4560  0.3727  0.1423
  320THY    HP5 7987   0.482   7.937   3.761 -1.2380 -0.5449 -1.8012
  320THY    HP6 7988   0.645   7.936   3.822 -2.0675 -0.2692  1.8804
  320THY    HP7 7989   0.625   7.922   3.648 -0.5772  1.1263  0.3072
  320THY    CA3 7990   0.518   7.659   3.525  0.0779 -0.9744 -0.5024
  320THY    HA3 7991   0.622   7.673   3.500 -0.3201  2.0173 -0.7651
  320THY    CA4 7992   0.426   7.602   3.432  0.2894 -0.9126 -0.2005
  320THY    HA4 7993   0.457   7.576   3.331 -0.6174 -0.5443 -0.5750
  320THY    CA5 7994   0.294   7.584   3.470 -0.5423  0.3707 -0.5383
  320THY    CM1 7995   0.203   7.523   3.364 -0.0951 -0.1034  0.3905
  320THY    HM1 7996   0.100   7.534   3.401 -1.4555 -0.0846 -2.9656
  320THY    HM2 7997   0.219   7.578   3.270 -1.8355 -1.7508 -0.9362
  320THY    HM3 7998   0.229   7.417   3.357  0.1057 -0.0546  0.4090
  320THY    CA6 7999   0.261   7.592   3.603  0.5744 -0.4009 -0.5836
  320THY    HA6 8000   0.159   7.576   3.638  0.7937  0.2004  0.3463
  321THY      O 8001   6.689   3.953   7.241 -0.1839 -0.9968  0.3380
  321THY     HO 8002   6.642   3.868   7.242 -1.0496 -0.5748 -0.9407
  321THY    CA1 8003   6.778   3.948   7.336 -0.1545 -0.1702 -0.3326
  321THY    CA2 8004   6.900   4.011   7.323 -0.0457 -0.3618  0.6221
  321THY    CP1 8005   6.935   4.095   7.198  0.1024  0.3924  0.2824
  321THY    HP1 8006   6.853   4.077   7.127  0.8876 -1.8007 -0.1386
  321THY    CP2 8007   6.958   4.244   7.237  0.2774 -0.3360  0.4821
  321THY    HP2 8008   6.866   4.284   7.282 -0.5226  0.1786 -1.5309
  321THY    HP3 8009   7.049   4.245   7.298  1.6500  1.4419 -1.4353
  321THY    HP4 8010   6.972   4.303   7.146 -1.1490  0.5496  0.7969
  321THY    CP3 8011   7.057   4.038   7.128 -0.3706 -0.0932  0.3146
  321THY    HP5 8012   7.078   4.102   7.042  0.8131  0.1358  0.7566
  321THY    HP6 8013   7.151   4.045   7.184 -0.4920 -1.4453  0.7404
  321THY    HP7 8014   7.047   3.934   7.095 -2.5558  0.3815 -0.7431
  321THY    CA3 8015   6.999   3.997   7.425 -0.4365 -0.0617 -0.0854
  321THY    HA3 8016   7.097   4.044   7.419 -0.4897  0.0552 -0.0458
  321THY    CA4 8017   6.963   3.930   7.535  0.4502  0.3765  0.9988
  321THY    HA4 8018   7.034   3.914   7.616  1.4897 -3.8004 -0.4379
  321THY    CA5 8019   6.848   3.854   7.538  0.2365 -0.4399  0.0285
  321THY    CM1 8020   6.813   3.763   7.661 -0.6444 -1.2571 -0.2326
  321THY    HM1 8021   6.704   3.768   7.671 -0.4246  0.1254  2.3445
  321THY    HM2 8022   6.840   3.659   7.639  1.6745 -0.9432  0.8027
  321THY    HM3 8023   6.858   3.797   7.755  0.3522  0.6866 -1.3505
  321THY    CA6 8024   6.758   3.855   7.435 -0.1450  0.1838  0.3264
  321THY    HA6 8025   6.673   3.788   7.430 -1.3011  1.5526  1.0647
  322THY      O 8026   9.220   4.305   3.390  0.5259 -0.0727  0.0589
  322THY     HO 8027   9.179   4.367   3.453 -0.8591  0.1401 -0.9911
  322THY    CA1 8028   9.207   4.368   3.269  0.8537 -0.2545  0.5467
  322THY    CA2 8029   9.108   4.337   3.178  0.2636  0.6358  0.0068
  322THY    CP1 8030   8.996   4.237   3.216 -0.5498 -0.3001  0.4605
  322THY    HP1 8031   9.024   4.185   3.308 -0.0518  1.7589  1.5537
  322THY    CP2 8032   8.860   4.315   3.240  0.6482  0.4428  0.2798
  322THY    HP2 8033   8.850   4.382   3.154  1.1071 -0.4372 -0.4855
  322THY    HP3 8034   8.780   4.241   3.253  0.8067  0.1709 -0.2600
  322THY    HP4 8035   8.879   4.376   3.329 -1.0415  1.6276 -0.1147
  322THY    CP3 8036   8.981   4.129   3.107 -0.2318 -0.1173  0.3766
  322THY    HP5 8037   8.922   4.045   3.144  0.9403 -1.2438 -0.2045
  322THY    HP6 8038   8.934   4.160   3.013  0.6658  0.2309  0.0253
  322THY    HP7 8039   9.079   4.083   3.090  0.4381  1.1641  0.6609
  322THY    CA3 8040   9.094   4.405   3.054 -0.0856  0.0998  0.1129
  322THY    HA3 8041   9.007   4.389   2.991  0.8492  0.8187 -1.4364
  322THY    CA4 8042   9.190   4.498   3.017 -0.1145  0.1446  0.0986
  322THY    HA4 8043   9.179   4.550   2.922 -1.4114  0.9005  0.6333
  322THY    CA5 8044   9.295   4.528   3.107  0.0553  0.3519  0.4984
  322THY    CM1 8045   9.386   4.636   3.073 -0.4277 -0.5381 -0.4574
  322THY    HM1 8046   9.330   4.722   3.036 -1.1310  0.3456  2.4612
  322THY    HM2 8047   9.438   4.668   3.164 -2.4299  1.6553 -0.0065
  322THY    HM3 8048   9.458   4.609   2.994  0.1703 -1.7101  0.4417
  322THY    CA6 8049   9.304   4.472   3.233  0.4694  0.4955  0.6241
  322THY    HA6 8050   9.397   4.488   3.287  2.0615 -1.2671 -1.4284
  323THY      O 8051   8.163   0.231   0.680 -0.8068  0.0471  0.0537
  323THY     HO 8052   8.144   0.322   0.711  0.6779  0.5007 -0.2694
  323THY    CA1 8053   8.111   0.207   0.554  0.2683  0.2091  0.8616
  323THY    CA2 8054   8.020   0.296   0.489 -0.1677 -0.2778 -0.0863
  323THY    CP1 8055   7.962   0.417   0.564  0.2839  0.2035 -0.0745
  323THY    HP1 8056   8.016   0.426   0.659  1.4143  2.1413 -0.8498
  323THY    CP2 8057   7.990   0.553   0.501 -0.7374  0.0676 -0.5280
  323THY    HP2 8058   7.908   0.604   0.450 -0.6446  2.3150  1.3859
  323THY    HP3 8059   8.024   0.625   0.577 -2.1530 -0.3271  0.5087
  323THY    HP4 8060   8.069   0.543   0.425 -0.7333 -0.8992 -0.4188
  323THY    CP3 8061   7.805   0.405   0.592 -0.3709  1.1073 -0.2994
  323THY    HP5 8062   7.775   0.299   0.595 -0.0610  1.0107 -0.4978
  323THY    HP6 8063   7.787   0.460   0.685 -3.8984  0.4756 -0.4608
  323THY    HP7 8064   7.745   0.453   0.514 -0.8746  0.9765  0.0061
  323THY    CA3 8065   7.991   0.273   0.354 -0.0118 -0.0597  0.1450
  323THY    HA3 8066   7.923   0.340   0.301  0.7057 -1.0158 -2.0993
  323THY    CA4 8067   8.032   0.152   0.294  0.5603  0.6097  0.2861
  323THY    HA4 8068   7.995   0.132   0.194 -3.4105 -1.3036  1.9423
  323THY    CA5 8069   8.110   0.061   0.360 -0.0850 -0.1210  0.4764
  323THY    CM1 8070   8.152  -0.070   0.293 -0.3968 -0.7177 -0.1328
  323THY    HM1 8071   8.197  -0.051   0.195 -0.8389 -0.1613 -0.2333
  323THY    HM2 8072   8.204  -0.137   0.363 -1.1586 -1.8517 -0.6195
  323THY    HM3 8073   8.062  -0.129   0.271 -1.4754  0.2945  1.3356
  323THY    CA6 8074   8.156   0.092   0.487 -0.3490 -0.0815  0.1084
  323THY    HA6 8075   8.228   0.026   0.535 -0.3444  0.9448  1.5640
  324THY      O 8076   0.885   6.115   5.204 -0.1224 -0.1676  0.6071
  324THY     HO 8077   0.848   6.189   5.154  1.7627 -0.9415 -2.2278
  324THY    CA1 8078   1.004   6.092   5.146  0.4398 -0.6426 -0.0736
  324THY    CA2 8079   1.063   5.965   5.136  0.4880  0.7382 -0.3935
  324THY    CP1 8080   0.992   5.843   5.197 -0.3361  0.5156 -0.2114
  324THY    HP1 8081   0.917   5.889   5.263 -0.7933 -0.6021  0.0697
  324THY    CP2 8082   0.932   5.743   5.088 -0.6503  0.0530  0.6893
  324THY    HP2 8083   0.876   5.659   5.132  0.5853 -1.2633 -0.1686
  324THY    HP3 8084   0.877   5.797   5.010  0.6424 -1.0203 -1.0525
  324THY    HP4 8085   1.004   5.698   5.019 -0.5271 -0.2410  1.0096
  324THY    CP3 8086   1.089   5.770   5.286  0.2515 -0.1396 -0.2035
  324THY    HP5 8087   1.036   5.715   5.365 -2.0133  2.0295 -0.0800
  324THY    HP6 8088   1.158   5.708   5.227  0.4589 -1.0667  0.9845
  324THY    HP7 8089   1.151   5.838   5.346 -0.0792 -0.1871  0.1975
  324THY    CA3 8090   1.176   5.944   5.067 -0.4318 -0.4542 -0.0513
  324THY    HA3 8091   1.208   5.842   5.045 -0.2117 -0.5557  0.7113
  324THY    CA4 8092   1.245   6.056   5.012  0.1404  0.1561 -0.5342
  324THY    HA4 8093   1.335   6.034   4.956 -0.3668 -1.3761 -0.8165
  324THY    CA5 8094   1.195   6.182   5.032  0.0066 -0.2703 -0.6216
  324THY    CM1 8095   1.272   6.305   4.981  0.4777  0.5178 -0.1990
  324THY    HM1 8096   1.216   6.398   4.961 -0.5663 -0.0026  0.2471
  324THY    HM2 8097   1.343   6.340   5.057  3.0197 -1.8472 -1.3254
  324THY    HM3 8098   1.323   6.280   4.887  0.6312  1.7534 -0.4694
  324THY    CA6 8099   1.075   6.203   5.105 -0.0356  0.4779 -0.5952
  324THY    HA6 8100   1.046   6.307   5.117  0.3604  0.5617 -0.3451
  325THY      O 8101   1.689   7.354   9.551  0.2936 -0.6466  0.1221
  325THY     HO 8102   1.693   7.258   9.536 -0.2134 -0.6870  0.2343
  325THY    CA1 8103   1.785   7.422   9.479 -0.1533  0.6226 -0.5695
  325THY    CA2 8104   1.834   7.539   9.530 -0.4936 -0.4712 -0.2597
  325THY    CP1 8105   1.779   7.612   9.658 -0.4348 -0.1121 -0.2749
  325THY    HP1 8106   1.708   7.548   9.711  0.7784 -1.6384 -0.4300
  325THY    CP2 8107   1.894   7.639   9.750  0.5703  0.1216 -0.1609
  325THY    HP2 8108   1.852   7.647   9.851 -0.3787 -1.8205 -0.3682
  325THY    HP3 8109   1.976   7.566   9.753  1.6161  1.2208 -1.0774
  325THY    HP4 8110   1.942   7.730   9.711  0.7521  0.1569  0.1405
  325THY    CP3 8111   1.704   7.747   9.633  0.3596  0.3387  0.2857
  325THY    HP5 8112   1.599   7.724   9.609  0.3806  0.8200 -0.3082
  325THY    HP6 8113   1.707   7.809   9.723  0.2874  1.8278 -0.6967
  325THY    HP7 8114   1.754   7.794   9.547  0.8767 -0.5862  0.0743
  325THY    CA3 8115   1.930   7.608   9.449  0.3718 -0.2806 -0.0880
  325THY    HA3 8116   1.969   7.703   9.484  0.7418 -0.7015  0.6799
  325THY    CA4 8117   1.962   7.561   9.320 -0.1239 -0.0419 -0.9320
  325THY    HA4 8118   2.019   7.622   9.250  1.0310  0.6863  0.5948
  325THY    CA5 8119   1.905   7.442   9.275  0.2268 -0.1657  0.8519
  325THY    CM1 8120   1.923   7.393   9.132 -0.1250 -0.0494  0.4028
  325THY    HM1 8121   1.849   7.450   9.074 -0.3360 -1.4104 -0.7374
  325THY    HM2 8122   2.025   7.408   9.096 -0.4710  0.0405 -0.5994
  325THY    HM3 8123   1.895   7.290   9.107 -1.8275  0.4530  0.0671
  325THY    CA6 8124   1.814   7.371   9.356 -0.6084 -0.6715  0.2039
  325THY    HA6 8125   1.769   7.281   9.317  0.4184 -0.2650 -2.0792
  326THY      O 8126   4.878   8.585   2.373 -0.1067  0.5861 -0.1758
  326THY     HO 8127   4.826   8.614   2.297  0.8654  1.2236 -0.6255
  326THY    CA1 8128   5.010   8.594   2.340  0.1765 -0.2523  0.4708
  326THY    CA2 8129   5.118   8.570   2.429  0.0230  0.1143 -0.1219
  326THY    CP1 8130   5.094   8.512   2.570  0.4216  0.2031  0.1951
  326THY    HP1 8131   4.992   8.533   2.603 -0.4113 -0.0937 -2.0219
  326THY    CP2 8132   5.100   8.361   2.562 -0.0370 -0.2237 -0.2410
  326THY    HP2 8133   5.036   8.326   2.480 -2.4177  1.2419  0.8824
  326THY    HP3 8134   5.204   8.329   2.556 -0.5240 -1.9156 -0.1039
  326THY    HP4 8135   5.055   8.312   2.649  0.5803 -0.3335  0.0193
  326THY    CP3 8136   5.186   8.561   2.682  0.0078 -0.2183 -0.1787
  326THY    HP5 8137   5.291   8.533   2.669 -0.0942 -0.1700 -1.1506
  326THY    HP6 8138   5.195   8.671   2.681 -0.9812 -0.1243  0.1951
  326THY    HP7 8139   5.151   8.530   2.781  0.1463 -0.6464 -0.2646
  326THY    CA3 8140   5.246   8.604   2.382 -0.8452  0.2368 -0.5435
  326THY    HA3 8141   5.330   8.605   2.450 -1.3289  1.1887  0.0654
  326THY    CA4 8142   5.266   8.638   2.245  0.0199  0.4160 -0.1211
  326THY    HA4 8143   5.365   8.668   2.213  0.9413  1.2156  3.0865
  326THY    CA5 8144   5.161   8.650   2.163  0.0804  0.0390  0.3926
  326THY    CM1 8145   5.180   8.680   2.018 -0.1420 -0.0374 -0.3808
  326THY    HM1 8146   5.272   8.738   2.007  0.0155  0.0694  1.2738
  326THY    HM2 8147   5.194   8.587   1.961  3.3949 -0.1371  0.4207
  326THY    HM3 8148   5.100   8.740   1.972  0.2196  0.3783 -0.4812
  326THY    CA6 8149   5.031   8.632   2.207  0.1553  0.6116  0.0588
  326THY    HA6 8150   4.946   8.637   2.140  0.2838 -1.3634 -0.2942
  327THY      O 8151   0.478   9.932   0.187 -0.7250  0.1582  0.0681
  327THY     HO 8152   0.461   9.877   0.109  1.8935 -0.8203  0.0775
  327THY    CA1 8153   0.411   9.883   0.300  0.3439  0.9063  0.3476
  327THY    CA2 8154   0.362   9.964   0.401  0.0015 -0.7267  0.8560
  327THY    CP1 8155   0.392  10.114   0.398 -0.7071 -0.0538 -0.4962
  327THY    HP1 8156   0.480  10.124   0.334 -0.0906 -1.2894  0.1422
  327THY    CP2 8157   0.270  10.199   0.336 -0.2529  1.3042 -0.5009
  327THY    HP2 8158   0.172  10.168   0.377 -0.7535  1.6147 -1.4370
  327THY    HP3 8159   0.255  10.306   0.359 -1.8122  0.9643  0.2421
  327THY    HP4 8160   0.265  10.189   0.227  1.1624  1.6873 -0.6224
  327THY    CP3 8161   0.411  10.176   0.534  0.0049  0.6031 -1.1284
  327THY    HP5 8162   0.319  10.214   0.580  1.3592  0.6943  1.7170
  327THY    HP6 8163   0.465  10.112   0.604  1.1435  1.3754 -1.2840
  327THY    HP7 8164   0.473  10.266   0.527  1.8575 -0.5334 -0.1320
  327THY    CA3 8165   0.280   9.907   0.501  0.1038  0.6013  0.4595
  327THY    HA3 8166   0.238   9.967   0.581  1.9310  0.7259  1.3646
  327THY    CA4 8167   0.255   9.767   0.499  1.1349 -0.2660 -0.3217
  327THY    HA4 8168   0.190   9.726   0.575  0.7743 -1.1904 -1.0988
  327THY    CA5 8169   0.321   9.687   0.408  0.0312 -0.5188  0.3381
  327THY    CM1 8170   0.304   9.538   0.396 -0.0609  0.5933 -0.7424
  327THY    HM1 8171   0.269   9.493   0.302 -3.5358 -0.7661  1.0222
  327THY    HM2 8172   0.387   9.481   0.439 -3.0563 -1.9000  2.2730
  327THY    HM3 8173   0.225   9.505   0.465 -0.2318 -0.0795 -1.2490
  327THY    CA6 8174   0.392   9.744   0.307 -0.1197 -0.7289  0.8082
  327THY    HA6 8175   0.425   9.685   0.222  1.5860 -1.6952  2.0618
  328THY      O 8176   0.177   1.661   8.631 -0.1963 -0.0599  0.1144
  328THY     HO 8177   0.112   1.732   8.624  1.1392  1.4085  1.7387
  328THY    CA1 8178   0.295   1.715   8.588  0.3186  0.4550  0.7269
  328THY    CA2 8179   0.415   1.640   8.581 -0.4273 -0.0584 -0.3984
  328THY    CP1 8180   0.415   1.493   8.635  0.4054 -0.2433  0.8485
  328THY    HP1 8181   0.314   1.452   8.628  1.0199 -1.8161  0.8667
  328THY    CP2 8182   0.506   1.405   8.552 -0.9700 -0.1182  0.3653
  328THY    HP2 8183   0.485   1.413   8.445  1.5171  0.0141 -0.1639
  328THY    HP3 8184   0.612   1.406   8.578 -1.0855 -0.7065  0.8762
  328THY    HP4 8185   0.471   1.304   8.575 -0.2279 -0.4551  0.0418
  328THY    CP3 8186   0.447   1.490   8.784 -0.8173 -0.0250 -0.0368
  328THY    HP5 8187   0.550   1.527   8.792 -0.2367 -1.5483 -0.3205
  328THY    HP6 8188   0.385   1.543   8.858  0.5883  0.7302  0.6637
  328THY    HP7 8189   0.445   1.387   8.820  0.5907 -0.8801 -2.2411
  328THY    CA3 8190   0.525   1.714   8.541 -0.1715  0.1262  0.0178
  328THY    HA3 8191   0.618   1.657   8.537  0.3124  0.7992  1.2216
  328THY    CA4 8192   0.507   1.832   8.470 -0.4218  0.1360 -0.2337
  328THY    HA4 8193   0.595   1.873   8.423  0.0458  1.7158  1.8566
  328THY    CA5 8194   0.386   1.898   8.461 -0.2976  0.1826  0.0941
  328THY    CM1 8195   0.373   2.027   8.395  0.6018  0.2215 -0.6533
  328THY    HM1 8196   0.455   2.086   8.437 -0.0167  0.7821 -0.1928
  328THY    HM2 8197   0.365   2.019   8.286  3.0737  0.6815 -0.9169
  328THY    HM3 8198   0.286   2.078   8.439  0.8836  0.4583 -0.3574
  328THY    CA6 8199   0.279   1.840   8.519  0.2979 -0.3472 -0.2516
  328THY    HA6 8200   0.177   1.874   8.503 -0.1993 -1.9721 -0.7753
  329THY      O 8201   1.018   2.580   9.683 -0.0887  0.0216  0.2735
  329THY     HO 8202   1.086   2.517   9.651 -0.9782  0.0718 -1.8814
  329THY    CA1 8203   0.989   2.646   9.568 -0.0290 -0.4569 -0.2367
  329THY    CA2 8204   0.925   2.771   9.564 -0.1302  0.2980  0.3318
  329THY    CP1 8205   0.886   2.853   9.690 -0.0268  0.4326  1.2077
  329THY    HP1 8206   0.856   2.787   9.772 -0.5525 -0.1907  0.5252
  329THY    CP2 8207   1.007   2.926   9.744 -0.1860 -0.2509  0.4345
  329THY    HP2 8208   0.994   2.974   9.841  0.9845  0.6602  0.1726
  329THY    HP3 8209   1.076   2.847   9.776 -0.3027  0.2131  1.9115
  329THY    HP4 8210   1.065   2.992   9.677  1.5318 -1.4615  0.6532
  329THY    CP3 8211   0.777   2.960   9.674 -0.3664  0.0295  0.7596
  329THY    HP5 8212   0.694   2.914   9.619 -0.6211  2.9375 -1.5158
  329THY    HP6 8213   0.744   2.989   9.775  0.5363  1.0741  0.7675
  329THY    HP7 8214   0.813   3.055   9.635  2.5251 -0.0455  2.8499
  329THY    CA3 8215   0.921   2.833   9.438  0.1404 -0.0658 -0.3489
  329THY    HA3 8216   0.886   2.936   9.427  1.9518  0.7787  1.1808
  329THY    CA4 8217   0.967   2.767   9.319 -0.0876  0.2398 -0.4896
  329THY    HA4 8218   0.984   2.825   9.229  2.2052  0.0241 -0.2670
  329THY    CA5 8219   1.016   2.638   9.332  0.5963  0.0562  0.1020
  329THY    CM1 8220   1.074   2.564   9.209  0.3737 -0.2778  0.3706
  329THY    HM1 8221   1.182   2.573   9.224  0.4437 -0.8052  0.1987
  329THY    HM2 8222   1.040   2.460   9.203 -1.5315  0.3243  0.2279
  329THY    HM3 8223   1.053   2.615   9.114  0.8839 -1.4461 -0.3864
  329THY    CA6 8224   1.027   2.577   9.458 -0.6179 -0.0278  0.3638
  329THY    HA6 8225   1.073   2.479   9.463  2.3527  1.2071 -0.6719
  330THY      O 8226   7.900   5.653   0.979  0.2403  0.0302 -0.5081
  330THY     HO 8227   7.909   5.583   0.911  0.9425  0.3261 -0.7281
  330THY    CA1 8228   7.813   5.631   1.078 -0.0089 -0.2929 -0.2795
  330THY    CA2 8229   7.812   5.677   1.214 -0.6808  0.4018 -0.1422
  330THY    CP1 8230   7.904   5.786   1.259 -0.4995  0.4107  0.3978
  330THY    HP1 8231   8.001   5.783   1.207 -1.2576  0.0715 -1.0459
  330THY    CP2 8232   7.837   5.928   1.237  0.2265 -0.2747 -0.5754
  330THY    HP2 8233   7.823   5.940   1.129  0.1557 -0.4160 -0.5816
  330THY    HP3 8234   7.745   5.953   1.291  0.8590 -0.8892  0.8433
  330THY    HP4 8235   7.911   6.004   1.264  1.5770 -1.8103  0.1837
  330THY    CP3 8236   7.947   5.776   1.405  0.1519  0.4830  0.3160
  330THY    HP5 8237   7.860   5.801   1.467  2.4111  4.5313  2.2710
  330THY    HP6 8238   7.987   5.676   1.426 -0.2115  0.4033  0.6493
  330THY    HP7 8239   8.027   5.847   1.431  2.5451 -2.7403  2.5741
  330THY    CA3 8240   7.703   5.651   1.299  0.1077  0.4766 -0.8770
  330THY    HA3 8241   7.688   5.691   1.399 -0.8895 -2.0614  0.0645
  330THY    CA4 8242   7.608   5.564   1.250  0.3919 -0.5708 -0.4225
  330THY    HA4 8243   7.515   5.541   1.302  0.6150  1.1768  0.8495
  330THY    CA5 8244   7.607   5.512   1.121  0.2085  0.3653 -0.3863
  330THY    CM1 8245   7.494   5.434   1.063  0.2607 -0.1916 -0.1983
  330THY    HM1 8246   7.405   5.431   1.128  0.2447 -0.0595 -0.2147
  330THY    HM2 8247   7.463   5.477   0.967  0.0539  0.8920  0.3395
  330THY    HM3 8248   7.527   5.332   1.039 -3.3114 -1.6613  0.3605
  330THY    CA6 8249   7.707   5.550   1.036 -0.1393 -0.0192  0.3044
  330THY    HA6 8250   7.702   5.516   0.933  1.9377 -0.9839  0.4750
  331THY      O 8251   9.039   5.292   9.161 -0.0187  0.6579  0.6002
  331THY     HO 8252   9.094   5.216   9.186  2.2619  1.3062 -1.9391
  331THY    CA1 8253   9.115   5.408   9.175  0.1404 -0.0558  0.2877
  331THY    CA2 8254   9.082   5.529   9.107 -0.0409  0.4961  0.8159
  331THY    CP1 8255   8.949   5.525   9.018  0.3722  0.4036 -0.1335
  331THY    HP1 8256   8.880   5.445   9.046  0.6103  0.5462  0.9104
  331THY    CP2 8257   8.876   5.661   9.038  1.0129 -0.3465  0.8565
  331THY    HP2 8258   8.791   5.657   8.968  0.8778 -0.1641  1.0068
  331THY    HP3 8259   8.843   5.687   9.140  0.2380  2.8855 -0.0975
  331THY    HP4 8260   8.944   5.734   8.995 -0.0773  0.5100  0.5277
  331THY    CP3 8261   8.986   5.510   8.873 -0.0850 -0.3342  0.2636
  331THY    HP5 8262   9.039   5.598   8.834  0.4571 -0.6481  0.2844
  331THY    HP6 8263   9.055   5.425   8.865  0.2426  0.0182 -0.7753
  331THY    HP7 8264   8.903   5.469   8.813 -1.0393 -0.1114  1.3796
  331THY    CA3 8265   9.165   5.643   9.133  0.5839 -0.4643  0.3844
  331THY    HA3 8266   9.134   5.739   9.093  1.0520 -1.3075 -2.1538
  331THY    CA4 8267   9.269   5.631   9.225  0.1593 -0.3019 -0.8885
  331THY    HA4 8268   9.325   5.721   9.250 -1.9138  1.3007 -1.6268
  331THY    CA5 8269   9.297   5.512   9.291  0.3862 -0.7562 -0.0940
  331THY    CM1 8270   9.401   5.511   9.398 -0.0365 -0.9959 -0.2910
  331THY    HM1 8271   9.488   5.453   9.365  0.2145  0.2168 -1.8841
  331THY    HM2 8272   9.436   5.614   9.411  0.2133 -1.2841  1.5877
  331THY    HM3 8273   9.350   5.469   9.485 -0.0320  1.8678  1.2006
  331THY    CA6 8274   9.216   5.401   9.273 -0.1180  0.4171 -0.9840
  331THY    HA6 8275   9.245   5.316   9.335  1.7197  0.9224 -1.0795
  332THY      O 8276   6.768   8.652   4.031  0.2644  0.3234 -0.1110
  332THY     HO 8277   6.763   8.555   4.042  1.9241  0.3078  0.9574
  332THY    CA1 8278   6.735   8.676   3.899  0.9899 -0.6775 -0.6077
  332THY    CA2 8279   6.684   8.803   3.857  1.0530 -0.1306 -0.2558
  332THY    CP1 8280   6.643   8.905   3.963 -0.0663  0.4170 -0.0050
  332THY    HP1 8281   6.576   8.854   4.032  2.2749 -0.4538  1.7581
  332THY    CP2 8282   6.762   8.962   4.041  0.1277  0.0356  0.0058
  332THY    HP2 8283   6.726   9.048   4.099  0.6182  0.1992  0.0741
  332THY    HP3 8284   6.802   8.899   4.121 -0.4968 -1.2677 -0.6848
  332THY    HP4 8285   6.842   8.986   3.970  0.0945 -1.2988 -0.4990
  332THY    CP3 8286   6.580   9.034   3.907 -0.1074 -0.7893 -0.1415
  332THY    HP5 8287   6.550   9.113   3.977  1.6046  0.5580 -0.8275
  332THY    HP6 8288   6.656   9.087   3.847 -1.7878  1.9503 -0.0224
  332THY    HP7 8289   6.490   9.014   3.849  0.6605  0.2384 -1.7870
  332THY    CA3 8290   6.663   8.826   3.717  0.1561  0.0388 -0.9020
  332THY    HA3 8291   6.614   8.920   3.691 -0.2450 -0.3556 -1.5798
  332THY    CA4 8292   6.705   8.736   3.623  0.8810 -0.6326  0.2171
  332THY    HA4 8293   6.682   8.753   3.518 -1.4406 -0.6578  0.6559
  332THY    CA5 8294   6.758   8.613   3.667  0.7026 -0.3605 -0.3704
  332THY    CM1 8295   6.811   8.527   3.564  0.2538 -0.0486 -0.4255
  332THY    HM1 8296   6.736   8.493   3.492  0.7879 -0.5981 -0.7396
  332THY    HM2 8297   6.889   8.589   3.516 -0.6060  0.6562 -0.9441
  332THY    HM3 8298   6.863   8.437   3.601 -1.5847 -1.5965 -1.4476
  332THY    CA6 8299   6.786   8.594   3.802  0.0970  0.3960 -0.4131
  332THY    HA6 8300   6.843   8.506   3.831 -1.0534  0.7155  3.3740
  333THY      O 8301   2.221   6.324   6.816  0.2537  0.8105 -0.2591
  333THY     HO 8302   2.199   6.262   6.744  1.9364  0.3512 -0.4306
  333THY    CA1 8303   2.260   6.248   6.926  0.4370 -0.0790 -0.4427
  333THY    CA2 8304   2.253   6.301   7.058 -0.2670 -0.0067  0.2360
  333THY    CP1 8305   2.207   6.446   7.076 -0.4015 -0.3567 -0.2997
  333THY    HP1 8306   2.210   6.513   6.989 -4.0354  0.4564  0.0097
  333THY    CP2 8307   2.055   6.444   7.106 -0.3083 -0.0582 -0.0773
  333THY    HP2 8308   2.004   6.541   7.112 -0.0698  0.0774 -0.2601
  333THY    HP3 8309   1.996   6.378   7.042  0.0831  1.2329 -1.8207
  333THY    HP4 8310   2.039   6.414   7.211  0.2805 -0.8026 -0.1910
  333THY    CP3 8311   2.293   6.513   7.190  0.2858 -0.5001  0.0922
  333THY    HP5 8312   2.266   6.475   7.289 -2.2653 -0.0615 -0.3593
  333THY    HP6 8313   2.400   6.514   7.169 -0.2851  3.1230 -3.9219
  333THY    HP7 8314   2.266   6.619   7.198 -0.0736 -0.5782 -0.0875
  333THY    CA3 8315   2.275   6.210   7.164 -0.3069  0.1736 -0.6413
  333THY    HA3 8316   2.264   6.246   7.266 -0.6673  2.7520 -1.5132
  333THY    CA4 8317   2.313   6.078   7.143 -0.3814 -0.0653  0.6448
  333THY    HA4 8318   2.331   6.012   7.227  0.2080 -0.2100  0.4127
  333THY    CA5 8319   2.325   6.030   7.010 -0.2377 -0.0769  0.2340
  333THY    CM1 8320   2.368   5.891   6.989 -0.5266  0.2277  0.1417
  333THY    HM1 8321   2.366   5.865   6.883 -1.8954  3.1025 -0.6105
  333THY    HM2 8322   2.468   5.884   7.034 -1.5283  1.3124  2.7217
  333THY    HM3 8323   2.300   5.821   7.038  0.9839 -0.8807  0.7673
  333THY    CA6 8324   2.287   6.114   6.909 -0.5674  0.5376 -0.7924
  333THY    HA6 8325   2.292   6.074   6.808  0.7990  1.0588 -0.9433
  334THY      O 8326   6.104   5.043   7.214  0.5703 -0.5394  0.8944
  334THY     HO 8327   6.178   5.103   7.231  2.2881 -1.9553 -1.1698
  334THY    CA1 8328   6.110   5.015   7.083  0.1246 -0.4397 -1.0678
  334THY    CA2 8329   6.014   4.935   7.019 -0.1172 -0.0755  0.2086
  334THY    CP1 8330   5.906   4.869   7.102 -0.0618 -0.8883 -0.3974
  334THY    HP1 8331   5.897   4.930   7.193 -0.7561 -2.1271  0.3884
  334THY    CP2 8332   5.766   4.869   7.050  0.7214 -0.2857  0.0723
  334THY    HP2 8333   5.750   4.818   6.954  2.8419 -1.0748  0.0667
  334THY    HP3 8334   5.695   4.828   7.122 -1.5521  0.3576 -1.7043
  334THY    HP4 8335   5.741   4.975   7.044 -0.2396 -0.4827  0.4100
  334THY    CP3 8336   5.952   4.731   7.148  0.5325 -0.0732 -0.0263
  334THY    HP5 8337   5.954   4.664   7.061 -2.6848 -1.1016  0.5385
  334THY    HP6 8338   6.054   4.713   7.182  1.0825 -0.1920 -1.6601
  334THY    HP7 8339   5.876   4.690   7.215  0.4233  0.2228  0.0291
  334THY    CA3 8340   6.015   4.920   6.875  0.0842 -0.1599  0.2861
  334THY    HA3 8341   5.934   4.867   6.825  0.4208 -0.7923  0.3960
  334THY    CA4 8342   6.110   4.988   6.804 -0.8783 -0.5078  0.6495
  334THY    HA4 8343   6.116   4.989   6.695 -0.0221  1.5782  0.6674
  334THY    CA5 8344   6.213   5.064   6.869  0.2605 -0.4930 -0.1591
  334THY    CM1 8345   6.311   5.144   6.787 -0.1202  0.4974 -0.5204
  334THY    HM1 8346   6.259   5.179   6.697  0.4760 -1.6390 -1.7692
  334THY    HM2 8347   6.351   5.228   6.844 -1.7159  0.2656  1.0032
  334THY    HM3 8348   6.389   5.071   6.763 -0.6994 -0.9696  1.7673
  334THY    CA6 8349   6.216   5.068   7.006  0.3575 -0.4530  0.8209
  334THY    HA6 8350   6.301   5.124   7.045  0.3174  0.3750 -0.2387
  335THY      O 8351   5.512   8.746   7.846  0.7944  0.2113 -0.3441
  335THY     HO 8352   5.490   8.805   7.920 -1.8283 -1.2054  0.0977
  335THY    CA1 8353   5.511   8.828   7.738 -0.0509  0.3164 -0.0602
  335THY    CA2 8354   5.517   8.780   7.607  0.6307 -0.8214  0.2739
  335THY    CP1 8355   5.546   8.625   7.580 -1.1427 -0.4554  0.2699
  335THY    HP1 8356   5.625   8.584   7.644 -1.2354 -0.1474  0.5919
  335THY    CP2 8357   5.415   8.538   7.588  0.0747 -0.1609  0.0351
  335THY    HP2 8358   5.337   8.601   7.544 -0.3541 -0.0867  0.8815
  335THY    HP3 8359   5.432   8.456   7.517  1.4514  0.0481  0.0893
  335THY    HP4 8360   5.396   8.503   7.690  2.2250  1.7038  1.1660
  335THY    CP3 8361   5.614   8.604   7.440  0.0335 -0.0355 -0.1941
  335THY    HP5 8362   5.530   8.608   7.370 -1.9422 -2.6225  1.8304
  335THY    HP6 8363   5.704   8.667   7.427  1.3704 -2.1337 -1.8147
  335THY    HP7 8364   5.651   8.501   7.439 -0.2563 -0.1415  0.0508
  335THY    CA3 8365   5.496   8.874   7.501  0.5338  0.2455 -0.1990
  335THY    HA3 8366   5.491   8.837   7.399 -4.2188  1.8217 -0.7938
  335THY    CA4 8367   5.473   9.012   7.521  0.3437  0.3075 -0.1931
  335THY    HA4 8368   5.461   9.072   7.431 -1.7617  1.4102  0.7493
  335THY    CA5 8369   5.483   9.055   7.652  0.3810 -0.4887  0.1033
  335THY    CM1 8370   5.448   9.202   7.679 -0.7969  0.3016  0.3297
  335THY    HM1 8371   5.474   9.268   7.594  0.5153 -1.0682 -0.3828
  335THY    HM2 8372   5.341   9.205   7.701 -1.6208  0.4054 -3.1196
  335THY    HM3 8373   5.490   9.244   7.771  0.5321  1.9783 -0.9672
  335THY    CA6 8374   5.497   8.966   7.765  0.4500  0.3189  0.2313
  335THY    HA6 8375   5.496   9.010   7.864  0.7779 -0.9004  0.7963
  336THY      O 8376   2.722   6.727   8.194 -0.2660 -0.0031 -0.2149
  336THY     HO 8377   2.789   6.699   8.259  0.5598 -0.0473 -1.0656
  336THY    CA1 8378   2.769   6.822   8.120  0.1961 -0.0345 -0.1082
  336THY    CA2 8379   2.683   6.915   8.052  0.2655 -0.1098  0.8465
  336THY    CP1 8380   2.520   6.924   8.062 -0.2251 -0.0938  0.0245
  336THY    HP1 8381   2.483   6.827   8.098  0.5920  0.3298  2.1770
  336THY    CP2 8382   2.467   7.022   8.166 -0.2750  0.6945 -0.3373
  336THY    HP2 8383   2.358   7.019   8.174 -0.3115  3.1686  1.1167
  336THY    HP3 8384   2.502   6.992   8.265 -1.2058  2.3596  0.5424
  336THY    HP4 8385   2.502   7.123   8.142 -0.2547  0.9122  0.5987
  336THY    CP3 8386   2.431   6.953   7.935 -0.2648  0.4549 -0.2368
  336THY    HP5 8387   2.450   6.873   7.863  0.3211 -2.6368  3.0874
  336THY    HP6 8388   2.326   6.947   7.964 -0.5349 -2.7846 -1.4622
  336THY    HP7 8389   2.464   7.051   7.898  0.7573 -0.4010 -1.7335
  336THY    CA3 8390   2.754   7.012   7.984 -0.2698 -0.1381  0.0758
  336THY    HA3 8391   2.698   7.086   7.927 -2.3977 -2.0549 -0.4390
  336THY    CA4 8392   2.889   7.020   7.969 -0.1204  0.9581 -0.2709
  336THY    HA4 8393   2.931   7.096   7.904  0.2183  0.5084 -0.5856
  336THY    CA5 8394   2.964   6.923   8.037  0.1488  0.2106 -0.1801
  336THY    CM1 8395   3.106   6.903   7.984 -0.6449  0.0192 -0.2755
  336THY    HM1 8396   3.157   6.995   7.952  0.6876 -1.1989 -1.7809
  336THY    HM2 8397   3.165   6.865   8.069 -2.4161  0.6381  1.3035
  336THY    HM3 8398   3.117   6.841   7.895 -1.1901  1.1361 -1.1526
  336THY    CA6 8399   2.905   6.827   8.117 -0.2341 -0.5589 -0.2673
  336THY    HA6 8400   2.956   6.742   8.162 -1.5811 -0.7848  0.9225
  337THY      O 8401   6.759   3.238   2.531  0.4323 -0.6592 -0.4737
  337THY     HO 8402   6.818   3.285   2.593 -0.1360  0.2532 -0.5990
  337THY    CA1 8403   6.828   3.202   2.428 -0.5438  0.4767 -0.3016
  337THY    CA2 8404   6.765   3.151   2.308  0.4642 -0.1697 -0.0657
  337THY    CP1 8405   6.617   3.135   2.293  0.1072  0.5235  0.1186
  337THY    HP1 8406   6.596   3.085   2.198  0.2606 -0.5270  0.6163
  337THY    CP2 8407   6.572   3.033   2.398  0.7376 -0.1429  0.3642
  337THY    HP2 8408   6.463   3.033   2.389  0.7155 -0.5929  0.6198
  337THY    HP3 8409   6.600   2.928   2.392 -2.1842 -0.9856 -0.2421
  337THY    HP4 8410   6.580   3.073   2.500  2.2704  1.2987 -0.2861
  337THY    CP3 8411   6.537   3.268   2.289  0.5002  0.8100 -0.5971
  337THY    HP5 8412   6.542   3.320   2.193 -0.7778 -0.6209 -1.4818
  337THY    HP6 8413   6.434   3.233   2.296  1.3252 -1.9203 -0.9776
  337THY    HP7 8414   6.561   3.339   2.370  0.2991 -1.3418  1.4644
  337THY    CA3 8415   6.855   3.116   2.203 -0.1857 -0.4086 -0.0840
  337THY    HA3 8416   6.823   3.083   2.104 -0.8591  0.5980 -0.2171
  337THY    CA4 8417   6.988   3.141   2.209 -0.9483 -0.1122 -0.1188
  337THY    HA4 8418   7.055   3.129   2.126 -0.3216 -0.4191  0.4245
  337THY    CA5 8419   7.052   3.191   2.323 -0.0676  0.2609 -0.6198
  337THY    CM1 8420   7.192   3.228   2.320  0.2714 -0.0587 -0.3329
  337THY    HM1 8421   7.209   3.292   2.232 -1.0089  1.3680  0.3860
  337THY    HM2 8422   7.220   3.291   2.406  1.8828  2.0197 -2.2609
  337THY    HM3 8423   7.245   3.135   2.299 -2.4450 -1.2387 -2.7871
  337THY    CA6 8424   6.971   3.212   2.431  0.3304 -0.7409  0.1638
  337THY    HA6 8425   7.013   3.252   2.523  0.5358 -2.2547  0.7680
  338THY      O 8426   6.593   4.299   3.813 -0.0230 -0.0347 -0.2339
  338THY     HO 8427   6.496   4.292   3.815  0.0494 -1.8779 -0.9818
  338THY    CA1 8428   6.627   4.265   3.691 -1.0228  0.1290  0.9119
  338THY    CA2 8429   6.762   4.244   3.654 -0.3120  0.4786 -0.4388
  338THY    CP1 8430   6.875   4.282   3.740 -0.5421 -0.1445 -0.0673
  338THY    HP1 8431   6.845   4.321   3.839  0.4006  0.6621 -0.0902
  338THY    CP2 8432   6.969   4.161   3.769  0.3113  0.2396 -0.1085
  338THY    HP2 8433   6.909   4.084   3.821 -3.7529 -0.1665 -4.6526
  338THY    HP3 8434   7.019   4.117   3.682  1.3021  0.0902  0.5180
  338THY    HP4 8435   7.052   4.205   3.824  2.1052  0.3716 -2.7709
  338THY    CP3 8436   6.955   4.400   3.688 -0.1496 -0.0543  0.3906
  338THY    HP5 8437   7.008   4.437   3.776  1.3206 -0.1338 -0.4386
  338THY    HP6 8438   7.036   4.375   3.619 -0.3444  0.0920  0.1047
  338THY    HP7 8439   6.892   4.482   3.652 -1.6548 -0.7069  1.4188
  338THY    CA3 8440   6.793   4.197   3.529 -0.2296 -0.2634  0.2748
  338THY    HA3 8441   6.896   4.192   3.494  0.0546  1.1079  0.8668
  338THY    CA4 8442   6.692   4.182   3.431  0.2761 -0.6257  1.0046
  338THY    HA4 8443   6.710   4.151   3.328 -0.1348  2.4173 -0.1028
  338THY    CA5 8444   6.559   4.204   3.469  0.0654 -0.0049 -0.1505
  338THY    CM1 8445   6.447   4.179   3.375 -0.3448 -0.9538 -0.1341
  338THY    HM1 8446   6.428   4.071   3.371 -0.2952 -0.9167 -2.0454
  338THY    HM2 8447   6.357   4.236   3.404  1.3282  2.1960 -0.6508
  338THY    HM3 8448   6.457   4.213   3.271 -0.8656 -2.4635 -0.6940
  338THY    CA6 8449   6.528   4.244   3.600  0.1971 -0.1516 -0.0466
  338THY    HA6 8450   6.424   4.256   3.631  0.3712  0.9899  0.1481
  339THY      O 8451   5.856   3.150   1.074 -0.1191  0.4337 -0.3028
  339THY     HO 8452   5.825   3.209   1.003 -1.2496  0.7528  0.4358
  339THY    CA1 8453   5.744   3.087   1.114 -0.4146 -0.5164 -0.6623
  339THY    CA2 8454   5.742   2.971   1.193 -0.5722  0.7898 -0.3163
  339THY    CP1 8455   5.873   2.919   1.253  0.4987 -0.0042  0.5717
  339THY    HP1 8456   5.953   2.989   1.230  0.8967  0.2081  2.4183
  339THY    CP2 8457   5.860   2.904   1.411  0.0370 -0.3284  0.1559
  339THY    HP2 8458   5.768   2.854   1.441  1.2984 -2.2540  1.0541
  339THY    HP3 8459   5.952   2.854   1.445  0.4475  1.1265  1.2713
  339THY    HP4 8460   5.865   3.009   1.442  3.1032  0.5027 -2.5479
  339THY    CP3 8461   5.902   2.780   1.208 -0.2593  0.0700  0.1819
  339THY    HP5 8462   5.996   2.744   1.253  0.1751 -0.0433 -0.7924
  339THY    HP6 8463   5.820   2.719   1.247  0.2465 -0.4511  0.4453
  339THY    HP7 8464   5.895   2.776   1.099 -1.2834 -0.5445  0.2602
  339THY    CA3 8465   5.620   2.909   1.238 -0.1271 -0.1202  0.6286
  339THY    HA3 8466   5.624   2.818   1.297 -0.7185 -0.3128  0.3734
  339THY    CA4 8467   5.505   2.970   1.189  0.3833 -0.3004 -0.4726
  339THY    HA4 8468   5.408   2.925   1.210  0.1620 -0.9303 -2.6595
  339THY    CA5 8469   5.509   3.089   1.106  0.7148 -0.5462 -0.3116
  339THY    CM1 8470   5.376   3.162   1.082  1.3476  0.4923 -0.3802
  339THY    HM1 8471   5.361   3.238   1.160  0.6145 -0.5894  0.5603
  339THY    HM2 8472   5.381   3.206   0.982  0.5099 -0.8133 -1.0058
  339THY    HM3 8473   5.291   3.093   1.079  0.4892  1.4301  1.1228
  339THY    CA6 8474   5.625   3.146   1.070  0.3440 -0.6555  0.3393
  339THY    HA6 8475   5.620   3.237   1.012 -1.1379 -1.4415 -0.8426
  340THY      O 8476   5.814   3.342   0.864 -0.1142 -0.5260 -0.1356
  340THY     HO 8477   5.782   3.299   0.783  0.6612 -2.4940  0.5505
  340THY    CA1 8478   5.905   3.434   0.827  0.8238 -0.0339 -0.5276
  340THY    CA2 8479   5.941   3.544   0.903  0.1435  0.6679 -0.0987
  340THY    CP1 8480   5.872   3.560   1.041 -0.2793  0.2890 -0.6982
  340THY    HP1 8481   5.782   3.498   1.045 -0.6134  0.7732 -0.6785
  340THY    CP2 8482   5.960   3.512   1.159  0.0995 -0.2214 -0.2617
  340THY    HP2 8483   6.025   3.429   1.131  3.1064  1.2646  1.7965
  340THY    HP3 8484   6.027   3.590   1.196 -1.1338  0.8305 -0.1576
  340THY    HP4 8485   5.898   3.482   1.244 -0.2305 -2.2277 -1.1563
  340THY    CP3 8486   5.827   3.702   1.071 -0.1245 -0.4755  0.3349
  340THY    HP5 8487   5.766   3.706   1.161 -1.6684 -1.1532 -0.6380
  340THY    HP6 8488   5.901   3.783   1.074 -1.0088  0.3849 -0.1824
  340THY    HP7 8489   5.748   3.724   0.998 -1.4601  0.0221  1.8728
  340THY    CA3 8490   6.049   3.627   0.866  0.2666 -0.0518  0.5390
  340THY    HA3 8491   6.083   3.715   0.920 -0.8848  1.0268 -0.4452
  340THY    CA4 8492   6.119   3.592   0.749 -0.1348  0.4444 -0.4816
  340THY    HA4 8493   6.209   3.648   0.723  1.1511 -0.8400  0.9788
  340THY    CA5 8494   6.083   3.485   0.674  0.0815  0.4932 -0.1739
  340THY    CM1 8495   6.161   3.456   0.554 -0.1052 -0.0412 -0.3774
  340THY    HM1 8496   6.263   3.495   0.563  0.1837 -0.2674 -2.2903
  340THY    HM2 8497   6.157   3.351   0.522  1.3691 -0.1749 -0.1564
  340THY    HM3 8498   6.122   3.504   0.464 -0.5166 -1.5953 -1.0631
  340THY    CA6 8499   5.975   3.403   0.715 -0.3215 -0.3972 -0.1412
  340THY    HA6 8500   5.943   3.321   0.651  0.4459 -0.7321 -0.1106
  341THY      O 8501   6.434   6.294   7.379  0.4227 -0.2862  0.0310
  341THY     HO 8502   6.344   6.260   7.393  0.4119  0.8413  3.9018
  341THY    CA1 8503   6.497   6.201   7.308  1.3993 -0.3819  0.4520
  341THY    CA2 8504   6.604   6.218   7.216 -0.1521 -0.8463 -0.3150
  341THY    CP1 8505   6.672   6.354   7.204  0.8080  0.5560 -0.2707
  341THY    HP1 8506   6.647   6.412   7.294 -1.1836 -3.6158  2.1749
  341THY    CP2 8507   6.827   6.336   7.206 -0.2493 -0.0779 -0.7468
  341THY    HP2 8508   6.878   6.431   7.222  0.2795 -0.5427  0.4451
  341THY    HP3 8509   6.859   6.279   7.294 -0.7328 -0.0621 -0.5576
  341THY    HP4 8510   6.872   6.289   7.117  2.1331 -2.5094  1.5652
  341THY    CP3 8511   6.620   6.431   7.082  0.5737  0.3421 -0.3154
  341THY    HP5 8512   6.512   6.409   7.081  0.7188 -0.7008  1.3607
  341THY    HP6 8513   6.649   6.536   7.091  0.7018  0.3874 -1.1791
  341THY    HP7 8514   6.660   6.394   6.987 -2.3754 -0.1351 -1.4901
  341THY    CA3 8515   6.649   6.102   7.142 -0.8763 -0.2530  0.6080
  341THY    HA3 8516   6.731   6.115   7.072 -0.1765  0.9708  1.6099
  341THY    CA4 8517   6.590   5.980   7.165 -0.5081 -0.2736 -0.4273
  341THY    HA4 8518   6.629   5.886   7.127  1.5080  0.4275 -0.2132
  341THY    CA5 8519   6.492   5.967   7.265 -0.0782  0.1397 -0.4530
  341THY    CM1 8520   6.436   5.826   7.298 -0.7911  0.6787  0.2929
  341THY    HM1 8521   6.379   5.789   7.213  1.4574  0.4587 -1.2213
  341THY    HM2 8522   6.516   5.754   7.323 -2.1778 -1.6899 -1.7268
  341THY    HM3 8523   6.366   5.835   7.382 -1.3457  3.6490 -0.3792
  341THY    CA6 8524   6.442   6.079   7.327 -0.2274  0.0891  0.4354
  341THY    HA6 8525   6.359   6.066   7.397 -1.1499 -2.9683 -1.0473
  342THY      O 8526   7.411   6.998   7.000  0.2680 -0.1224 -0.1202
  342THY     HO 8527   7.418   6.953   6.914 -0.0063 -0.4638  0.0342
  342THY    CA1 8528   7.456   7.126   7.003  0.9570  0.4677 -0.1295
  342THY    CA2 8529   7.514   7.185   7.122  0.2177  0.2776  1.1869
  342THY    CP1 8530   7.545   7.087   7.236  0.8524  0.0648  0.6149
  342THY    HP1 8531   7.593   7.003   7.185  4.3508  1.5225  1.1609
  342THY    CP2 8532   7.662   7.131   7.332  0.2854  0.1661 -0.7760
  342THY    HP2 8533   7.734   7.194   7.278 -0.9705  2.1354 -0.2788
  342THY    HP3 8534   7.615   7.185   7.415  0.8175  0.6630 -0.7933
  342THY    HP4 8535   7.710   7.043   7.375  2.3276  1.3271 -0.5467
  342THY    CP3 8536   7.425   7.045   7.320  0.7305  0.3252  0.3601
  342THY    HP5 8537   7.453   6.979   7.404  1.4599  1.9191  1.4216
  342THY    HP6 8538   7.364   7.126   7.361  2.7306  2.1105 -0.0341
  342THY    HP7 8539   7.356   7.005   7.245  1.4622 -1.1425  0.4454
  342THY    CA3 8540   7.542   7.321   7.120 -0.0742  0.2879 -0.8074
  342THY    HA3 8541   7.587   7.367   7.208  0.1969  1.5216 -1.5752
  342THY    CA4 8542   7.509   7.400   7.014  0.4865 -0.0253  0.4297
  342THY    HA4 8543   7.528   7.507   7.020 -0.7578  0.2558 -0.1870
  342THY    CA5 8544   7.456   7.343   6.896 -0.2304  0.0686 -0.2515
  342THY    CM1 8545   7.431   7.427   6.779  0.4679  0.5619 -0.7336
  342THY    HM1 8546   7.460   7.383   6.683  0.5324  0.0697 -0.4915
  342THY    HM2 8547   7.328   7.461   6.766 -0.2421 -2.0743 -2.8880
  342THY    HM3 8548   7.500   7.512   6.789  2.0936 -0.7529 -0.0623
  342THY    CA6 8549   7.429   7.204   6.891 -0.1832  0.2602 -0.1417
  342THY    HA6 8550   7.381   7.170   6.799  1.8053 -0.9061 -0.8114
  343THY      O 8551   3.724   8.316   2.944  0.1152  0.1144 -0.0671
  343THY     HO 8552   3.695   8.380   3.011 -2.7005  1.3330 -2.2459
  343THY    CA1 8553   3.695   8.374   2.823  0.0245 -0.0116 -0.5806
  343THY    CA2 8554   3.771   8.335   2.707 -0.1916  0.1111  0.0457
  343THY    CP1 8555   3.886   8.232   2.714  0.1191  0.2947  0.5631
  343THY    HP1 8556   3.871   8.177   2.808 -2.6656 -0.8959 -0.4691
  343THY    CP2 8557   3.859   8.123   2.611  0.3010  0.0799  0.1228
  343THY    HP2 8558   3.884   8.171   2.515 -0.7343  0.4977  0.0414
  343THY    HP3 8559   3.932   8.045   2.633  0.6309  1.2577  3.9083
  343THY    HP4 8560   3.764   8.068   2.609  1.5243 -2.1057 -0.3739
  343THY    CP3 8561   4.021   8.300   2.693 -0.8578  0.4653  0.3059
  343THY    HP5 8562   4.047   8.318   2.588 -1.1106  2.1899  0.5004
  343THY    HP6 8563   4.029   8.394   2.749 -2.0077  0.7287  0.0711
  343THY    HP7 8564   4.104   8.238   2.727  1.0269  1.3693 -2.2887
  343THY    CA3 8565   3.754   8.401   2.585  0.2567 -0.3915 -0.1670
  343THY    HA3 8566   3.813   8.373   2.499 -0.8199 -3.3107 -0.0685
  343THY    CA4 8567   3.661   8.505   2.582 -0.6098  0.2159 -0.6818
  343THY    HA4 8568   3.655   8.560   2.489 -0.3220  0.9382 -0.2767
  343THY    CA5 8569   3.572   8.532   2.691 -0.0667  0.6502  0.1150
  343THY    CM1 8570   3.480   8.643   2.682  0.1305 -0.4689 -1.0801
  343THY    HM1 8571   3.526   8.737   2.713 -0.2970 -0.5636 -0.1158
  343THY    HM2 8572   3.441   8.647   2.580  0.5664 -0.6665 -1.2558
  343THY    HM3 8573   3.401   8.631   2.757  1.2108  0.7957  0.3213
  343THY    CA6 8574   3.588   8.461   2.807 -0.7726 -0.4293  0.3768
  343THY    HA6 8575   3.526   8.474   2.896  0.3526 -2.5853  1.5613
  344THY      O 8576   0.406   9.892   8.385  0.0072  0.2828  0.4490
  344THY     HO 8577   0.332   9.880   8.447  0.6862 -0.9339  1.0797
  344THY    CA1 8578   0.372   9.978   8.286 -0.4195  0.1473 -0.3250
  344THY    CA2 8579   0.344   9.943   8.151  0.2128  0.4382  1.2115
  344THY    CP1 8580   0.316   9.796   8.118 -0.1241  0.3819 -0.2747
  344THY    HP1 8581   0.372   9.745   8.198  3.9439  1.6559 -2.0272
  344THY    CP2 8582   0.157   9.761   8.137  0.2655  0.6415  0.0784
  344THY    HP2 8583   0.103   9.832   8.199  1.8367  0.4089  1.7891
  344THY    HP3 8584   0.110   9.763   8.037  3.6103  0.9838 -1.6326
  344THY    HP4 8585   0.141   9.657   8.169 -0.4863  0.9867  0.8645
  344THY    CP3 8586   0.372   9.746   7.982 -0.1214 -0.1325  0.1870
  344THY    HP5 8587   0.293   9.787   7.918  0.3815 -0.2901 -0.5422
  344THY    HP6 8588   0.469   9.789   7.957 -0.6014  0.8690  0.0156
  344THY    HP7 8589   0.373   9.636   7.982  0.0860 -0.1483 -1.2915
  344THY    CA3 8590   0.334  10.035   8.048 -0.8805 -0.2621 -0.1672
  344THY    HA3 8591   0.316  10.007   7.944  1.9086 -2.3488 -0.1985
  344THY    CA4 8592   0.340  10.169   8.088 -0.9654 -0.5749  0.7662
  344THY    HA4 8593   0.332  10.244   8.011  0.5491  0.6400  1.7099
  344THY    CA5 8594   0.378  10.203   8.220 -0.4778  0.3556  0.0857
  344THY    CM1 8595   0.391  10.346   8.265  0.2518  0.8558  0.5496
  344THY    HM1 8596   0.300  10.360   8.326 -0.9430 -0.1320 -0.9206
  344THY    HM2 8597   0.480  10.369   8.325  0.2684  2.1855  0.0300
  344THY    HM3 8598   0.392  10.412   8.178  0.4566 -0.9393 -0.8513
  344THY    CA6 8599   0.402  10.106   8.318 -0.2780 -0.2461 -0.0133
  344THY    HA6 8600   0.450  10.137   8.410 -1.5187 -1.4979  1.1072
  345THY      O 8601   5.625   8.534   2.365  0.1626  0.3374  0.2975
  345THY     HO 8602   5.557   8.476   2.327  0.3612  0.4413 -0.2183
  345THY    CA1 8603   5.631   8.638   2.282 -0.2449 -0.0218  0.9711
  345THY    CA2 8604   5.673   8.765   2.323 -0.1137  0.2866  0.8560
  345THY    CP1 8605   5.699   8.794   2.466 -0.2887  0.5776 -0.8155
  345THY    HP1 8606   5.730   8.701   2.516 -1.6444  1.6890  2.3769
  345THY    CP2 8607   5.806   8.896   2.494 -0.3071  0.0441  1.0503
  345THY    HP2 8608   5.843   8.879   2.596  1.1545 -2.4141  0.1899
  345THY    HP3 8609   5.888   8.896   2.422 -2.0914  0.4933 -1.0749
  345THY    HP4 8610   5.756   8.993   2.481 -0.6291 -0.1040  1.1798
  345THY    CP3 8611   5.569   8.835   2.544  0.4893  0.5852 -0.7293
  345THY    HP5 8612   5.584   8.823   2.652  1.0902  0.2794 -0.8412
  345THY    HP6 8613   5.532   8.935   2.520 -2.7057 -0.1048  0.8260
  345THY    HP7 8614   5.485   8.774   2.510  0.0810  1.5640 -1.5192
  345THY    CA3 8615   5.674   8.874   2.229  0.4667  0.1155  0.6695
  345THY    HA3 8616   5.702   8.972   2.267  0.7109 -0.6975  2.6736
  345THY    CA4 8617   5.621   8.848   2.096 -1.0397 -0.5726  0.3832
  345THY    HA4 8618   5.624   8.929   2.023 -2.0608  0.4047  1.3942
  345THY    CA5 8619   5.591   8.716   2.059 -0.0311 -0.9910 -0.3091
  345THY    CM1 8620   5.573   8.688   1.919 -0.0493 -0.1192 -0.3988
  345THY    HM1 8621   5.624   8.758   1.852 -2.4011  0.2342 -1.9255
  345THY    HM2 8622   5.622   8.591   1.902 -0.0618 -0.1048 -0.5161
  345THY    HM3 8623   5.468   8.671   1.891 -0.9859  2.7927  0.9534
  345THY    CA6 8624   5.595   8.619   2.150 -0.8856 -0.9538  0.8643
  345THY    HA6 8625   5.568   8.520   2.115 -0.2397 -1.0160  0.5070
  346THY      O 8626   5.314   3.116   5.169 -1.0724  0.0550  0.2105
  346THY     HO 8627   5.370   3.165   5.107 -0.6513  0.0270  0.5524
  346THY    CA1 8628   5.291   2.992   5.113  0.3941  0.6071 -0.1096
  346THY    CA2 8629   5.197   2.903   5.165  0.9793  0.0210  0.1198
  346THY    CP1 8630   5.111   2.928   5.294 -0.3348 -0.4245  0.3856
  346THY    HP1 8631   5.138   3.018   5.352  1.4477 -1.8204  1.8847
  346THY    CP2 8632   4.962   2.962   5.248 -0.3472  0.4740 -0.4618
  346THY    HP2 8633   4.907   3.002   5.334  0.0276 -1.4421  0.7289
  346THY    HP3 8634   4.960   3.043   5.174  0.3756 -0.4133 -1.4963
  346THY    HP4 8635   4.917   2.869   5.208  2.4604 -1.0089 -0.4049
  346THY    CP3 8636   5.128   2.806   5.386 -0.0253 -0.0248 -0.1253
  346THY    HP5 8637   5.050   2.810   5.464  0.7704 -2.3982  0.9050
  346THY    HP6 8638   5.102   2.714   5.332  0.3884 -0.5805  0.6026
  346THY    HP7 8639   5.229   2.805   5.429  0.3404  0.4369 -0.9746
  346THY    CA3 8640   5.166   2.788   5.086  0.0175  0.6301 -0.1069
  346THY    HA3 8641   5.097   2.711   5.120  0.4692  0.9694  1.6585
  346THY    CA4 8642   5.226   2.771   4.958 -1.2230 -0.7527  0.3294
  346THY    HA4 8643   5.194   2.682   4.905 -1.0048 -1.6050  1.5908
  346THY    CA5 8644   5.327   2.861   4.918  0.1371 -0.4631  0.1160
  346THY    CM1 8645   5.400   2.839   4.791  0.0723  0.4116 -0.0314
  346THY    HM1 8646   5.355   2.898   4.710 -1.4321  0.2716  0.6699
  346THY    HM2 8647   5.504   2.871   4.798  0.5179 -1.3190  2.3054
  346THY    HM3 8648   5.393   2.733   4.765 -0.8976  0.9707 -2.2839
  346THY    CA6 8649   5.349   2.976   4.992  0.1384 -0.4692 -0.2158
  346THY    HA6 8650   5.419   3.052   4.958 -0.8506  0.7725  0.4322
  347THY      O 8651   2.851   5.348   4.477 -0.4106  0.5425  0.2433
  347THY     HO 8652   2.894   5.270   4.516 -2.0897 -0.0238  1.0554
  347THY    CA1 8653   2.942   5.452   4.477  0.0173 -0.1015  0.6316
  347THY    CA2 8654   2.906   5.579   4.530 -0.4483  0.2894  0.6369
  347THY    CP1 8655   2.763   5.609   4.581  0.1064  1.0766  0.7246
  347THY    HP1 8656   2.710   5.514   4.569  0.7057  0.4741  2.5261
  347THY    CP2 8657   2.766   5.622   4.736  0.5752  0.1205 -0.0245
  347THY    HP2 8658   2.840   5.698   4.762 -0.3438  0.7330  0.8572
  347THY    HP3 8659   2.675   5.672   4.770  0.3982  0.0271 -0.3552
  347THY    HP4 8660   2.786   5.521   4.775  2.7237  0.7120  0.5560
  347THY    CP3 8661   2.697   5.725   4.501  0.8033 -0.6743 -0.7497
  347THY    HP5 8662   2.718   5.723   4.394  1.3901  4.4589 -1.0027
  347THY    HP6 8663   2.588   5.728   4.510  0.6786 -1.4021 -1.8149
  347THY    HP7 8664   2.741   5.821   4.530 -2.6500  1.6183 -2.3720
  347THY    CA3 8665   3.007   5.687   4.536  0.3890  0.5877  0.4071
  347THY    HA3 8666   2.978   5.777   4.590 -0.5377 -0.3357  1.5158
  347THY    CA4 8667   3.138   5.662   4.486  0.4740 -0.3475  0.1638
  347THY    HA4 8668   3.214   5.733   4.516  0.8664 -1.3331  1.5779
  347THY    CA5 8669   3.163   5.539   4.423  0.5158 -1.0444  0.2920
  347THY    CM1 8670   3.298   5.510   4.369 -0.0889 -0.5051  0.5219
  347THY    HM1 8671   3.317   5.605   4.318  1.0469 -1.7606 -1.5215
  347THY    HM2 8672   3.369   5.483   4.449  2.1531  1.3713 -0.7112
  347THY    HM3 8673   3.293   5.428   4.297  1.2909 -1.8039  1.8276
  347THY    CA6 8674   3.067   5.435   4.419 -0.2610 -0.6341  0.6943
  347THY    HA6 8675   3.103   5.340   4.382  1.2839 -0.2883  1.2353
  348THY      O 8676   0.198   6.575   6.874  0.1205 -0.0633  0.4002
  348THY     HO 8677   0.126   6.563   6.939  0.6721 -0.1110  1.0151
  348THY    CA1 8678   0.140   6.664   6.791 -0.6125 -0.9077 -0.0763
  348THY    CA2 8679   0.190   6.675   6.659 -1.1598  0.0581 -0.0280
  348THY    CP1 8680   0.301   6.582   6.594  0.3243 -0.0173 -0.3053
  348THY    HP1 8681   0.332   6.520   6.679 -1.3599  4.1541  3.7653
  348THY    CP2 8682   0.247   6.488   6.479 -0.0336  0.0264 -0.7027
  348THY    HP2 8683   0.184   6.408   6.520  1.0552 -0.4327  0.1243
  348THY    HP3 8684   0.185   6.545   6.409 -0.9505 -1.7942 -1.4360
  348THY    HP4 8685   0.320   6.437   6.416 -2.1258 -0.6970 -2.6906
  348THY    CP3 8686   0.426   6.667   6.554  0.5394 -0.7407 -0.6038
  348THY    HP5 8687   0.404   6.736   6.472 -0.9513  1.3584  1.4199
  348THY    HP6 8688   0.466   6.730   6.634  0.0026 -0.1449 -0.7942
  348THY    HP7 8689   0.513   6.606   6.528 -0.6551 -3.1783  0.7545
  348THY    CA3 8690   0.123   6.773   6.581 -0.0238  0.8803  0.0255
  348THY    HA3 8691   0.159   6.793   6.480 -1.8657  1.2904 -0.5906
  348THY    CA4 8692   0.015   6.846   6.623 -0.3170  0.0497  0.0110
  348THY    HA4 8693  -0.030   6.918   6.555 -0.3273 -0.1144 -0.1550
  348THY    CA5 8694  -0.023   6.840   6.753 -0.3229  0.0434 -0.4464
  348THY    CM1 8695  -0.127   6.933   6.817  0.4379  0.1652 -0.1231
  348THY    HM1 8696  -0.110   7.034   6.781 -3.4630  1.1095  0.1858
  348THY    HM2 8697  -0.235   6.915   6.803  0.0450  0.1652  2.4336
  348THY    HM3 8698  -0.119   6.926   6.926 -1.3450 -0.4596  0.0138
  348THY    CA6 8699   0.039   6.746   6.839 -0.0763  0.0136  1.0541
  348THY    HA6 8700   0.005   6.734   6.942 -1.1524 -2.3952  0.4775
  349THY      O 8701   5.445   5.094   3.818  0.3577 -0.8336  0.3919
  349THY     HO 8702   5.356   5.069   3.786  0.5464 -1.5779  0.4255
  349THY    CA1 8703   5.432   5.124   3.952 -0.8287  0.2490 -0.2885
  349THY    CA2 8704   5.542   5.185   4.024  0.7838 -0.9470 -1.1066
  349THY    CP1 8705   5.666   5.221   3.942 -0.5290  0.1360 -0.2446
  349THY    HP1 8706   5.648   5.231   3.835 -3.8436  0.3750  0.2421
  349THY    CP2 8707   5.727   5.352   3.984 -0.5192  0.1873 -0.2034
  349THY    HP2 8708   5.662   5.440   3.995 -0.5947  0.0802  0.2160
  349THY    HP3 8709   5.775   5.337   4.081 -0.3977 -1.6005 -0.4997
  349THY    HP4 8710   5.809   5.379   3.916 -0.2821 -2.0572 -0.9045
  349THY    CP3 8711   5.778   5.118   3.960  0.1691 -0.4892  0.6309
  349THY    HP5 8712   5.736   5.016   3.958  0.3373 -0.5523 -0.7248
  349THY    HP6 8713   5.846   5.139   3.876 -2.1488  1.8438 -0.8009
  349THY    HP7 8714   5.832   5.117   4.055 -1.2903  0.4978  1.4955
  349THY    CA3 8715   5.518   5.217   4.161  0.4590  0.2587 -0.3879
  349THY    HA3 8716   5.587   5.264   4.230 -0.8430 -1.4970  2.2919
  349THY    CA4 8717   5.400   5.182   4.226  0.8926  0.2136 -0.3286
  349THY    HA4 8718   5.380   5.205   4.330  0.7362  2.6424 -0.8421
  349THY    CA5 8719   5.300   5.124   4.155  1.0983  0.3828  0.0220
  349THY    CM1 8720   5.166   5.091   4.216  0.4379  0.2904  0.1716
  349THY    HM1 8721   5.129   4.991   4.191 -0.2622 -0.0804  2.4642
  349THY    HM2 8722   5.176   5.088   4.325 -0.2513  0.5516  0.2453
  349THY    HM3 8723   5.089   5.164   4.188  0.2250 -0.6755 -1.9801
  349THY    CA6 8724   5.308   5.101   4.019 -0.4231  0.4819  0.2641
  349THY    HA6 8725   5.225   5.056   3.966  1.0079 -2.5696  0.3887
  350THY      O 8726   6.152   2.093   8.218 -0.5396 -0.4362  0.2784
  350THY     HO 8727   6.100   2.080   8.299  1.1455  0.4924  1.5907
  350THY    CA1 8728   6.175   2.228   8.214 -0.5658  0.0579  0.5208
  350THY    CA2 8729   6.250   2.292   8.111  0.2065  0.4090  0.1640
  350THY    CP1 8730   6.301   2.205   7.997 -0.0216  0.0942 -0.2069
  350THY    HP1 8731   6.250   2.108   7.995  0.5684 -0.2134 -2.2943
  350THY    CP2 8732   6.248   2.253   7.859 -0.2138 -0.4513 -0.3077
  350THY    HP2 8733   6.141   2.273   7.847  0.0135  0.7770 -0.4996
  350THY    HP3 8734   6.298   2.349   7.838 -1.4228 -0.2925 -2.8938
  350THY    HP4 8735   6.273   2.189   7.773  0.9764  2.1415 -2.0287
  350THY    CP3 8736   6.454   2.168   7.992  1.0232  0.3654 -0.3113
  350THY    HP5 8737   6.488   2.095   7.917  1.1391  0.4957 -0.3861
  350THY    HP6 8738   6.516   2.257   7.976 -1.0150  1.8440 -0.2642
  350THY    HP7 8739   6.476   2.122   8.090  0.7446 -0.1911 -0.5035
  350THY    CA3 8740   6.269   2.429   8.122  0.2892 -0.2641  0.5731
  350THY    HA3 8741   6.318   2.478   8.039  0.2432 -0.2928  0.5287
  350THY    CA4 8742   6.203   2.506   8.216  0.2727  0.4618  0.1979
  350THY    HA4 8743   6.210   2.614   8.203 -0.9821  0.2551 -2.8530
  350THY    CA5 8744   6.127   2.442   8.318 -0.0494  0.4672 -0.8269
  350THY    CM1 8745   6.047   2.505   8.434 -0.4445  0.2405  0.4836
  350THY    HM1 8746   6.042   2.432   8.516 -3.0214 -1.3206 -0.9370
  350THY    HM2 8747   6.099   2.598   8.461  0.2098  0.6523 -1.9044
  350THY    HM3 8748   5.941   2.527   8.417 -0.8677 -1.2503  1.0700
  350THY    CA6 8749   6.114   2.301   8.308 -0.3159  0.6691 -0.2148
  350THY    HA6 8750   6.046   2.248   8.374  2.5708 -5.1382 -1.2200
  351THY      O 8751   9.729   0.457   4.898  0.3726  0.4454 -0.3360
  351THY     HO 8752   9.770   0.442   4.985  1.1040 -0.1023 -0.7638
  351THY    CA1 8753   9.718   0.332   4.850  0.5514 -0.4051  0.5130
  351THY    CA2 8754   9.604   0.282   4.782 -0.5433  0.5117 -0.4565
  351THY    CP1 8755   9.474   0.363   4.807 -0.0155  0.3740  0.2936
  351THY    HP1 8756   9.499   0.463   4.844  0.6861  0.9942 -1.7387
  351THY    CP2 8757   9.396   0.382   4.681  0.1007  0.1256 -0.3825
  351THY    HP2 8758   9.307   0.438   4.710  0.7154  0.3614  1.1650
  351THY    HP3 8759   9.453   0.442   4.609 -0.4464  1.5446  0.3386
  351THY    HP4 8760   9.369   0.286   4.636 -0.7148  0.1872 -0.0437
  351THY    CP3 8761   9.389   0.288   4.906 -0.7385 -0.0430  0.0899
  351THY    HP5 8762   9.301   0.347   4.934 -0.3020  0.1737  1.0197
  351THY    HP6 8763   9.368   0.190   4.861  1.8480 -1.6519  2.1212
  351THY    HP7 8764   9.434   0.275   5.004 -3.1613  0.1880  1.3236
  351THY    CA3 8765   9.615   0.162   4.708 -0.0107  0.3889 -0.5270
  351THY    HA3 8766   9.532   0.118   4.655  0.7783  1.4507 -2.8163
  351THY    CA4 8767   9.742   0.094   4.718  0.6224  0.3121 -0.0318
  351THY    HA4 8768   9.744  -0.007   4.680 -1.9652  0.5344 -0.9743
  351THY    CA5 8769   9.852   0.143   4.784 -0.0045 -0.0179 -0.3702
  351THY    CM1 8770   9.985   0.064   4.784 -0.6649  0.4779 -0.2835
  351THY    HM1 8771  10.073   0.127   4.801  0.5110 -1.3314  0.7633
  351THY    HM2 8772   9.977  -0.009   4.866 -0.7852  1.2407  0.3946
  351THY    HM3 8773  10.006   0.011   4.690 -1.6490 -0.1547 -0.1614
  351THY    CA6 8774   9.839   0.274   4.839 -0.1517  0.8237  0.0536
  351THY    HA6 8775   9.923   0.329   4.881  1.8796 -1.0821 -1.2921
  352THY      O 8776   1.306   8.445   0.173 -1.0861 -0.1924  0.4293
  352THY     HO 8777   1.336   8.503   0.245  0.6687 -0.6974  0.1628
  352THY    CA1 8778   1.385   8.336   0.182  0.0017 -0.0104 -0.2122
  352THY    CA2 8779   1.338   8.202   0.176  0.0178 -0.4097  0.6765
  352THY    CP1 8780   1.189   8.186   0.166  0.1359  0.2047  0.0150
  352THY    HP1 8781   1.129   8.274   0.191 -3.4528 -1.5321 -1.8102
  352THY    CP2 8782   1.157   8.150   0.022 -0.1827  0.2075 -0.1235
  352THY    HP2 8783   1.052   8.135  -0.006 -0.6266  0.9798  1.0658
  352THY    HP3 8784   1.210   8.222  -0.042  2.0635 -1.6728 -0.5193
  352THY    HP4 8785   1.212   8.059  -0.004  1.5861  1.6679 -1.8382
  352THY    CP3 8786   1.137   8.085   0.265  0.4977  0.6675  0.0482
  352THY    HP5 8787   1.153   8.121   0.367  2.0997 -0.0518  0.0841
  352THY    HP6 8788   1.031   8.078   0.241  0.6001 -1.7595 -0.0244
  352THY    HP7 8789   1.186   7.987   0.260  2.4183  1.4513  1.6996
  352THY    CA3 8790   1.427   8.098   0.179 -0.1803  0.3640  0.1640
  352THY    HA3 8791   1.392   7.996   0.173  1.6581 -0.3924  1.2379
  352THY    CA4 8792   1.564   8.127   0.203  0.2490  0.2470 -0.0068
  352THY    HA4 8793   1.622   8.035   0.216 -2.4411 -1.6555 -0.6547
  352THY    CA5 8794   1.612   8.257   0.215  0.4641 -0.9696  0.0583
  352THY    CM1 8795   1.756   8.288   0.247  0.4879  0.0989  0.4813
  352THY    HM1 8796   1.789   8.369   0.181 -0.3522  0.0561 -0.0152
  352THY    HM2 8797   1.772   8.320   0.350  0.3963  1.2062  0.1676
  352THY    HM3 8798   1.817   8.198   0.235  0.1368 -0.1685  0.6695
  352THY    CA6 8799   1.519   8.360   0.203 -0.2378  0.2892  0.4476
  352THY    HA6 8800   1.560   8.460   0.210 -2.8732  1.8538 -3.0378
  353THY      O 8801   4.474   9.634   1.108 -0.1510 -0.0788  0.2121
  353THY     HO 8802   4.440   9.550   1.072 -1.2202  0.5600 -0.3202
  353THY    CA1 8803   4.377   9.723   1.079 -0.1423 -0.7310 -0.0619
  353THY    CA2 8804   4.364   9.842   1.157 -0.6458 -0.7786 -1.0308
  353THY    CP1 8805   4.460   9.872   1.288  0.2597 -0.4662 -0.3039
  353THY    HP1 8806   4.483   9.772   1.326 -0.2272 -0.3040  0.4650
  353THY    CP2 8807   4.593   9.939   1.252  0.0441  0.0016  0.2530
  353THY    HP2 8808   4.559  10.028   1.199  0.6472 -1.0536 -2.0272
  353THY    HP3 8809   4.648   9.978   1.338 -0.2872  1.6014 -0.2343
  353THY    HP4 8810   4.652   9.876   1.184  1.2955  1.2189  0.1521
  353THY    CP3 8811   4.390   9.944   1.405  0.7835 -0.0313 -0.2746
  353THY    HP5 8812   4.306   9.884   1.441  0.0790 -0.1965 -2.0876
  353THY    HP6 8813   4.463   9.949   1.487  1.8640 -0.9292 -1.1371
  353THY    HP7 8814   4.358  10.047   1.387 -0.5218 -0.4801 -0.5942
  353THY    CA3 8815   4.270   9.940   1.116  0.3206 -0.2060 -1.8991
  353THY    HA3 8816   4.255  10.033   1.171  2.7239 -0.2846 -0.9864
  353THY    CA4 8817   4.194   9.912   1.007 -0.5937  0.0387  0.2893
  353THY    HA4 8818   4.120   9.987   0.980 -1.4444 -0.4518  1.2057
  353THY    CA5 8819   4.226   9.803   0.923 -0.1348  0.7218  0.7213
  353THY    CM1 8820   4.150   9.798   0.799  0.0598  0.4280 -0.2595
  353THY    HM1 8821   4.203   9.844   0.715  0.2967 -0.5320 -0.6510
  353THY    HM2 8822   4.118   9.696   0.776 -1.4261  1.0171 -0.9317
  353THY    HM3 8823   4.056   9.855   0.796 -0.3936 -0.3353 -2.8070
  353THY    CA6 8824   4.308   9.705   0.962 -0.2650  0.3020 -0.6670
  353THY    HA6 8825   4.321   9.618   0.898 -2.6210 -0.3171 -0.3886
  354THY      O 8826   7.367   2.823   0.497 -0.3729  0.1111  0.1787
  354THY     HO 8827   7.409   2.907   0.519 -1.9732  0.7842  0.7876
  354THY    CA1 8828   7.252   2.808   0.578 -0.0292  0.3189 -0.0030
  354THY    CA2 8829   7.151   2.709   0.563  0.0190 -0.9426 -0.0920
  354THY    CP1 8830   7.179   2.591   0.465 -0.5260 -0.7286 -0.1096
  354THY    HP1 8831   7.215   2.639   0.373  1.4953  1.0025  1.4823
  354THY    CP2 8832   7.300   2.507   0.503 -0.1278  0.9977 -0.5441
  354THY    HP2 8833   7.386   2.559   0.548  0.6320  1.0533 -1.9964
  354THY    HP3 8834   7.274   2.435   0.581 -0.0488  1.2471 -0.2847
  354THY    HP4 8835   7.345   2.463   0.414 -0.3859  0.8671 -0.6089
  354THY    CP3 8836   7.055   2.506   0.434 -0.0378  0.7365  0.0762
  354THY    HP5 8837   7.066   2.447   0.342 -2.3136  0.8200 -0.3003
  354THY    HP6 8838   7.029   2.443   0.520 -0.9004  0.7658 -0.1544
  354THY    HP7 8839   6.961   2.561   0.422 -3.5461 -4.1669  1.7877
  354THY    CA3 8840   7.042   2.714   0.657  0.3917  0.4678  0.2303
  354THY    HA3 8841   6.964   2.638   0.660 -0.0987  0.8928 -1.1716
  354THY    CA4 8842   7.036   2.820   0.747 -0.7400 -0.9031 -0.3984
  354THY    HA4 8843   6.951   2.831   0.814 -0.0918  0.8563  0.1859
  354THY    CA5 8844   7.138   2.912   0.755  0.7506 -1.3241  0.1001
  354THY    CM1 8845   7.130   3.025   0.851 -0.0581 -0.8063 -0.2150
  354THY    HM1 8846   7.051   3.091   0.814  1.3498  1.0491 -0.0711
  354THY    HM2 8847   7.098   2.990   0.950 -0.8934 -1.4234 -0.6830
  354THY    HM3 8848   7.220   3.087   0.844 -0.4454 -0.2339 -0.1808
  354THY    CA6 8849   7.243   2.905   0.677 -0.1877  0.4538  0.4567
  354THY    HA6 8850   7.321   2.978   0.698 -0.8727  0.9969  1.1519
  355THY      O 8851   4.335   5.195   5.445  0.3222 -0.0516  0.3972
  355THY     HO 8852   4.353   5.123   5.507  0.2079 -0.1189  0.3525
  355THY    CA1 8853   4.243   5.156   5.351  0.4034  0.0902 -0.3063
  355THY    CA2 8854   4.166   5.246   5.277 -0.7855  0.6692 -0.0524
  355THY    CP1 8855   4.184   5.393   5.298  0.3441 -0.0899 -0.0595
  355THY    HP1 8856   4.279   5.423   5.344  0.0527  1.4772 -0.4145
  355THY    CP2 8857   4.184   5.467   5.172 -0.3825 -0.3424  0.1885
  355THY    HP2 8858   4.089   5.472   5.119  1.3159 -1.4361 -3.2591
  355THY    HP3 8859   4.220   5.567   5.198  0.5972 -0.9756  1.3873
  355THY    HP4 8860   4.260   5.418   5.110 -0.1907 -1.3869  1.2053
  355THY    CP3 8861   4.080   5.436   5.392  0.0726  0.2709  0.0984
  355THY    HP5 8862   4.073   5.360   5.471  1.6628 -0.2782 -0.2477
  355THY    HP6 8863   4.110   5.531   5.438  0.2662 -0.8198  2.3698
  355THY    HP7 8864   3.981   5.443   5.346  0.1874 -0.6197 -0.3113
  355THY    CA3 8865   4.069   5.193   5.183  0.4821 -0.7219  0.4513
  355THY    HA3 8866   3.997   5.260   5.137  0.7040 -1.1734 -0.5615
  355THY    CA4 8867   4.058   5.053   5.162  0.2230  0.2951 -0.2265
  355THY    HA4 8868   3.981   5.017   5.095  0.7205  0.8881 -1.1447
  355THY    CA5 8869   4.142   4.970   5.232  0.4118 -0.2928 -0.2240
  355THY    CM1 8870   4.115   4.820   5.225  0.2461 -0.0460 -0.0425
  355THY    HM1 8871   4.023   4.800   5.283 -0.5544 -0.6239 -1.4714
  355THY    HM2 8872   4.100   4.783   5.123 -2.2801 -3.7338  1.4463
  355THY    HM3 8873   4.196   4.761   5.269 -1.3968 -0.8044  2.1445
  355THY    CA6 8874   4.222   5.019   5.331 -0.1542  0.6819  0.7774
  355THY    HA6 8875   4.275   4.949   5.395 -0.4257  1.0529  1.4185
  356THY      O 8876   5.479   2.226   0.530  0.1865 -0.2896 -1.2288
  356THY     HO 8877   5.432   2.166   0.589 -0.5588  1.1544 -0.3036
  356THY    CA1 8878   5.608   2.225   0.577 -0.1029 -0.1643 -0.5120
  356THY    CA2 8879   5.706   2.316   0.543 -0.1466  0.1480  0.2743
  356THY    CP1 8880   5.672   2.429   0.443 -0.0949 -0.8594 -0.2249
  356THY    HP1 8881   5.567   2.427   0.411  0.2531 -0.3672 -1.4718
  356THY    CP2 8882   5.700   2.569   0.500  0.8371 -0.5788 -0.4087
  356THY    HP2 8883   5.805   2.586   0.526  0.4150  0.2132  0.8123
  356THY    HP3 8884   5.664   2.646   0.431 -1.1711  0.4832  1.6815
  356THY    HP4 8885   5.646   2.586   0.593  0.3605  2.3715 -1.1373
  356THY    CP3 8886   5.734   2.404   0.309 -0.6851 -0.5111  0.1819
  356THY    HP5 8887   5.840   2.381   0.322 -0.4288  1.6185  2.6094
  356THY    HP6 8888   5.680   2.325   0.255 -2.3077  0.6865 -0.0121
  356THY    HP7 8889   5.736   2.499   0.255  0.5541  0.4361  1.8064
  356THY    CA3 8890   5.841   2.297   0.587  0.1467 -0.7270 -0.4410
  356THY    HA3 8891   5.910   2.371   0.548 -0.7333  0.9332  1.0213
  356THY    CA4 8892   5.868   2.184   0.674  0.4455 -0.0166  0.5011
  356THY    HA4 8893   5.969   2.149   0.691  0.8524  0.7221 -0.3245
  356THY    CA5 8894   5.769   2.100   0.710 -0.1510  0.4573 -0.2203
  356THY    CM1 8895   5.793   1.987   0.808  0.0214 -0.2968 -0.0903
  356THY    HM1 8896   5.900   1.963   0.812  0.0684  0.0814  0.9626
  356THY    HM2 8897   5.771   2.030   0.906 -0.3062 -0.1484 -0.2293
  356THY    HM3 8898   5.742   1.895   0.777  1.1541 -0.5927 -1.1791
  356THY    CA6 8899   5.642   2.122   0.667  0.3999 -0.5134 -0.1974
  356THY    HA6 8900   5.563   2.057   0.705 -0.1281 -0.1118 -0.5844
  357THY      O 8901   3.530   3.248   1.179  0.1900 -0.1227  0.1210
  357THY     HO 8902   3.462   3.265   1.246 -1.5105 -2.5503 -0.8413
  357THY    CA1 8903   3.457   3.187   1.084  0.1933 -0.8390  0.7420
  357THY    CA2 8904   3.521   3.124   0.976 -0.6592 -0.3881 -0.2963
  357THY    CP1 8905   3.671   3.122   0.972 -0.8799  0.5870 -0.3711
  357THY    HP1 8906   3.715   3.210   1.021  0.8397  0.1820 -1.1225
  357THY    CP2 8907   3.739   3.000   1.052  0.3135 -0.1902 -0.3244
  357THY    HP2 8908   3.845   3.018   1.073  0.2588 -0.2813  0.0253
  357THY    HP3 8909   3.694   2.988   1.151 -0.9923  0.6800 -0.7847
  357THY    HP4 8910   3.729   2.903   1.002 -1.9322 -1.4991  2.3970
  357THY    CP3 8911   3.722   3.117   0.828  0.3690  0.0804 -0.9937
  357THY    HP5 8912   3.829   3.105   0.808 -0.0005 -2.2460 -1.9799
  357THY    HP6 8913   3.678   3.025   0.788 -0.2669  0.2527 -0.6963
  357THY    HP7 8914   3.686   3.203   0.770  1.1159  0.5126 -0.8260
  357THY    CA3 8915   3.435   3.073   0.878 -0.0367 -0.1946  0.3905
  357THY    HA3 8916   3.476   3.029   0.787  1.7811  0.6889  0.7476
  357THY    CA4 8917   3.299   3.052   0.901  0.3377 -0.3518 -0.2548
  357THY    HA4 8918   3.233   3.004   0.830 -1.0141  1.1776 -0.0827
  357THY    CA5 8919   3.243   3.118   1.009 -0.8029 -0.1386 -0.1410
  357THY    CM1 8920   3.099   3.087   1.042 -0.0728 -0.1891 -0.1238
  357THY    HM1 8921   3.092   2.980   1.066  0.8549 -0.0973  0.5951
  357THY    HM2 8922   3.063   3.148   1.126  0.3983  0.9903 -0.7604
  357THY    HM3 8923   3.039   3.113   0.954 -0.0557  2.6917  0.6094
  357THY    CA6 8924   3.321   3.185   1.097 -0.5236  0.0305  0.1665
  357THY    HA6 8925   3.275   3.220   1.188  0.0362  0.3695  0.3203
  358THY      O 8926   2.471   8.954   4.190 -0.0643 -0.3772 -0.2325
  358THY     HO 8927   2.378   8.930   4.203 -0.7181  2.4699  1.2231
  358THY    CA1 8928   2.543   8.931   4.301  0.8090 -0.2224  0.4134
  358THY    CA2 8929   2.682   8.918   4.288 -0.7943  0.2707 -0.1437
  358THY    CP1 8930   2.746   8.933   4.158 -0.1061  0.5638 -0.0540
  358THY    HP1 8931   2.683   8.911   4.071 -0.2034  0.3966  0.0569
  358THY    CP2 8932   2.784   9.089   4.149 -0.1357  0.3410  0.1426
  358THY    HP2 8933   2.706   9.155   4.190 -3.3572 -2.0989 -1.5612
  358THY    HP3 8934   2.880   9.103   4.199  0.6489 -2.5262 -0.3815
  358THY    HP4 8935   2.802   9.113   4.044  1.4998  0.4988  0.4314
  358THY    CP3 8936   2.869   8.852   4.127  0.4063 -0.1039 -0.9580
  358THY    HP5 8937   2.897   8.861   4.021  1.5393 -1.7270 -0.8427
  358THY    HP6 8938   2.957   8.872   4.188  2.1397  1.3925 -3.7271
  358THY    HP7 8939   2.847   8.746   4.147  0.6423 -0.2426 -1.4045
  358THY    CA3 8940   2.760   8.898   4.406 -0.1427 -0.2564 -0.0852
  358THY    HA3 8941   2.868   8.892   4.407  0.0590  1.6542  2.8832
  358THY    CA4 8942   2.689   8.887   4.525  0.1322  0.5157  0.2535
  358THY    HA4 8943   2.749   8.865   4.613 -0.8097  2.5614  1.4915
  358THY    CA5 8944   2.558   8.918   4.545 -0.0596 -0.0773  0.5566
  358THY    CM1 8945   2.501   8.909   4.680  0.5928  0.3188 -0.0168
  358THY    HM1 8946   2.423   8.981   4.704  0.4908 -0.5571  2.5497
  358THY    HM2 8947   2.465   8.806   4.689 -0.6515  0.6522 -0.9582
  358THY    HM3 8948   2.587   8.920   4.747 -0.0441 -0.5552  0.9742
  358THY    CA6 8949   2.487   8.950   4.429 -1.6663 -0.3723 -0.5787
  358THY    HA6 8950   2.386   8.986   4.444 -1.8947 -0.6645 -1.3601
  359THY      O 8951   8.174   7.713   6.695 -0.6326 -0.1460 -0.3581
  359THY     HO 8952   8.259   7.710   6.743 -0.5980  1.0401 -0.3247
  359THY    CA1 8953   8.088   7.637   6.769  0.1147  0.8622  0.0301
  359THY    CA2 8954   7.952   7.636   6.737  0.0016  0.3053 -0.2856
  359THY    CP1 8955   7.890   7.709   6.609 -0.3580 -0.4792  0.4199
  359THY    HP1 8956   7.961   7.772   6.555 -1.3182 -0.4894 -0.9136
  359THY    CP2 8957   7.839   7.602   6.507 -0.1973  0.2329  0.5045
  359THY    HP2 8958   7.917   7.532   6.476 -0.4205  0.7025 -1.2175
  359THY    HP3 8959   7.755   7.549   6.553  1.6826 -4.9538 -1.3493
  359THY    HP4 8960   7.790   7.646   6.420 -1.7466 -2.2150  0.0628
  359THY    CP3 8961   7.771   7.797   6.646 -0.1471 -0.0927 -0.0971
  359THY    HP5 8962   7.682   7.752   6.692 -1.5872  1.2578 -1.4283
  359THY    HP6 8963   7.806   7.871   6.719 -0.9829  0.3807 -0.1571
  359THY    HP7 8964   7.743   7.845   6.551  0.6083 -1.0474 -0.8206
  359THY    CA3 8965   7.868   7.548   6.814 -0.0749 -0.0139  0.4249
  359THY    HA3 8966   7.765   7.534   6.783  0.5910 -1.5655 -1.2236
  359THY    CA4 8967   7.924   7.490   6.932  0.0730 -0.0540  0.5962
  359THY    HA4 8968   7.851   7.435   6.989 -2.5597  1.7421 -0.8064
  359THY    CA5 8969   8.056   7.491   6.962  0.4042  0.0731 -0.7770
  359THY    CM1 8970   8.113   7.415   7.078 -0.0295  0.2653  0.0604
  359THY    HM1 8971   8.201   7.354   7.054 -0.3396  0.4706 -1.7136
  359THY    HM2 8972   8.130   7.482   7.163 -0.1676 -0.9365  1.0752
  359THY    HM3 8973   8.033   7.347   7.112  0.1908 -0.1379 -0.2148
  359THY    CA6 8974   8.140   7.568   6.884 -0.1826 -0.6091  0.9085
  359THY    HA6 8975   8.248   7.565   6.893 -0.0373 -0.0214 -0.3581
  360THY      O 8976   3.218   8.637   5.305 -0.0154 -0.3682 -0.0023
  360THY     HO 8977   3.207   8.672   5.215 -0.8657 -1.3182 -0.2870
  360THY    CA1 8978   3.223   8.748   5.381  0.2057  0.1762 -0.5392
  360THY    CA2 8979   3.262   8.751   5.518  0.5828 -0.4666 -0.0360
  360THY    CP1 8980   3.326   8.620   5.578 -0.7981 -0.0522  0.0494
  360THY    HP1 8981   3.371   8.562   5.497 -0.8841 -1.5681  1.0538
  360THY    CP2 8982   3.436   8.650   5.680  0.4110  0.0479 -0.0288
  360THY    HP2 8983   3.378   8.676   5.769 -2.7128  1.1395 -2.2372
  360THY    HP3 8984   3.508   8.567   5.686 -0.0846 -0.6249 -2.3358
  360THY    HP4 8985   3.480   8.745   5.646 -0.0555  0.3415  0.1787
  360THY    CP3 8986   3.216   8.527   5.639  0.3031  0.4631  0.1018
  360THY    HP5 8987   3.174   8.542   5.739 -0.2598  0.2004 -0.0877
  360THY    HP6 8988   3.132   8.516   5.570 -1.4214 -0.2777  2.1996
  360THY    HP7 8989   3.264   8.429   5.654 -1.8830 -0.8138 -0.6861
  360THY    CA3 8990   3.246   8.867   5.599 -0.3775  0.5923  0.7433
  360THY    HA3 8991   3.276   8.873   5.703  1.0196  3.6231  0.2801
  360THY    CA4 8992   3.207   8.988   5.528  0.2944  0.4317 -0.7196
  360THY    HA4 8993   3.211   9.080   5.584  0.7706  0.0193 -0.0578
  360THY    CA5 8994   3.170   8.986   5.390  0.3356  0.2076 -0.2487
  360THY    CM1 8995   3.124   9.103   5.311 -0.5074 -0.3008 -0.2143
  360THY    HM1 8996   3.202   9.119   5.237 -0.9784 -1.5246 -1.0203
  360THY    HM2 8997   3.031   9.079   5.257 -0.3100  0.0971 -0.7284
  360THY    HM3 8998   3.115   9.189   5.378 -3.0074  0.9788 -2.0210
  360THY    CA6 8999   3.175   8.862   5.317 -0.2008 -0.5160 -0.6969
  360THY    HA6 9000   3.133   8.862   5.217 -0.0622  1.2454 -0.7954
  361THY      O 9001   3.256   8.647   2.322 -0.5110  0.2695 -0.6477
  361THY     HO 9002   3.243   8.552   2.302  1.1223  0.1605 -1.3371
  361THY    CA1 9003   3.372   8.689   2.269 -0.1246 -0.1820 -0.0328
  361THY    CA2 9004   3.424   8.813   2.294  0.3726  0.1736 -0.2972
  361THY    CP1 9005   3.352   8.906   2.389  0.0505  1.3190  0.3691
  361THY    HP1 9006   3.285   8.848   2.454 -1.2574 -0.9213 -2.7424
  361THY    CP2 9007   3.453   8.974   2.485  0.6379  0.6007 -0.4728
  361THY    HP2 9008   3.383   9.046   2.530  1.2878  0.0660  1.4740
  361THY    HP3 9009   3.494   8.912   2.565  0.5348  1.4531  0.2599
  361THY    HP4 9010   3.524   9.037   2.431 -0.8979  3.7600  0.9377
  361THY    CP3 9011   3.266   9.009   2.314  0.5728 -0.6245 -0.5304
  361THY    HP5 9012   3.206   9.070   2.382 -0.4396 -1.2770 -0.8121
  361THY    HP6 9013   3.325   9.071   2.245 -2.5055  1.6496 -1.3184
  361THY    HP7 9014   3.198   8.959   2.245  3.1516 -3.3988 -1.2956
  361THY    CA3 9015   3.549   8.846   2.241 -0.3443 -0.3054  0.6378
  361THY    HA3 9016   3.587   8.947   2.255 -1.6956  0.5486 -1.2191
  361THY    CA4 9017   3.624   8.750   2.166  0.4057  0.2738 -0.3300
  361THY    HA4 9018   3.722   8.778   2.127  0.6072  0.2241  0.1284
  361THY    CA5 9019   3.581   8.617   2.152  0.4976  0.7464 -0.1585
  361THY    CM1 9020   3.670   8.512   2.089 -0.4521 -0.5040 -0.0134
  361THY    HM1 9021   3.616   8.458   2.009  0.3097 -0.2749 -0.7005
  361THY    HM2 9022   3.746   8.574   2.040 -1.2229 -1.7816 -3.0895
  361THY    HM3 9023   3.713   8.442   2.161 -0.4115 -0.5829 -0.1127
  361THY    CA6 9024   3.446   8.596   2.193  0.5100  0.5508  0.2936
  361THY    HA6 9025   3.403   8.499   2.168  0.3480  0.5035  0.7462
  362THY      O 9026   5.814   3.718   6.394  0.1126 -0.2496 -0.2907
  362THY     HO 9027   5.838   3.744   6.304  0.6563 -1.5392 -0.5425
  362THY    CA1 9028   5.913   3.637   6.439  0.4891 -0.5456 -0.2259
  362THY    CA2 9029   5.905   3.556   6.554  0.4049 -0.3762  0.5813
  362THY    CP1 9030   5.786   3.555   6.640  0.9062 -1.3337  0.1757
  362THY    HP1 9031   5.710   3.622   6.599 -0.4424 -2.2162  1.1346
  362THY    CP2 9032   5.719   3.420   6.646  0.1292 -0.0846 -0.2434
  362THY    HP2 9033   5.783   3.349   6.701  0.9514  1.2667  0.5878
  362THY    HP3 9034   5.631   3.421   6.711  0.8783  1.2923  0.7981
  362THY    HP4 9035   5.702   3.372   6.549  0.8057  1.5384 -1.1863
  362THY    CP3 9036   5.818   3.611   6.784  0.1815 -0.3330  0.3537
  362THY    HP5 9037   5.877   3.702   6.771 -0.0162 -0.2490  0.0546
  362THY    HP6 9038   5.737   3.634   6.854 -1.1083  0.8491 -1.4584
  362THY    HP7 9039   5.894   3.547   6.830  1.8399  2.3991  1.6916
  362THY    CA3 9040   6.009   3.458   6.579  0.7340 -0.4458 -0.4196
  362THY    HA3 9041   6.009   3.391   6.664  0.0195  0.3771  0.2458
  362THY    CA4 9042   6.117   3.449   6.486  0.2454  0.0928 -0.9359
  362THY    HA4 9043   6.189   3.369   6.494 -1.7279 -1.8101 -1.1908
  362THY    CA5 9044   6.133   3.544   6.385 -0.2591 -0.4819 -1.1250
  362THY    CM1 9045   6.256   3.563   6.307  0.2510 -0.1469 -0.1704
  362THY    HM1 9046   6.286   3.662   6.273  3.3989 -0.2892  1.8380
  362THY    HM2 9047   6.335   3.538   6.378 -0.6400 -0.1654  0.8306
  362THY    HM3 9048   6.248   3.488   6.227  0.3442 -0.0702 -0.2501
  362THY    CA6 9049   6.031   3.638   6.367 -0.3551  0.7677  0.5899
  362THY    HA6 9050   6.031   3.703   6.280 -0.1427 -0.2563 -0.1955
  363THY      O 9051   0.726   3.567   1.408  0.2608 -0.2734  0.4666
  363THY     HO 9052   0.773   3.539   1.489  3.0181  3.1937  0.3444
  363THY    CA1 9053   0.799   3.529   1.299  0.2890  1.0599  0.5246
  363THY    CA2 9054   0.744   3.487   1.176 -0.3164  0.1037 -0.1240
  363THY    CP1 9055   0.593   3.518   1.144 -0.4019 -0.3794  0.1346
  363THY    HP1 9056   0.553   3.597   1.208 -1.9422  0.1851 -1.4215
  363THY    CP2 9057   0.582   3.564   1.005 -0.0122 -0.1898  0.0878
  363THY    HP2 9058   0.598   3.487   0.929  0.5749  0.4518 -0.4478
  363THY    HP3 9059   0.482   3.608   1.001 -0.3401 -0.6851  1.8550
  363THY    HP4 9060   0.645   3.654   0.993 -0.4926  0.0468 -0.7022
  363THY    CP3 9061   0.509   3.395   1.161  0.6064  0.4634  0.1294
  363THY    HP5 9062   0.521   3.346   1.259 -0.7750 -0.2735 -0.0494
  363THY    HP6 9063   0.404   3.425   1.158  0.5778  0.4774  1.0312
  363THY    HP7 9064   0.529   3.320   1.084 -3.8562 -3.1522  2.0152
  363THY    CA3 9065   0.826   3.408   1.088  0.1600 -1.2580  0.0252
  363THY    HA3 9066   0.785   3.375   0.993  1.8759 -0.5788 -1.0009
  363THY    CA4 9067   0.960   3.397   1.118 -0.3013  0.5396 -0.1774
  363THY    HA4 9068   1.025   3.343   1.050 -0.2949  0.0262  0.2367
  363THY    CA5 9069   1.018   3.459   1.228 -0.4333 -0.1631  0.1389
  363THY    CM1 9070   1.169   3.444   1.241 -0.3196 -0.0919 -0.3011
  363THY    HM1 9071   1.192   3.423   1.346  2.9231  0.2213 -0.8381
  363THY    HM2 9072   1.204   3.363   1.176 -2.8637 -0.0418 -1.8652
  363THY    HM3 9073   1.228   3.533   1.213  1.7511 -1.5010 -0.6293
  363THY    CA6 9074   0.933   3.511   1.328  1.0078 -0.3615 -0.2220
  363THY    HA6 9075   0.976   3.544   1.422  1.5035  3.2571 -1.5471
  364THY      O 9076   5.945   8.489   6.540  0.5825 -0.3682  0.0217
  364THY     HO 9077   5.870   8.463   6.597  0.5507 -2.1465 -0.7570
  364THY    CA1 9078   5.906   8.518   6.413  0.3169 -0.0182 -0.6073
  364THY    CA2 9079   5.999   8.531   6.303  0.2583  0.8898  0.2267
  364THY    CP1 9080   6.151   8.505   6.317  0.5063 -0.5641  0.2493
  364THY    HP1 9081   6.185   8.503   6.421 -0.1781  2.8298  0.6427
  364THY    CP2 9082   6.204   8.372   6.241 -0.5707 -0.3853  0.2320
  364THY    HP2 9083   6.300   8.346   6.288  0.4812 -0.9476 -2.0702
  364THY    HP3 9084   6.125   8.297   6.253 -1.3351  0.3779  0.0846
  364THY    HP4 9085   6.229   8.385   6.135 -2.4494  1.8956 -0.0119
  364THY    CP3 9086   6.238   8.627   6.265 -1.0908 -0.3705  0.3935
  364THY    HP5 9087   6.232   8.717   6.327 -1.8540 -0.9744  1.2140
  364THY    HP6 9088   6.340   8.586   6.268 -0.4488  1.2204  2.6171
  364THY    HP7 9089   6.221   8.653   6.160  2.3327 -1.9454 -0.7127
  364THY    CA3 9090   5.947   8.559   6.177 -0.2648  0.2860  0.1675
  364THY    HA3 9091   6.010   8.555   6.089  0.0170  0.8385  0.3385
  364THY    CA4 9092   5.810   8.566   6.159 -0.6169  0.0150 -0.6226
  364THY    HA4 9093   5.766   8.578   6.060 -2.0180 -0.9106 -0.1392
  364THY    CA5 9094   5.715   8.550   6.258 -0.6589  0.4984 -0.7116
  364THY    CM1 9095   5.566   8.564   6.233 -0.9101  0.1657  0.1006
  364THY    HM1 9096   5.533   8.595   6.133  0.7581 -0.3585 -0.6621
  364THY    HM2 9097   5.518   8.467   6.250 -0.9230  0.1248 -0.1602
  364THY    HM3 9098   5.516   8.626   6.309  1.9547  1.8821  0.7540
  364THY    CA6 9099   5.767   8.536   6.386  0.0130  0.6755 -0.2331
  364THY    HA6 9100   5.696   8.535   6.469 -0.3620 -1.4981 -0.5470
  365THY      O 9101   1.769   8.114   6.922  0.0822  0.0231  0.2685
  365THY     HO 9102   1.860   8.117   6.887 -0.1558 -0.9354 -0.4566
  365THY    CA1 9103   1.724   8.244   6.929 -0.4294  0.4794  0.7185
  365THY    CA2 9104   1.585   8.275   6.941 -0.8478 -0.4028 -0.0035
  365THY    CP1 9105   1.481   8.158   6.941 -0.7124 -0.7116 -0.0885
  365THY    HP1 9106   1.524   8.075   6.997  0.8612  0.2240  0.1586
  365THY    CP2 9107   1.352   8.192   6.999 -0.2771  0.0658  0.3986
  365THY    HP2 9108   1.276   8.114   7.008  1.2323 -1.3938  0.9640
  365THY    HP3 9109   1.369   8.240   7.096 -1.2260  3.6052 -0.9940
  365THY    HP4 9110   1.315   8.280   6.945 -0.0336  0.1298  0.3323
  365THY    CP3 9111   1.451   8.122   6.799  0.9232 -0.0776  0.3560
  365THY    HP5 9112   1.371   8.047   6.794 -0.9601  1.7149  1.7843
  365THY    HP6 9113   1.422   8.209   6.739 -0.3084 -1.8662 -1.7877
  365THY    HP7 9114   1.535   8.078   6.744  1.0878  0.8023 -0.1102
  365THY    CA3 9115   1.547   8.413   6.945 -0.2860 -0.3381  0.5122
  365THY    HA3 9116   1.449   8.456   6.958  0.2805  1.5601 -1.0110
  365THY    CA4 9117   1.648   8.512   6.935  0.6460  0.5208 -0.7872
  365THY    HA4 9118   1.630   8.616   6.958 -0.9953 -0.1466  1.2047
  365THY    CA5 9119   1.779   8.474   6.940  0.2115 -1.2095 -0.0761
  365THY    CM1 9120   1.878   8.577   6.961 -0.3956 -0.7650 -0.1799
  365THY    HM1 9121   1.977   8.544   6.925 -0.5028  0.1649 -1.4129
  365THY    HM2 9122   1.857   8.664   6.898 -1.3362  0.2794  1.4985
  365THY    HM3 9123   1.900   8.611   7.063  1.5562 -1.8226 -0.1993
  365THY    CA6 9124   1.818   8.340   6.930  0.7082 -0.2643 -0.1079
  365THY    HA6 9125   1.926   8.323   6.924  1.0703  2.2063 -3.0491
  366THY      O 9126   0.754   8.958   4.473 -0.0572 -0.4159 -0.2729
  366THY     HO 9127   0.714   9.046   4.480 -1.9115 -1.2985  1.1443
  366THY    CA1 9128   0.688   8.881   4.555  0.1705  0.5115  0.6821
  366THY    CA2 9129   0.733   8.750   4.585 -0.3816  0.0447 -0.7687
  366THY    CP1 9130   0.865   8.689   4.524  0.1564 -0.4150 -0.1344
  366THY    HP1 9131   0.913   8.776   4.479 -1.1097  0.5916  0.3807
  366THY    CP2 9132   0.961   8.628   4.628 -0.2369  0.5227 -0.1544
  366THY    HP2 9133   1.046   8.574   4.584 -0.7375 -0.3884 -0.0297
  366THY    HP3 9134   0.997   8.716   4.682 -1.3282  1.9455 -1.6205
  366THY    HP4 9135   0.904   8.556   4.687 -3.1877  2.8622  0.0684
  366THY    CP3 9136   0.836   8.600   4.415  0.1669 -0.1792 -0.2359
  366THY    HP5 9137   0.923   8.598   4.348  1.5904  1.2955  1.4580
  366THY    HP6 9138   0.805   8.501   4.448  1.5361 -0.5721 -0.0816
  366THY    HP7 9139   0.756   8.632   4.347  0.8559 -0.6280 -1.2894
  366THY    CA3 9140   0.647   8.670   4.663  0.2831 -0.0492  0.7035
  366THY    HA3 9141   0.660   8.565   4.684 -2.4808 -0.6856 -0.3454
  366THY    CA4 9142   0.531   8.722   4.715  0.4565  0.1844  0.0488
  366THY    HA4 9143   0.466   8.657   4.773  3.0706 -2.1531  0.5707
  366THY    CA5 9144   0.498   8.854   4.703 -0.2119 -1.1007 -0.3444
  366THY    CM1 9145   0.382   8.909   4.792 -0.1058  0.5643 -0.1248
  366THY    HM1 9146   0.406   8.885   4.896 -3.3818 -2.1267  0.1691
  366THY    HM2 9147   0.362   9.014   4.771 -2.9694 -0.0707 -0.9167
  366THY    HM3 9148   0.283   8.868   4.768  0.1499 -0.7274  0.8673
  366THY    CA6 9149   0.573   8.933   4.612  0.2099 -0.0164 -0.1043
  366THY    HA6 9150   0.551   9.038   4.592 -1.1983 -0.3873 -0.6010
  367THY      O 9151   6.210   9.736   7.247 -0.3927  0.0229  0.0398
  367THY     HO 9152   6.175   9.820   7.212  0.0497  0.1691 -0.0596
  367THY    CA1 9153   6.240   9.661   7.135  0.1210  0.7785  0.2664
  367THY    CA2 9154   6.323   9.551   7.136  0.8392 -1.2405 -0.9516
  367THY    CP1 9155   6.401   9.511   7.259  0.5719  0.1342 -0.2085
  367THY    HP1 9156   6.389   9.592   7.333  1.6113 -0.4651  0.6506
  367THY    CP2 9157   6.339   9.384   7.314  0.2873 -0.2479 -0.0947
  367THY    HP2 9158   6.232   9.401   7.330  0.4146 -1.0074  1.9024
  367THY    HP3 9159   6.336   9.299   7.245 -0.3170  1.8957 -2.8400
  367THY    HP4 9160   6.386   9.359   7.410 -0.6193  0.2931  0.5037
  367THY    CP3 9161   6.565   9.479   7.246 -0.0440 -0.0458  0.4233
  367THY    HP5 9162   6.598   9.447   7.345 -0.8718  1.1449  1.1147
  367THY    HP6 9163   6.567   9.402   7.168 -0.4956  1.2808 -0.9496
  367THY    HP7 9164   6.631   9.561   7.215 -2.2877  2.2751  1.4606
  367THY    CA3 9165   6.329   9.469   7.022 -0.5388  0.0849 -0.5630
  367THY    HA3 9166   6.387   9.378   7.028  0.2868  0.6040 -0.4148
  367THY    CA4 9167   6.265   9.501   6.908  0.1387 -0.2926  0.3259
  367THY    HA4 9168   6.267   9.447   6.814 -0.7175  1.7490 -0.9237
  367THY    CA5 9169   6.190   9.618   6.900  0.6862 -0.4149  0.7281
  367THY    CM1 9170   6.120   9.655   6.770  0.5309 -0.2015 -0.7292
  367THY    HM1 9171   6.082   9.757   6.777 -0.3011 -0.3140 -2.6572
  367THY    HM2 9172   6.189   9.658   6.685 -0.5370 -0.8801 -1.6682
  367THY    HM3 9173   6.029   9.595   6.751 -1.0384  0.3465  3.8997
  367THY    CA6 9174   6.172   9.698   7.015  0.2048  0.2676  0.5302
  367THY    HA6 9175   6.111   9.787   7.004 -0.7063 -0.5472 -1.4844
  368THY      O 9176   0.461   4.201   0.316 -0.2389  0.3818 -0.1282
  368THY     HO 9177   0.490   4.153   0.236  2.2564 -0.4439  1.1701
  368THY    CA1 9178   0.329   4.225   0.310 -0.4466  0.2700 -1.0526
  368THY    CA2 9179   0.261   4.270   0.430 -0.6348  0.0640  0.3827
  368THY    CP1 9180   0.334   4.265   0.567  0.3564  0.3923  0.6225
  368THY    HP1 9181   0.418   4.196   0.563 -1.0036 -1.2864 -0.4566
  368THY    CP2 9182   0.391   4.406   0.579  0.2238 -0.3684  0.0058
  368THY    HP2 9183   0.315   4.484   0.572 -0.6148 -1.1075  0.6475
  368THY    HP3 9184   0.459   4.410   0.665  1.4527  0.0776 -0.9447
  368THY    HP4 9185   0.455   4.428   0.493  0.3300  3.3089  0.8512
  368THY    CP3 9186   0.245   4.220   0.687 -0.2685 -0.1975  0.4304
  368THY    HP5 9187   0.316   4.203   0.769 -0.6551 -0.3129  0.7432
  368THY    HP6 9188   0.180   4.297   0.731 -0.1509  0.1289  0.0407
  368THY    HP7 9189   0.196   4.125   0.664 -0.0703 -0.1236 -0.3233
  368THY    CA3 9190   0.122   4.300   0.422 -0.1090  0.0126 -0.6963
  368THY    HA3 9191   0.073   4.332   0.513  1.7294  1.6389 -0.2023
  368THY    CA4 9192   0.052   4.268   0.302  0.1980 -0.6842 -0.0043
  368THY    HA4 9193  -0.054   4.290   0.302  0.1429 -0.9299 -0.8984
  368THY    CA5 9194   0.121   4.219   0.195 -0.5788 -0.0471  0.2112
  368THY    CM1 9195   0.052   4.174   0.073  0.1810  0.6595  0.0638
  368THY    HM1 9196  -0.006   4.083   0.092  0.6625  0.0312 -1.3480
  368THY    HM2 9197  -0.018   4.250   0.036 -0.5279 -0.9031 -2.0411
  368THY    HM3 9198   0.118   4.149  -0.011 -0.9009 -1.2493 -0.2838
  368THY    CA6 9199   0.262   4.207   0.196 -0.3392  0.3720 -0.1796
  368THY    HA6 9200   0.312   4.166   0.109 -0.9973  0.3558 -0.5614
  369THY      O 9201   0.788   2.967   7.390 -0.0617  0.0485  0.4832
  369THY     HO 9202   0.739   3.009   7.462  0.6776  1.0646  0.4086
  369THY    CA1 9203   0.886   3.055   7.364 -0.0506  0.0588  0.4550
  369THY    CA2 9204   0.988   3.028   7.260  0.3056 -0.6714 -0.2624
  369THY    CP1 9205   0.988   2.895   7.190 -1.3363  0.4442 -0.3804
  369THY    HP1 9206   0.927   2.822   7.244  0.2422 -0.1249  0.6715
  369THY    CP2 9207   0.919   2.917   7.051 -0.0238  0.2538 -0.6959
  369THY    HP2 9208   0.812   2.928   7.068 -0.0144  0.5865 -0.8402
  369THY    HP3 9209   0.960   3.005   7.000 -1.9739  1.2457 -0.6061
  369THY    HP4 9210   0.937   2.824   6.995 -1.2429 -0.9026  0.7382
  369THY    CP3 9211   1.127   2.845   7.176 -0.2530 -0.8425  0.2539
  369THY    HP5 9212   1.178   2.865   7.271  0.2639  3.8621 -0.7671
  369THY    HP6 9213   1.130   2.740   7.144 -0.2258 -0.9637  0.6488
  369THY    HP7 9214   1.184   2.909   7.107  0.2855 -1.0724  0.4755
  369THY    CA3 9215   1.087   3.129   7.236  0.2582 -0.2123  0.1175
  369THY    HA3 9216   1.174   3.120   7.172 -0.0809  0.3497 -0.4310
  369THY    CA4 9217   1.088   3.244   7.315  0.7532  0.7227 -0.0820
  369THY    HA4 9218   1.163   3.321   7.294 -1.8733  3.3349 -0.5188
  369THY    CA5 9219   0.991   3.269   7.410 -0.5107 -0.2946 -0.1274
  369THY    CM1 9220   0.984   3.410   7.459  0.3654 -0.1448 -0.5616
  369THY    HM1 9221   1.085   3.452   7.447 -0.0621  0.8647 -0.7266
  369THY    HM2 9222   0.911   3.472   7.406 -0.8473 -1.2202 -0.2066
  369THY    HM3 9223   0.957   3.412   7.565  1.7406 -0.7834 -0.1729
  369THY    CA6 9224   0.885   3.177   7.425  0.3710  0.4650 -0.9483
  369THY    HA6 9225   0.802   3.207   7.489 -0.5742  0.9202 -2.3499
  370THY      O 9226   5.719   9.696   1.348  0.6455 -0.5158 -0.0446
  370THY     HO 9227   5.784   9.716   1.279  0.5416  2.0884  0.5021
  370THY    CA1 9228   5.786   9.728   1.458 -0.6320 -0.3379  0.1523
  370THY    CA2 9229   5.737   9.750   1.589  0.2894 -0.1004 -0.2546
  370THY    CP1 9230   5.594   9.724   1.622 -0.3594  1.2311  1.2256
  370THY    HP1 9231   5.547   9.680   1.533  0.0722  0.8820  1.1638
  370THY    CP2 9232   5.588   9.605   1.722  0.3882 -0.5669  0.3402
  370THY    HP2 9233   5.491   9.555   1.722 -0.2602  0.6182 -1.2149
  370THY    HP3 9234   5.651   9.515   1.712  1.2161  0.2116 -1.8947
  370THY    HP4 9235   5.620   9.641   1.821 -1.4067  0.2650  0.6579
  370THY    CP3 9236   5.525   9.847   1.675 -0.0129  0.2638 -0.4215
  370THY    HP5 9237   5.526   9.922   1.595  1.4858 -0.2009 -0.8767
  370THY    HP6 9238   5.421   9.821   1.696 -0.0709  1.7910  1.3930
  370THY    HP7 9239   5.570   9.889   1.766  0.4642  1.6199 -1.2601
  370THY    CA3 9240   5.823   9.801   1.691 -0.6406 -0.2401 -0.0856
  370THY    HA3 9241   5.787   9.827   1.790  3.7720  4.9350  0.6504
  370THY    CA4 9242   5.962   9.806   1.666 -0.1323 -0.2919  0.1724
  370THY    HA4 9243   6.029   9.830   1.748  0.8292 -0.7204 -0.4700
  370THY    CA5 9244   6.010   9.780   1.537  0.7716  0.6405 -0.1198
  370THY    CM1 9245   6.157   9.779   1.515 -0.1679 -0.0366  0.3573
  370THY    HM1 9246   6.184   9.737   1.417 -0.3998  0.8883 -0.1081
  370THY    HM2 9247   6.181   9.886   1.519  2.8752 -0.6418  1.0305
  370THY    HM3 9248   6.214   9.728   1.595  1.1069  0.3474 -0.2838
  370THY    CA6 9249   5.920   9.750   1.436 -0.5829 -0.3198 -0.8376
  370THY    HA6 9250   5.965   9.734   1.339 -1.5439 -1.2979 -1.1370
  371THY      O 9251   8.298   4.090   1.650 -0.1397  0.5036 -0.1306
  371THY     HO 9252   8.277   4.008   1.699  1.4792  1.5146  2.4767
  371THY    CA1 9253   8.218   4.182   1.705  0.3821 -0.5489 -0.4621
  371THY    CA2 9254   8.218   4.314   1.654 -0.2810  0.2520 -0.2641
  371THY    CP1 9255   8.319   4.355   1.545 -0.7578  0.2182  0.4788
  371THY    HP1 9256   8.398   4.282   1.527 -1.3411 -0.2073 -0.3962
  371THY    CP2 9257   8.239   4.374   1.418 -0.4426 -0.3056 -0.0681
  371THY    HP2 9258   8.206   4.274   1.390 -0.9549 -0.5741  1.4103
  371THY    HP3 9259   8.157   4.446   1.432 -0.1265  0.4566 -1.7927
  371THY    HP4 9260   8.307   4.405   1.337  2.2895 -0.8209  1.9119
  371THY    CP3 9261   8.394   4.478   1.590  0.1337 -0.0309  0.0998
  371THY    HP5 9262   8.468   4.506   1.513  0.3869  1.3117  0.8071
  371THY    HP6 9263   8.329   4.565   1.600 -1.8756 -1.6624  2.5372
  371THY    HP7 9264   8.433   4.458   1.690 -1.6067 -0.7793  0.6645
  371THY    CA3 9265   8.129   4.405   1.704 -0.1290 -0.5326 -0.0908
  371THY    HA3 9266   8.129   4.507   1.667 -1.3206 -0.7066 -0.6128
  371THY    CA4 9267   8.041   4.366   1.814 -0.5973 -1.0376  0.4313
  371THY    HA4 9268   7.983   4.450   1.852  0.6826  1.1492 -2.0311
  371THY    CA5 9269   8.034   4.231   1.860 -0.2870  0.3287 -0.2960
  371THY    CM1 9270   7.955   4.202   1.988 -0.2765 -0.2298  0.1637
  371THY    HM1 9271   7.884   4.282   2.012 -0.9906 -1.1356  1.2064
  371THY    HM2 9272   7.877   4.126   1.972 -0.6257 -0.1370  1.3259
  371THY    HM3 9273   8.010   4.163   2.075 -1.1058 -0.8510  0.4284
  371THY    CA6 9274   8.127   4.141   1.810 -0.4120  0.1574  0.1189
  371THY    HA6 9275   8.123   4.042   1.855  0.3534  0.6167  1.2574
  372THY      O 9276   6.694   5.228   2.496  0.3161 -0.9137  0.3511
  372THY     HO 9277   6.660   5.138   2.486  0.7848 -1.2456  1.6037
  372THY    CA1 9278   6.652   5.302   2.390  0.1947  0.0735 -0.6070
  372THY    CA2 9279   6.675   5.440   2.371  0.1645 -0.4212 -0.3867
  372THY    CP1 9280   6.733   5.520   2.486 -1.0107  0.3483  0.7318
  372THY    HP1 9281   6.755   5.458   2.573  0.2386  1.5713  1.3372
  372THY    CP2 9282   6.871   5.588   2.461  0.0628  0.0882 -0.2421
  372THY    HP2 9283   6.948   5.512   2.441  0.1555 -0.4106  1.7538
  372THY    HP3 9284   6.870   5.653   2.373 -1.2799 -0.3482 -0.5698
  372THY    HP4 9285   6.918   5.653   2.536  0.6962 -1.1445  0.4521
  372THY    CP3 9286   6.624   5.618   2.528  0.4327  0.4180  0.2986
  372THY    HP5 9287   6.624   5.637   2.636 -0.8441 -0.2940  0.4416
  372THY    HP6 9288   6.643   5.711   2.473  0.7572  1.1204  1.5553
  372THY    HP7 9289   6.523   5.589   2.499  0.8274 -0.6334 -0.0934
  372THY    CA3 9290   6.640   5.505   2.249 -0.1086  0.4585 -0.7424
  372THY    HA3 9291   6.654   5.612   2.247 -2.0571  0.7640  0.0932
  372THY    CA4 9292   6.589   5.428   2.146  0.5045  0.5504  0.5093
  372THY    HA4 9293   6.566   5.475   2.051  0.4529  1.7442  1.0798
  372THY    CA5 9294   6.574   5.291   2.163 -1.2642 -0.1473 -0.3214
  372THY    CM1 9295   6.533   5.214   2.041 -0.5567  0.0690 -0.2811
  372THY    HM1 9296   6.596   5.250   1.959 -2.4404  2.2276 -0.8948
  372THY    HM2 9297   6.549   5.107   2.060  0.9726  0.7346  2.9507
  372THY    HM3 9298   6.430   5.241   2.012 -0.8186  0.0664  0.6007
  372THY    CA6 9299   6.606   5.229   2.281  0.0405  0.3301  0.0677
  372THY    HA6 9300   6.611   5.121   2.297 -0.1579  0.4932  1.3558
  373THY      O 9301   6.591   2.190   6.812  0.0055 -0.7817 -0.2908
  373THY     HO 9302   6.631   2.274   6.783  1.0074 -0.9807  0.4659
  373THY    CA1 9303   6.494   2.232   6.896 -0.3706  0.2811  0.2538
  373THY    CA2 9304   6.371   2.156   6.916 -0.0437  0.7454 -0.2842
  373THY    CP1 9305   6.345   2.038   6.822  0.6001  0.4873 -0.3272
  373THY    HP1 9306   6.433   1.982   6.789  0.2673 -0.5295  0.4634
  373THY    CP2 9307   6.245   1.931   6.878 -0.3444  0.1342 -0.0127
  373THY    HP2 9308   6.285   1.881   6.967  0.8363  1.7535  0.4049
  373THY    HP3 9309   6.141   1.964   6.883 -0.6306  0.1534 -3.6676
  373THY    HP4 9310   6.239   1.850   6.804 -2.4823 -0.0257  0.2820
  373THY    CP3 9311   6.279   2.095   6.695 -0.3201 -0.9847 -0.3682
  373THY    HP5 9312   6.265   2.016   6.621 -3.6034  0.2527 -1.2649
  373THY    HP6 9313   6.178   2.136   6.706  0.1315  0.6152 -1.7135
  373THY    HP7 9314   6.343   2.177   6.658  0.3703 -1.7672 -0.9483
  373THY    CA3 9315   6.278   2.196   7.008 -0.3641 -0.7333 -0.6473
  373THY    HA3 9316   6.186   2.140   7.025 -0.5179 -0.0974  0.7787
  373THY    CA4 9317   6.307   2.306   7.094 -0.4347  0.1046 -0.5145
  373THY    HA4 9318   6.250   2.336   7.181  1.9106  0.2121  1.0886
  373THY    CA5 9319   6.420   2.378   7.068  0.3893  0.5075  0.1444
  373THY    CM1 9320   6.446   2.504   7.148 -0.1450  0.3798 -0.3013
  373THY    HM1 9321   6.433   2.591   7.084  1.7095  0.6022 -0.4288
  373THY    HM2 9322   6.371   2.519   7.228 -0.8389  2.5170 -1.2808
  373THY    HM3 9323   6.545   2.503   7.194 -0.4082 -2.3646  0.3934
  373THY    CA6 9324   6.522   2.336   6.977  0.0703  0.4625  0.4078
  373THY    HA6 9325   6.615   2.393   6.972  1.3830 -1.5454  0.8102
  374THY      O 9326   0.479   3.259   3.345  0.0745  0.1790 -0.1314
  374THY     HO 9327   0.575   3.250   3.348 -0.1013 -1.5773  1.7156
  374THY    CA1 9328   0.438   3.189   3.456  0.1384  0.3972  0.9160
  374THY    CA2 9329   0.318   3.219   3.511  0.2360 -0.7930 -0.4897
  374THY    CP1 9330   0.220   3.321   3.446  0.5420  0.0692  1.0835
  374THY    HP1 9331   0.255   3.363   3.351  1.5478  0.3992  1.5911
  374THY    CP2 9332   0.077   3.260   3.415  0.1133  0.6351  0.1010
  374THY    HP2 9333   0.028   3.225   3.506 -2.4051 -1.3326 -1.8458
  374THY    HP3 9334   0.026   3.329   3.347  1.1025  0.7366 -0.5647
  374THY    HP4 9335   0.093   3.169   3.356  0.0314  0.5798  0.1641
  374THY    CP3 9336   0.206   3.435   3.542  0.6898 -0.6082  0.1355
  374THY    HP5 9337   0.143   3.410   3.628  0.7068 -1.7286 -0.1508
  374THY    HP6 9338   0.303   3.468   3.578  0.5746  1.8088 -1.5458
  374THY    HP7 9339   0.163   3.522   3.491 -0.2364 -0.5061  1.0598
  374THY    CA3 9340   0.270   3.144   3.616 -0.1101  0.6216 -0.6733
  374THY    HA3 9341   0.172   3.163   3.659  0.9964 -0.0719  2.3717
  374THY    CA4 9342   0.347   3.042   3.666 -0.0906  0.8461  0.2038
  374THY    HA4 9343   0.308   2.990   3.752 -0.8005 -0.4009 -0.8350
  374THY    CA5 9344   0.473   3.014   3.612  0.6941  0.2420 -0.1133
  374THY    CM1 9345   0.540   2.902   3.675  0.2628  0.0555  0.3387
  374THY    HM1 9346   0.549   2.825   3.597 -0.0524  0.5929 -0.2470
  374THY    HM2 9347   0.640   2.942   3.696 -0.6559  2.8307 -0.1399
  374THY    HM3 9348   0.496   2.863   3.768 -1.0414  1.4717  0.3667
  374THY    CA6 9349   0.514   3.087   3.504  0.1367  0.3568  1.2018
  374THY    HA6 9350   0.612   3.064   3.463 -1.1378 -0.3601 -1.7292
  375THY      O 9351   4.635   9.516   1.479  0.0020  0.2564 -0.2209
  375THY     HO 9352   4.695   9.545   1.409 -1.0647  1.6394 -0.6110
  375THY    CA1 9353   4.648   9.601   1.585 -0.2718  0.5901 -0.0171
  375THY    CA2 9354   4.573   9.584   1.704  0.3582  0.0037 -0.7469
  375THY    CP1 9355   4.470   9.475   1.717 -0.4348  0.5505  0.7662
  375THY    HP1 9356   4.437   9.451   1.616  1.0771  3.9212 -0.6782
  375THY    CP2 9357   4.516   9.348   1.785 -0.1085 -1.0780  0.4935
  375THY    HP2 9358   4.556   9.373   1.884  2.9721 -0.7674 -0.7078
  375THY    HP3 9359   4.441   9.268   1.780 -0.1366 -1.1301  1.4850
  375THY    HP4 9360   4.602   9.307   1.731 -0.4411 -1.0168 -0.0869
  375THY    CP3 9361   4.336   9.510   1.783 -0.1575  0.3639 -0.1558
  375THY    HP5 9362   4.272   9.421   1.787  1.7475 -1.0574 -0.3179
  375THY    HP6 9363   4.357   9.547   1.885 -0.0329 -3.0113  1.1573
  375THY    HP7 9364   4.278   9.592   1.737 -0.5988  0.8103  1.1221
  375THY    CA3 9365   4.590   9.669   1.817 -0.3617  0.2178  0.4515
  375THY    HA3 9366   4.533   9.652   1.908 -1.1417 -2.2237 -0.4124
  375THY    CA4 9367   4.691   9.765   1.806 -0.1829  0.0735 -0.3922
  375THY    HA4 9368   4.714   9.836   1.885 -3.0525  0.1408  0.4742
  375THY    CA5 9369   4.768   9.774   1.692  0.4662 -0.0005  0.5745
  375THY    CM1 9370   4.885   9.869   1.685  0.1163  0.3337 -0.1997
  375THY    HM1 9371   4.950   9.867   1.773 -2.2334  2.7786  1.7265
  375THY    HM2 9372   4.943   9.843   1.595  1.1912  1.0370  0.2634
  375THY    HM3 9373   4.842   9.969   1.695  2.0317  1.0631  1.4041
  375THY    CA6 9374   4.735   9.705   1.577 -0.0683  0.1896  0.5428
  375THY    HA6 9375   4.802   9.708   1.491 -0.6406  0.6987  0.0999
  376THY      O 9376   8.553   5.925   4.327 -0.2819  0.5088  0.5257
  376THY     HO 9377   8.623   5.951   4.390  1.2744  1.9614 -1.6619
  376THY    CA1 9378   8.493   6.047   4.304 -0.3588  1.0928 -0.1213
  376THY    CA2 9379   8.374   6.044   4.225  0.6506 -0.4703 -0.0999
  376THY    CP1 9380   8.315   5.918   4.165 -0.0198 -0.4993 -0.0666
  376THY    HP1 9381   8.382   5.831   4.165  0.3893 -0.2861 -2.7658
  376THY    CP2 9382   8.186   5.874   4.239  0.5869 -0.0987  0.3514
  376THY    HP2 9383   8.196   5.842   4.344  0.1337  0.7785  0.6726
  376THY    HP3 9384   8.104   5.946   4.243  0.3265 -0.3799  0.1776
  376THY    HP4 9385   8.130   5.793   4.191  1.3701  0.1356 -0.9898
  376THY    CP3 9386   8.277   5.942   4.015  0.1372  0.2575 -0.8695
  376THY    HP5 9387   8.197   6.016   4.003 -1.8478 -1.9130 -1.7412
  376THY    HP6 9388   8.358   5.981   3.952  0.6199 -1.3725 -1.3086
  376THY    HP7 9389   8.240   5.850   3.969 -0.9022 -0.1933  0.8018
  376THY    CA3 9390   8.302   6.165   4.204 -0.2732 -0.1481 -0.7638
  376THY    HA3 9391   8.198   6.159   4.173  0.0959 -1.9415 -1.8406
  376THY    CA4 9392   8.369   6.284   4.241 -0.1385 -0.4621  0.0379
  376THY    HA4 9393   8.323   6.382   4.234  0.8915  0.3906  3.2201
  376THY    CA5 9394   8.490   6.285   4.313 -0.0083  0.6145 -0.3742
  376THY    CM1 9395   8.540   6.411   4.385 -0.2095 -0.0278 -0.0879
  376THY    HM1 9396   8.644   6.439   4.364  0.0130 -0.6993  0.0950
  376THY    HM2 9397   8.490   6.508   4.370  1.2269  0.7138 -0.3087
  376THY    HM3 9398   8.543   6.386   4.492 -2.3791  0.2836  0.1000
  376THY    CA6 9399   8.546   6.163   4.346 -0.3525  0.3438  0.0436
  376THY    HA6 9400   8.635   6.162   4.407  0.7415  2.6370 -1.3629
  377THY      O 9401   5.607   1.684   6.858  0.6962 -0.3475 -0.3747
  377THY     HO 9402   5.700   1.705   6.839  0.1326  2.4217 -0.5606
  377THY    CA1 9403   5.576   1.583   6.784 -0.4034  0.8218 -0.0824
  377THY    CA2 9404   5.450   1.521   6.782  0.6437  0.1221  0.3835
  377THY    CP1 9405   5.331   1.580   6.861 -0.0560 -0.2986 -0.1289
  377THY    HP1 9406   5.374   1.659   6.924  0.6926  1.1927 -2.3667
  377THY    CP2 9407   5.220   1.639   6.781  0.3136 -0.1984  0.3093
  377THY    HP2 9408   5.179   1.554   6.727  0.7504  0.3314 -0.8879
  377THY    HP3 9409   5.141   1.681   6.845 -0.2766 -1.5114  0.4615
  377THY    HP4 9410   5.267   1.701   6.703 -1.2861 -0.7893 -1.1922
  377THY    CP3 9411   5.270   1.483   6.957  0.0425 -0.3414  0.0047
  377THY    HP5 9412   5.216   1.544   7.030  0.3036  1.8409 -1.5106
  377THY    HP6 9413   5.208   1.408   6.907 -0.3679  0.5686 -0.8727
  377THY    HP7 9414   5.349   1.441   7.021  0.2530  0.7611  0.4858
  377THY    CA3 9415   5.428   1.405   6.704  0.3773  0.4322  0.0263
  377THY    HA3 9416   5.331   1.357   6.708 -0.8286  2.5658 -1.2914
  377THY    CA4 9417   5.525   1.350   6.629  0.1299 -0.0896 -0.5641
  377THY    HA4 9418   5.514   1.263   6.565 -2.3524  0.3383 -0.8016
  377THY    CA5 9419   5.643   1.415   6.624 -0.3930 -0.2241 -0.8891
  377THY    CM1 9420   5.759   1.371   6.544  0.3870 -0.5482 -0.5432
  377THY    HM1 9421   5.744   1.397   6.438  2.8304 -0.2532 -0.8699
  377THY    HM2 9422   5.857   1.406   6.577  0.1915 -0.7496  0.2796
  377THY    HM3 9423   5.752   1.261   6.541  1.9250 -0.7845  1.9574
  377THY    CA6 9424   5.670   1.532   6.700 -0.5080  0.0909 -1.2075
  377THY    HA6 9425   5.768   1.578   6.710 -0.5538 -0.0033 -0.1486
  378THY      O 9426   0.105   0.056   5.242 -0.4904 -0.2517 -0.0409
  378THY     HO 9427   0.078   0.148   5.224  2.4570  1.5033  3.1634
  378THY    CA1 9428   0.008  -0.009   5.314  0.0095 -0.3365  0.4039
  378THY    CA2 9429  -0.116  -0.035   5.254  0.3479 -0.1708 -0.0527
  378THY    CP1 9430  -0.146   0.000   5.104  0.2263  0.0047 -0.3062
  378THY    HP1 9431  -0.050   0.028   5.060  1.1290 -1.9767  0.2907
  378THY    CP2 9432  -0.196  -0.126   5.030 -0.7876  0.4398  0.4109
  378THY    HP2 9433  -0.120  -0.204   5.016 -0.6733  0.5267  0.5537
  378THY    HP3 9434  -0.288  -0.172   5.067  0.5876 -2.3304  0.6039
  378THY    HP4 9435  -0.227  -0.098   4.928  0.2903 -1.4730 -0.5066
  378THY    CP3 9436  -0.250   0.108   5.096  1.0999  0.2076  0.3677
  378THY    HP5 9437  -0.345   0.079   5.142  0.9728  2.8822  1.9823
  378THY    HP6 9438  -0.214   0.193   5.156  0.2232 -0.2131  1.5310
  378THY    HP7 9439  -0.263   0.129   4.989  1.2474 -0.8855  0.1169
  378THY    CA3 9440  -0.207  -0.122   5.327 -0.2433  0.2092  0.4100
  378THY    HA3 9441  -0.305  -0.155   5.293 -1.9956  3.2116  2.0524
  378THY    CA4 9442  -0.159  -0.176   5.452 -0.6492  0.1354  0.3343
  378THY    HA4 9443  -0.224  -0.239   5.512 -0.7514 -0.8782 -0.8192
  378THY    CA5 9444  -0.034  -0.143   5.504 -0.5758 -0.0591  0.0593
  378THY    CM1 9445   0.015  -0.212   5.623  0.6944 -0.2637  0.3782
  378THY    HM1 9446  -0.052  -0.239   5.705  0.2408 -1.6012 -0.3976
  378THY    HM2 9447   0.056  -0.310   5.595 -0.4883 -0.8256  0.5406
  378THY    HM3 9448   0.089  -0.144   5.667 -0.4458  0.0959  1.8204
  378THY    CA6 9449   0.049  -0.053   5.438  0.0808 -0.1071 -0.1508
  378THY    HA6 9450   0.149  -0.028   5.470  0.0462 -0.3253  0.1288
  379THY      O 9451   5.292   0.650   8.518 -0.1328 -0.4546  0.3739
  379THY     HO 9452   5.224   0.670   8.451 -0.1841 -0.9186  0.2867
  379THY    CA1 9453   5.251   0.736   8.613 -0.3632  0.5925  0.4345
  379THY    CA2 9454   5.321   0.741   8.735 -0.0865  0.6468  0.1931
  379THY    CP1 9455   5.451   0.670   8.759  0.1837  0.8717 -0.4818
  379THY    HP1 9456   5.479   0.596   8.684 -1.2778 -0.3364  0.1214
  379THY    CP2 9457   5.575   0.768   8.764 -0.1137 -0.3010  0.0458
  379THY    HP2 9458   5.562   0.846   8.840 -2.1498 -1.1460  0.6465
  379THY    HP3 9459   5.665   0.710   8.789  1.0704  1.2444 -0.4904
  379THY    HP4 9460   5.589   0.815   8.667  0.1644 -2.0520 -0.7968
  379THY    CP3 9461   5.448   0.582   8.879  0.6674  0.6421 -0.0857
  379THY    HP5 9462   5.368   0.507   8.871  2.8114 -1.6468 -1.6121
  379THY    HP6 9463   5.542   0.527   8.889  1.8850  2.7175  0.4342
  379THY    HP7 9464   5.432   0.636   8.974  0.3929 -0.3829  0.4758
  379THY    CA3 9465   5.268   0.822   8.841 -0.5138  0.2824  0.1991
  379THY    HA3 9466   5.308   0.813   8.941 -1.2705 -0.8129  0.4212
  379THY    CA4 9467   5.152   0.894   8.818  0.1639  0.3048  0.1793
  379THY    HA4 9468   5.111   0.944   8.906  0.4171 -0.4989  0.7680
  379THY    CA5 9469   5.084   0.884   8.696  0.3663  0.8793 -0.0535
  379THY    CM1 9470   4.943   0.931   8.691 -0.0270  0.0870  0.4800
  379THY    HM1 9471   4.916   0.992   8.778 -0.3051  2.5333 -1.2462
  379THY    HM2 9472   4.909   0.985   8.603 -1.0437 -0.4180  0.5415
  379THY    HM3 9473   4.878   0.843   8.687 -1.3670  0.9623  1.8547
  379THY    CA6 9474   5.135   0.802   8.589 -0.5369 -0.3352 -0.0518
  379THY    HA6 9475   5.076   0.805   8.498  0.0765  2.2243 -0.4398
  380THY      O 9476   1.356   0.124   3.175 -0.5335 -0.6176  0.0179
  380THY     HO 9477   1.326   0.207   3.133  2.4607 -0.3962 -2.0383
  380THY    CA1 9478   1.296   0.111   3.293  0.3688 -0.3761  0.1721
  380THY    CA2 9479   1.283  -0.015   3.355 -0.3719 -0.0757 -0.5418
  380THY    CP1 9480   1.323  -0.139   3.280 -0.5219 -0.2909  0.1211
  380THY    HP1 9481   1.378  -0.103   3.193 -2.2527  2.8863  0.1813
  380THY    CP2 9482   1.420  -0.221   3.364 -0.1641 -0.3701 -0.4573
  380THY    HP2 9483   1.359  -0.272   3.440 -2.6211  0.3477 -1.8429
  380THY    HP3 9484   1.455  -0.302   3.299 -2.2264 -0.7589 -1.1753
  380THY    HP4 9485   1.501  -0.157   3.401  0.0499 -1.7302  1.6132
  380THY    CP3 9486   1.205  -0.230   3.228  0.1722  0.4543  0.4901
  380THY    HP5 9487   1.139  -0.265   3.308 -0.2500 -0.3098 -0.1739
  380THY    HP6 9488   1.144  -0.167   3.162  0.5619  1.0681  0.7058
  380THY    HP7 9489   1.249  -0.310   3.167 -0.6273  1.2545 -1.2009
  380THY    CA3 9490   1.217  -0.028   3.473 -0.0458 -0.2696 -0.4762
  380THY    HA3 9491   1.226  -0.117   3.534 -1.9323  0.1262  0.4958
  380THY    CA4 9492   1.145   0.088   3.522 -0.5611 -0.2545  0.3913
  380THY    HA4 9493   1.092   0.081   3.616 -0.2227  1.2166  0.7267
  380THY    CA5 9494   1.159   0.218   3.456 -0.3616  0.4768 -0.1746
  380THY    CM1 9495   1.090   0.337   3.517  0.0970  0.4244  0.3099
  380THY    HM1 9496   1.052   0.406   3.440 -3.0893 -1.5053 -0.0490
  380THY    HM2 9497   1.000   0.312   3.574 -1.5352 -0.2738 -2.3812
  380THY    HM3 9498   1.158   0.380   3.590 -0.4794 -1.0718  1.7956
  380THY    CA6 9499   1.242   0.231   3.343 -0.2328 -0.0575  0.0303
  380THY    HA6 9500   1.247   0.326   3.291 -1.8895 -1.2119 -2.4235
  381THY      O 9501   8.404   8.999   2.222  0.3251  0.3833  0.0089
  381THY     HO 9502   8.382   9.023   2.314  1.2756  0.4333  0.2378
  381THY    CA1 9503   8.538   9.014   2.207  0.4997  0.9413  0.0245
  381THY    CA2 9504   8.598   9.019   2.078  0.0915  0.0218  0.3077
  381THY    CP1 9505   8.510   9.024   1.955  0.5620 -0.0251  0.1114
  381THY    HP1 9506   8.413   8.976   1.974  0.4150  0.8064  1.5850
  381THY    CP2 9507   8.474   9.174   1.923 -0.8809  0.3444  0.4430
  381THY    HP2 9508   8.383   9.179   1.861  1.1943 -0.2133 -2.9416
  381THY    HP3 9509   8.453   9.231   2.014 -0.8890  3.8447 -1.5522
  381THY    HP4 9510   8.553   9.213   1.858 -1.9747  0.9282 -0.5697
  381THY    CP3 9511   8.565   8.937   1.836  0.6074  0.3725  0.3494
  381THY    HP5 9512   8.556   8.829   1.853 -4.0443  0.6155  0.6738
  381THY    HP6 9513   8.504   8.960   1.748  0.1402 -0.6548  0.3991
  381THY    HP7 9514   8.667   8.968   1.808  1.6025 -0.1521  3.1532
  381THY    CA3 9515   8.739   9.037   2.073  0.0215  0.3712  0.1051
  381THY    HA3 9516   8.790   9.066   1.982  1.9236  1.3634  1.4051
  381THY    CA4 9517   8.815   9.040   2.189  0.8603  0.3263 -0.2388
  381THY    HA4 9518   8.923   9.041   2.173  1.1324 -0.0919  1.3724
  381THY    CA5 9519   8.756   9.030   2.313 -0.5202  1.1888 -0.1966
  381THY    CM1 9520   8.846   9.014   2.436 -0.0607 -0.4562 -0.2769
  381THY    HM1 9521   8.939   8.961   2.414  1.0657  0.7000  1.4201
  381THY    HM2 9522   8.867   9.119   2.459  0.8736 -0.4480 -1.1417
  381THY    HM3 9523   8.805   8.985   2.534  0.6743  2.2861  0.9575
  381THY    CA6 9524   8.620   9.013   2.319 -0.4324 -0.0571  0.7086
  381THY    HA6 9525   8.575   9.010   2.417 -1.8830  0.4473  0.0884
  382THY      O 9526   3.205   0.525   7.640 -0.1591 -0.2413  0.7188
  382THY     HO 9527   3.163   0.438   7.646  0.9524 -0.8433  0.0961
  382THY    CA1 9528   3.100   0.612   7.664 -0.4810  0.1163 -0.2977
  382THY    CA2 9529   3.122   0.743   7.714 -0.2318  0.2005 -0.1598
  382THY    CP1 9530   3.268   0.782   7.752  0.2723  0.3337 -0.2125
  382THY    HP1 9531   3.339   0.704   7.723 -0.6480 -0.0839 -1.4713
  382THY    CP2 9532   3.315   0.903   7.666  0.1916 -0.1668 -0.3181
  382THY    HP2 9533   3.269   0.995   7.702 -3.5610 -0.3036 -4.0563
  382THY    HP3 9534   3.423   0.923   7.661 -0.2665  2.4936 -1.1182
  382THY    HP4 9535   3.279   0.877   7.566 -0.1414 -0.3888 -0.1398
  382THY    CP3 9536   3.287   0.828   7.895  0.2296 -0.1373 -0.2981
  382THY    HP5 9537   3.296   0.740   7.960 -0.2742 -0.2029 -0.3126
  382THY    HP6 9538   3.371   0.896   7.910  0.7858 -0.6821 -0.9070
  382THY    HP7 9539   3.206   0.889   7.938  0.1996 -0.1403 -0.3504
  382THY    CA3 9540   3.020   0.840   7.737 -0.0287  0.1840  0.1169
  382THY    HA3 9541   3.044   0.929   7.794  0.8847  1.0497 -1.5663
  382THY    CA4 9542   2.891   0.794   7.700 -0.5464 -0.2798  0.3270
  382THY    HA4 9543   2.807   0.860   7.719 -1.7483 -1.3620 -0.9351
  382THY    CA5 9544   2.863   0.663   7.654 -0.2445  0.2210  0.6288
  382THY    CM1 9545   2.724   0.610   7.632  0.0471  0.0378 -0.1658
  382THY    HM1 9546   2.699   0.531   7.703  4.0799 -1.3078  0.0336
  382THY    HM2 9547   2.649   0.689   7.638  0.5856  0.4936  0.6583
  382THY    HM3 9548   2.730   0.561   7.534  1.1926 -1.4762  0.6203
  382THY    CA6 9549   2.969   0.571   7.644 -0.1785 -0.0388 -0.2787
  382THY    HA6 9550   2.957   0.469   7.608  1.3955 -0.1109 -0.6940
  383THY      O 9551   6.714   1.828   1.101  0.1946 -0.8664  0.1063
  383THY     HO 9552   6.620   1.844   1.119  0.2869  3.6858 -1.9228
  383THY    CA1 9553   6.767   1.946   1.080 -0.6639 -0.4203  0.5302
  383THY    CA2 9554   6.887   1.995   1.136 -0.0031 -0.1473  0.2362
  383THY    CP1 9555   6.952   1.907   1.240  0.3022 -0.4910 -0.3491
  383THY    HP1 9556   6.935   1.800   1.225  2.7927 -0.8306 -1.1017
  383THY    CP2 9557   7.102   1.907   1.233  0.1885  0.0535  0.0745
  383THY    HP2 9558   7.129   1.851   1.143 -0.2561  0.7033 -0.4652
  383THY    HP3 9559   7.149   2.006   1.232  0.8961 -0.2345  1.5117
  383THY    HP4 9560   7.140   1.854   1.321 -1.1041  1.5414  1.6112
  383THY    CP3 9561   6.908   1.949   1.383 -0.2091 -0.1506  0.4417
  383THY    HP5 9562   6.937   1.879   1.463  2.9015  0.2432 -0.1907
  383THY    HP6 9563   6.963   2.040   1.411  0.4630  0.0703 -1.4623
  383THY    HP7 9564   6.800   1.961   1.377 -0.1203  0.3601 -0.2199
  383THY    CA3 9565   6.934   2.125   1.112 -0.8567 -0.5620  0.1979
  383THY    HA3 9566   7.017   2.170   1.165 -0.6616 -0.7756  0.0770
  383THY    CA4 9567   6.857   2.209   1.027  0.2423  0.9083  0.4084
  383THY    HA4 9568   6.891   2.309   1.001 -1.5461  1.6178  0.6828
  383THY    CA5 9569   6.742   2.165   0.972  0.1477  0.5104 -0.0541
  383THY    CM1 9570   6.658   2.258   0.888 -0.1770  0.2079  0.0716
  383THY    HM1 9571   6.566   2.206   0.860 -0.7306 -0.2434  2.5357
  383THY    HM2 9572   6.629   2.350   0.939 -1.4199 -0.6340  0.9210
  383THY    HM3 9573   6.712   2.278   0.794 -0.9700 -1.9171 -0.9088
  383THY    CA6 9574   6.695   2.030   0.996  0.2951 -0.2250  0.6104
  383THY    HA6 9575   6.603   1.994   0.951 -0.6688 -0.5205  2.6539
  384THY      O 9576   8.831   3.232   8.838  0.0178 -0.0561  0.9286
  384THY     HO 9577   8.766   3.304   8.837  0.3257  0.2425  1.7779
  384THY    CA1 9578   8.874   3.212   8.711  0.1857  0.3153 -0.6694
  384THY    CA2 9579   8.941   3.101   8.679  0.6893 -0.0867  0.1307
  384THY    CP1 9580   8.978   2.994   8.777 -0.3975 -0.0962  0.0919
  384THY    HP1 9581   8.983   3.042   8.876 -1.1031  0.3220 -0.0641
  384THY    CP2 9582   8.856   2.906   8.799 -0.5859 -0.0810 -0.1462
  384THY    HP2 9583   8.782   2.973   8.844  0.2363  0.5190  0.3515
  384THY    HP3 9584   8.815   2.875   8.703 -0.1434  1.3019 -0.8152
  384THY    HP4 9585   8.866   2.817   8.863 -0.4989  0.2101  0.2507
  384THY    CP3 9586   9.104   2.906   8.755 -0.5697  0.1510 -0.1901
  384THY    HP5 9587   9.121   2.843   8.843 -1.5550  0.7982  0.4808
  384THY    HP6 9588   9.083   2.847   8.664 -0.9041  0.1354 -0.1015
  384THY    HP7 9589   9.190   2.968   8.727 -0.7012  0.9589  1.1191
  384THY    CA3 9590   8.973   3.076   8.542  0.4510  0.4111 -0.6425
  384THY    HA3 9591   9.024   2.987   8.507 -1.0879 -1.2145  1.0766
  384THY    CA4 9592   8.946   3.174   8.447  0.0576  0.1221 -0.6015
  384THY    HA4 9593   8.991   3.156   8.350 -1.4024  0.5949 -1.4030
  384THY    CA5 9594   8.877   3.285   8.482  0.7070  0.2335 -0.1478
  384THY    CM1 9595   8.848   3.391   8.387  0.0235  0.7204 -0.2542
  384THY    HM1 9596   8.930   3.395   8.315 -0.7227  0.9558 -1.1100
  384THY    HM2 9597   8.756   3.373   8.330 -1.5318  0.6898  2.1241
  384THY    HM3 9598   8.829   3.486   8.440 -0.0540 -0.0002  1.0381
  384THY    CA6 9599   8.839   3.304   8.616  0.6085 -0.1487  0.6071
  384THY    HA6 9600   8.785   3.395   8.639 -2.0078 -1.2304 -0.7682
  385THY      O 9601   5.008   4.270   8.219  0.7392 -0.2283  0.2894
  385THY     HO 9602   5.031   4.247   8.311  1.6511  1.8282  0.6167
  385THY    CA1 9603   5.080   4.201   8.120 -0.0401 -0.8043 -0.3579
  385THY    CA2 9604   5.030   4.191   7.990  0.6919 -0.3566 -0.2013
  385THY    CP1 9605   4.888   4.236   7.956 -0.5563 -0.0970 -0.7705
  385THY    HP1 9606   4.833   4.204   8.045  0.7688  2.7551  1.2327
  385THY    CP2 9607   4.877   4.395   7.960 -0.4460  0.0995  0.1650
  385THY    HP2 9608   4.940   4.445   7.885 -0.4507  0.8251  0.6385
  385THY    HP3 9609   4.773   4.424   7.948 -0.1532  1.2203  0.2646
  385THY    HP4 9610   4.905   4.442   8.055  0.1386  0.0125  0.0430
  385THY    CP3 9611   4.835   4.187   7.829 -0.0558  0.2402  0.7708
  385THY    HP5 9612   4.731   4.222   7.827 -0.0968  0.2269  2.0941
  385THY    HP6 9613   4.892   4.231   7.746 -0.1615  0.5169  0.8442
  385THY    HP7 9614   4.819   4.079   7.828 -2.6255  0.5322 -0.6246
  385THY    CA3 9615   5.110   4.131   7.890 -0.2641  0.0285  1.0550
  385THY    HA3 9616   5.072   4.130   7.789  0.6618 -1.8260  0.6696
  385THY    CA4 9617   5.239   4.080   7.927  0.2647 -0.2249  0.6638
  385THY    HA4 9618   5.301   4.025   7.857 -0.0036 -0.1589  0.3702
  385THY    CA5 9619   5.289   4.104   8.055 -0.3608 -0.0923 -1.3227
  385THY    CM1 9620   5.431   4.058   8.095 -0.1041 -0.1675 -0.4366
  385THY    HM1 9621   5.441   4.030   8.200  1.7925  0.0555 -0.5371
  385THY    HM2 9622   5.447   3.964   8.041 -3.5446 -0.4840 -1.1422
  385THY    HM3 9623   5.506   4.134   8.070  2.5040 -1.6205  2.3156
  385THY    CA6 9624   5.213   4.164   8.155  0.1429 -0.4182  0.4759
  385THY    HA6 9625   5.253   4.178   8.255  1.3070  0.9649 -0.1513
  386THY      O 9626   8.516   1.460   0.910  0.2799  0.1651  0.1164
  386THY     HO 9627   8.590   1.441   0.968  1.4428  1.0711 -1.0070
  386THY    CA1 9628   8.408   1.378   0.931  0.4096  0.1980  0.1030
  386THY    CA2 9629   8.330   1.329   0.827 -0.2218  0.2610 -0.2366
  386THY    CP1 9630   8.369   1.361   0.680 -0.2338  0.0871 -0.4750
  386THY    HP1 9631   8.429   1.453   0.677 -0.4991  0.3679  1.4271
  386THY    CP2 9632   8.455   1.249   0.632 -0.0314  0.0449  0.8643
  386THY    HP2 9633   8.548   1.240   0.689  0.5632 -0.4828 -0.1459
  386THY    HP3 9634   8.398   1.155   0.629 -0.4394  0.3000 -2.1081
  386THY    HP4 9635   8.491   1.270   0.530  0.7671  2.2386  1.5530
  386THY    CP3 9636   8.245   1.371   0.589 -0.6838 -0.5179  0.0648
  386THY    HP5 9637   8.173   1.432   0.644  0.3187 -0.4681  1.3749
  386THY    HP6 9638   8.273   1.415   0.493 -3.9704  1.3636 -0.1604
  386THY    HP7 9639   8.209   1.267   0.581  2.2216 -1.6212  0.0520
  386THY    CA3 9640   8.219   1.250   0.858 -0.4658  0.6778  0.1815
  386THY    HA3 9641   8.156   1.206   0.782 -0.6607  2.5668 -0.7957
  386THY    CA4 9642   8.193   1.214   0.994 -0.8983  0.1752  0.7559
  386THY    HA4 9643   8.110   1.147   1.012  0.5956 -2.2162 -0.7042
  386THY    CA5 9644   8.275   1.263   1.091 -0.2322 -0.2815  0.1091
  386THY    CM1 9645   8.240   1.227   1.229 -0.3953 -0.5229 -0.0155
  386THY    HM1 9646   8.285   1.298   1.298  0.9133  0.3754 -1.6982
  386THY    HM2 9647   8.132   1.237   1.247 -0.5246  0.7890 -1.3333
  386THY    HM3 9648   8.273   1.128   1.263  0.5798 -0.3264 -0.3748
  386THY    CA6 9649   8.386   1.337   1.062  0.2380 -0.0721 -0.2683
  386THY    HA6 9650   8.450   1.374   1.142 -1.8084  1.9855  0.5445
  387THY      O 9651   5.568   9.737   0.041  0.3865 -0.7373  0.3980
  387THY     HO 9652   5.538   9.667  -0.019 -0.8754  0.3799 -0.3021
  387THY    CA1 9653   5.468   9.822   0.066 -0.8336 -0.2912  0.1005
  387THY    CA2 9654   5.446   9.864   0.196  0.6913 -0.1724 -0.5415
  387THY    CP1 9655   5.551   9.839   0.303  0.8938 -0.1480 -0.0881
  387THY    HP1 9656   5.639   9.821   0.240 -0.8799 -0.8902 -2.4678
  387THY    CP2 9657   5.575   9.966   0.391  0.2010  0.1944 -0.7999
  387THY    HP2 9658   5.671   9.955   0.442 -1.2531  0.5546  2.2377
  387THY    HP3 9659   5.582  10.054   0.325 -2.1486  1.6723  0.7348
  387THY    HP4 9660   5.490   9.972   0.461 -0.2404 -1.6624 -1.1401
  387THY    CP3 9661   5.520   9.725   0.404 -0.2475  0.8834 -0.1751
  387THY    HP5 9662   5.446   9.757   0.478 -1.8630 -0.5964 -1.0653
  387THY    HP6 9663   5.492   9.631   0.355 -0.7014 -0.1966  2.0357
  387THY    HP7 9664   5.617   9.703   0.451 -1.4321  1.4468  2.7679
  387THY    CA3 9665   5.330   9.933   0.231  0.2810  0.1414 -0.0326
  387THY    HA3 9666   5.299   9.962   0.331 -0.7564 -2.0060  0.3276
  387THY    CA4 9667   5.232   9.956   0.123 -0.2300  0.8058 -0.0954
  387THY    HA4 9668   5.132   9.995   0.140  0.0356  1.0860  0.8710
  387THY    CA5 9669   5.261   9.917  -0.007  0.8882 -0.1048 -0.3207
  387THY    CM1 9670   5.159   9.933  -0.114 -0.4024  0.6368  0.3124
  387THY    HM1 9671   5.082  10.008  -0.093 -0.8843  1.2961 -3.0983
  387THY    HM2 9672   5.223   9.957  -0.200  2.0869  1.6141  2.2958
  387THY    HM3 9673   5.113   9.838  -0.146  1.7042  0.4039 -2.4373
  387THY    CA6 9674   5.383   9.854  -0.038  0.3846 -0.2308 -0.5077
  387THY    HA6 9675   5.398   9.821  -0.141 -1.9816 -0.6362 -0.7743
  388THY      O 9676   6.132   0.054   7.182 -0.3147  0.4188 -0.1608
  388THY     HO 9677   6.216   0.103   7.177 -0.7169  1.1206 -0.1444
  388THY    CA1 9678   6.049   0.148   7.217 -0.0516  0.5752 -0.4234
  388THY    CA2 9679   5.936   0.116   7.291 -0.3140  0.5549 -0.2626
  388THY    CP1 9680   5.910  -0.023   7.346  0.2023  0.7032  0.1308
  388THY    HP1 9681   5.943  -0.105   7.281 -3.3162 -2.0742  1.4981
  388THY    CP2 9682   6.003  -0.054   7.469 -0.0515  0.0623  0.7570
  388THY    HP2 9683   5.979  -0.147   7.522  0.9008 -2.0385 -2.1831
  388THY    HP3 9684   6.106  -0.067   7.432 -0.8873  0.7507 -2.1232
  388THY    HP4 9685   6.005   0.028   7.541 -1.7544  0.1215  0.7803
  388THY    CP3 9686   5.776  -0.042   7.397 -0.6108 -0.6355  0.0192
  388THY    HP5 9687   5.699  -0.021   7.322 -1.0568 -0.2840  0.5597
  388THY    HP6 9688   5.757  -0.147   7.425 -1.1257 -1.5480 -3.2881
  388THY    HP7 9689   5.754   0.007   7.493  0.3254  0.9595 -0.5606
  388THY    CA3 9690   5.853   0.228   7.326  0.5612 -0.0556  0.0036
  388THY    HA3 9691   5.756   0.220   7.375 -0.0449 -0.6533 -1.2530
  388THY    CA4 9692   5.891   0.355   7.289 -0.7881  0.2676  0.0096
  388THY    HA4 9693   5.822   0.436   7.312  1.7225  1.7960  3.0559
  388THY    CA5 9694   6.001   0.383   7.219  0.0769 -0.4996  0.4228
  388THY    CM1 9695   6.042   0.529   7.177 -0.0830 -0.2668  0.5301
  388THY    HM1 9696   6.140   0.559   7.216 -0.1772  0.6329  0.0781
  388THY    HM2 9697   6.044   0.531   7.068  0.1679  0.9664  0.5488
  388THY    HM3 9698   5.968   0.602   7.210 -1.7726 -1.2649 -0.8760
  388THY    CA6 9699   6.082   0.277   7.180 -0.0648 -0.8532 -0.1648
  388THY    HA6 9700   6.171   0.295   7.121 -0.7697 -0.5607 -1.1653
  389THY      O 9701   5.809   5.511   0.012 -0.6722  0.1111  0.1894
  389THY     HO 9702   5.786   5.606   0.011  0.6014  0.5162 -3.1183
  389THY    CA1 9703   5.829   5.473  -0.117  0.0507  0.1627  0.7873
  389THY    CA2 9704   5.857   5.338  -0.143 -0.0901 -0.2795 -0.5670
  389THY    CP1 9705   5.880   5.239  -0.034  0.0141  0.7325 -0.8048
  389THY    HP1 9706   5.859   5.286   0.063  1.0682  1.3442 -0.8582
  389THY    CP2 9707   5.784   5.116  -0.041 -0.3221 -1.0659 -0.1690
  389THY    HP2 9708   5.678   5.145  -0.044  0.5288  2.5059 -0.8518
  389THY    HP3 9709   5.801   5.059  -0.133 -0.1981 -1.5772  0.1712
  389THY    HP4 9710   5.803   5.046   0.041 -1.6684 -2.2991 -0.8565
  389THY    CP3 9711   6.026   5.182  -0.021 -0.0986 -0.6345  0.1219
  389THY    HP5 9712   6.082   5.258   0.034  1.3617 -1.8517  0.3556
  389THY    HP6 9713   6.039   5.089   0.036  0.5696 -0.4583  0.2667
  389THY    HP7 9714   6.071   5.160  -0.118 -0.4961 -2.6941  0.3432
  389THY    CA3 9715   5.877   5.295  -0.272  0.1454 -0.2761  0.4617
  389THY    HA3 9716   5.901   5.191  -0.293 -1.7084 -0.4723 -0.8885
  389THY    CA4 9717   5.846   5.385  -0.376 -0.0756 -0.7407  0.6708
  389THY    HA4 9718   5.874   5.371  -0.480 -2.7289  3.3959 -0.8918
  389THY    CA5 9719   5.810   5.515  -0.349  1.0223  0.3017 -0.5113
  389THY    CM1 9720   5.799   5.606  -0.470 -0.2689 -0.3092 -0.1445
  389THY    HM1 9721   5.835   5.706  -0.442  1.3151 -0.5094 -1.3508
  389THY    HM2 9722   5.869   5.579  -0.550 -0.4392  2.3899 -1.3078
  389THY    HM3 9723   5.696   5.599  -0.507  0.0805 -1.9630 -0.9104
  389THY    CA6 9724   5.797   5.562  -0.220 -0.8216 -0.7398 -0.6457
  389THY    HA6 9725   5.780   5.667  -0.200 -0.8706 -0.8906  0.1512
  390THY      O 9726   5.180   1.848   0.506  0.4532  0.0946  0.2802
  390THY     HO 9727   5.224   1.871   0.422  0.8560  0.5896  0.6209
  390THY    CA1 9728   5.092   1.749   0.479 -0.2387 -0.7115  0.7907
  390THY    CA2 9729   5.041   1.671   0.574  0.5915  0.4305 -0.5043
  390THY    CP1 9730   5.080   1.687   0.722  0.5176  0.2968  0.0435
  390THY    HP1 9731   5.176   1.740   0.724  1.3106 -1.1051  0.4781
  390THY    CP2 9732   4.980   1.755   0.814  0.1932  0.4904 -0.0920
  390THY    HP2 9733   4.951   1.854   0.776 -1.6865 -0.4443 -1.2801
  390THY    HP3 9734   4.881   1.709   0.829  0.9826 -0.7639  1.5019
  390THY    HP4 9735   5.026   1.767   0.912  1.8694 -1.4887 -0.5552
  390THY    CP3 9736   5.106   1.552   0.773 -0.2821  0.3573 -0.7962
  390THY    HP5 9737   5.149   1.538   0.873 -3.8563 -1.7159  0.6157
  390THY    HP6 9738   5.010   1.499   0.772 -1.2857  1.7637  2.8634
  390THY    HP7 9739   5.177   1.493   0.714 -0.9767 -4.1688  2.3711
  390THY    CA3 9740   4.935   1.582   0.540 -0.3370  0.5221  0.4491
  390THY    HA3 9741   4.886   1.522   0.616 -1.5443 -1.2449 -1.6265
  390THY    CA4 9742   4.905   1.565   0.404 -0.5701  0.6019 -0.7146
  390THY    HA4 9743   4.833   1.488   0.377 -1.1570  0.3181  1.4843
  390THY    CA5 9744   4.961   1.647   0.310 -0.2109  0.2786  0.3829
  390THY    CM1 9745   4.915   1.639   0.167 -0.4204  0.6361 -0.1004
  390THY    HM1 9746   4.893   1.540   0.126 -0.1348  0.5976 -0.1629
  390THY    HM2 9747   4.828   1.704   0.151 -0.5501 -0.0863 -3.0023
  390THY    HM3 9748   4.996   1.684   0.109 -0.3099  2.0959  1.1412
  390THY    CA6 9749   5.054   1.741   0.342  0.1609 -0.0762 -0.0917
  390THY    HA6 9750   5.100   1.805   0.267 -2.7840  2.3992  0.0059
  391THY      O 9751   7.283   5.821   2.089  0.3073 -0.2377  0.3210
  391THY     HO 9752   7.362   5.819   2.033  1.2519  0.3688  1.5834
  391THY    CA1 9753   7.224   5.942   2.096  0.3314 -0.0322 -0.6127
  391THY    CA2 9754   7.190   6.004   2.217  0.2896  0.2267 -0.7288
  391THY    CP1 9755   7.198   5.935   2.346  0.1485  0.2993  0.1667
  391THY    HP1 9756   7.224   5.830   2.328  2.0064  0.7032  0.3503
  391THY    CP2 9757   7.301   6.002   2.448  1.0735  0.2825  0.7090
  391THY    HP2 9758   7.299   6.111   2.440  3.3266  0.3388  0.2011
  391THY    HP3 9759   7.286   5.964   2.550 -0.1892 -0.3931  0.2917
  391THY    HP4 9760   7.402   5.972   2.417  0.7470 -1.8015  1.4960
  391THY    CP3 9761   7.061   5.935   2.417  0.3688 -0.0159  0.0221
  391THY    HP5 9762   7.022   6.033   2.446  0.1247 -0.3805  0.9702
  391THY    HP6 9763   6.984   5.878   2.364  1.1667 -1.3526  0.2428
  391THY    HP7 9764   7.067   5.874   2.509 -3.1428 -0.9551 -0.2360
  391THY    CA3 9765   7.149   6.138   2.213  0.3421  0.0303 -0.2411
  391THY    HA3 9766   7.125   6.194   2.303 -1.8707  0.8733 -1.2654
  391THY    CA4 9767   7.118   6.210   2.095 -0.4868  0.3682  0.0999
  391THY    HA4 9768   7.093   6.315   2.088  2.0370  1.0011 -0.2337
  391THY    CA5 9769   7.138   6.140   1.975 -0.1563 -0.1055  0.0996
  391THY    CM1 9770   7.126   6.207   1.847  0.1947 -0.3595 -0.6762
  391THY    HM1 9771   7.154   6.311   1.865 -1.5140 -0.2669  1.9793
  391THY    HM2 9772   7.185   6.163   1.766 -1.6671  1.3997 -3.1529
  391THY    HM3 9773   7.021   6.205   1.815  0.1304  0.8678 -0.5950
  391THY    CA6 9774   7.188   6.006   1.977 -0.6255  0.4455  0.2429
  391THY    HA6 9775   7.199   5.946   1.887 -1.8396 -2.2805  1.7743
  392THY      O 9776   6.233   3.546   7.923 -0.0041  0.1035 -0.2352
  392THY     HO 9777   6.207   3.640   7.932  0.7081  0.4041 -1.1704
  392THY    CA1 9778   6.317   3.514   8.026  0.5279  0.0934  0.0776
  392THY    CA2 9779   6.373   3.382   8.027 -0.4094 -0.1436  0.0294
  392THY    CP1 9780   6.331   3.281   7.925  0.3266  0.0994  0.1262
  392THY    HP1 9781   6.273   3.320   7.841  1.0361  1.3175  0.1809
  392THY    CP2 9782   6.455   3.214   7.860  0.0620 -0.0000  0.7252
  392THY    HP2 9783   6.509   3.166   7.943 -0.5062  1.2462  1.8420
  392THY    HP3 9784   6.432   3.131   7.791  0.8199 -0.2172  0.7244
  392THY    HP4 9785   6.527   3.283   7.816  0.3759 -1.0445 -0.4814
  392THY    CP3 9786   6.249   3.167   7.989 -0.6913  0.4206 -0.3031
  392THY    HP5 9787   6.216   3.099   7.910 -0.8631 -0.1801  0.2741
  392THY    HP6 9788   6.314   3.115   8.060 -1.0218 -0.7805 -0.8678
  392THY    HP7 9789   6.157   3.211   8.030 -0.4467 -0.0645  0.8037
  392THY    CA3 9790   6.455   3.352   8.135 -0.2639 -0.0001  0.2364
  392THY    HA3 9791   6.508   3.257   8.137 -0.5392 -0.1480  0.8121
  392THY    CA4 9792   6.474   3.447   8.234 -0.1529  0.0144 -0.0507
  392THY    HA4 9793   6.534   3.423   8.322  1.7397  1.5506 -0.8509
  392THY    CA5 9794   6.406   3.570   8.235  0.2652 -0.0658 -0.3988
  392THY    CM1 9795   6.427   3.681   8.340 -0.0364  0.0489 -0.2408
  392THY    HM1 9796   6.476   3.631   8.423 -0.2222 -1.3957 -0.9664
  392THY    HM2 9797   6.486   3.763   8.298  1.5510 -1.3200 -0.7985
  392THY    HM3 9798   6.336   3.723   8.385 -0.8362 -0.5790 -1.2125
  392THY    CA6 9799   6.330   3.606   8.127  0.5708  0.0299  0.0877
  392THY    HA6 9800   6.271   3.697   8.133  0.1219 -0.3498  2.2666
  393THY      O 9801   2.920   7.847   2.043 -0.2767 -0.5226 -0.1736
  393THY     HO 9802   2.898   7.778   2.109 -3.7698  0.1765 -0.3950
  393THY    CA1 9803   2.836   7.833   1.937 -0.2832  0.3638  0.0810
  393THY    CA2 9804   2.799   7.949   1.855  0.1486  0.7062  0.2486
  393THY    CP1 9805   2.842   8.094   1.883 -0.2417 -0.2994  0.4124
  393THY    HP1 9806   2.920   8.099   1.959 -0.8009  0.6413  0.9424
  393THY    CP2 9807   2.904   8.154   1.751 -0.3054  0.6368 -0.1303
  393THY    HP2 9808   2.978   8.078   1.725  0.8687  1.2827  1.2038
  393THY    HP3 9809   2.840   8.167   1.663  2.2891 -0.6504 -2.3353
  393THY    HP4 9810   2.963   8.247   1.756  0.2159  0.3341 -0.5128
  393THY    CP3 9811   2.729   8.169   1.949  0.0763 -0.1012  0.0230
  393THY    HP5 9812   2.770   8.258   1.999  1.2523  0.8711 -2.4981
  393THY    HP6 9813   2.650   8.204   1.882  1.6062  1.3124 -1.1271
  393THY    HP7 9814   2.702   8.092   2.023  4.8283 -1.8704  0.3269
  393THY    CA3 9815   2.708   7.924   1.741 -0.5264  0.4398 -0.1495
  393THY    HA3 9816   2.688   8.009   1.677  0.0417  0.7192  0.0310
  393THY    CA4 9817   2.651   7.794   1.724  0.1497  0.3200 -0.3726
  393THY    HA4 9818   2.587   7.773   1.639  0.8385 -2.0260 -0.3812
  393THY    CA5 9819   2.699   7.686   1.806 -0.2847 -0.6957  0.0209
  393THY    CM1 9820   2.653   7.542   1.806  0.3859 -0.3312  0.2297
  393THY    HM1 9821   2.588   7.528   1.894  0.5845  0.9169  0.5951
  393THY    HM2 9822   2.586   7.511   1.725 -1.1869  1.8025  0.6040
  393THY    HM3 9823   2.730   7.465   1.810  1.0824  0.3140 -0.4682
  393THY    CA6 9824   2.780   7.710   1.919  0.8335  0.0891 -0.1347
  393THY    HA6 9825   2.817   7.623   1.971  1.3181 -0.5284 -1.4583
  394THY      O 9826   7.577   4.646   6.687 -0.5361 -0.0020 -0.6357
  394THY     HO 9827   7.619   4.561   6.666  0.9606  0.6115 -0.2356
  394THY    CA1 9828   7.451   4.639   6.644  0.7727 -0.2336 -0.4916
  394THY    CA2 9829   7.376   4.754   6.599  0.7195 -0.8239 -0.0841
  394THY    CP1 9830   7.440   4.889   6.591  0.1084 -0.5525  0.0383
  394THY    HP1 9831   7.544   4.884   6.626  0.9197 -0.9759 -2.2598
  394THY    CP2 9832   7.450   4.930   6.444  0.0210 -0.3692  0.0545
  394THY    HP2 9833   7.487   4.848   6.383 -0.3517 -0.5875  0.1232
  394THY    HP3 9834   7.356   4.966   6.401  0.8221  2.0364  0.1426
  394THY    HP4 9835   7.516   5.018   6.442 -1.4112  0.7336 -1.4412
  394THY    CP3 9836   7.372   4.999   6.673  0.3647  0.6418 -0.2382
  394THY    HP5 9837   7.273   5.014   6.629  1.0233  2.3001 -1.2858
  394THY    HP6 9838   7.386   4.976   6.779  1.0919  1.6566 -0.0914
  394THY    HP7 9839   7.427   5.094   6.662  0.8776  0.7208  2.3962
  394THY    CA3 9840   7.237   4.729   6.573 -0.5118 -0.0506  0.2207
  394THY    HA3 9841   7.164   4.807   6.554  1.2110  1.3168 -1.0635
  394THY    CA4 9842   7.186   4.599   6.578  0.2181  0.0876 -0.0401
  394THY    HA4 9843   7.079   4.580   6.572  0.4461 -2.4302  2.1758
  394THY    CA5 9844   7.270   4.488   6.604 -0.1273 -0.7554 -0.0038
  394THY    CM1 9845   7.201   4.354   6.608 -0.1880  0.1595  0.2618
  394THY    HM1 9846   7.270   4.268   6.605 -0.6762 -0.2174 -1.9340
  394THY    HM2 9847   7.143   4.347   6.700  0.4143  3.3161  1.0151
  394THY    HM3 9848   7.133   4.329   6.526 -1.0008 -0.3921  1.0854
  394THY    CA6 9849   7.397   4.506   6.646 -0.9778  0.4425 -1.0702
  394THY    HA6 9850   7.459   4.422   6.675 -0.0353  2.0083  1.8844
  395THY      O 9851   3.401   6.749   4.035 -0.3412 -0.3910  0.2456
  395THY     HO 9852   3.359   6.786   3.956 -1.8152 -1.1912  0.6394
  395THY    CA1 9853   3.329   6.812   4.136  0.2954  1.3829 -0.2657
  395THY    CA2 9854   3.343   6.765   4.265  0.1142 -0.1996  0.3142
  395THY    CP1 9855   3.442   6.656   4.294 -0.5275 -0.0118 -0.0195
  395THY    HP1 9856   3.528   6.680   4.231 -1.4573 -1.3023 -1.8649
  395THY    CP2 9857   3.495   6.665   4.441 -0.1461  0.3127 -0.2986
  395THY    HP2 9858   3.519   6.766   4.476  0.3248 -0.4413  1.7087
  395THY    HP3 9859   3.424   6.622   4.513 -0.0523 -0.7396 -0.8139
  395THY    HP4 9860   3.587   6.608   4.458 -1.3229 -1.4795  0.4361
  395THY    CP3 9861   3.388   6.509   4.270  0.1836 -0.2225 -0.0082
  395THY    HP5 9862   3.442   6.427   4.318 -0.1724 -0.3058  0.2573
  395THY    HP6 9863   3.287   6.499   4.312 -0.0266  0.8374 -0.2371
  395THY    HP7 9864   3.381   6.484   4.164 -0.4109 -1.5003  0.3070
  395THY    CA3 9865   3.268   6.838   4.369 -0.1397  0.8702  0.4395
  395THY    HA3 9866   3.277   6.811   4.473  0.3254 -0.7678 -0.0083
  395THY    CA4 9867   3.167   6.928   4.325  0.1483 -0.0001 -0.2552
  395THY    HA4 9868   3.089   6.969   4.388 -0.8384  0.8405 -1.9805
  395THY    CA5 9869   3.156   6.960   4.186  0.9313 -0.6339 -0.2492
  395THY    CM1 9870   3.066   7.073   4.128 -0.3269 -0.2571  0.0322
  395THY    HM1 9871   3.095   7.172   4.164 -0.5783  0.5493 -1.8658
  395THY    HM2 9872   3.082   7.092   4.021  2.7576  2.8531  0.8572
  395THY    HM3 9873   2.963   7.042   4.147 -0.9544  1.5778 -0.1579
  395THY    CA6 9874   3.230   6.897   4.095  0.6618 -0.4820 -0.3126
  395THY    HA6 9875   3.210   6.928   3.992 -1.5573  1.9703  0.7200
  396THY      O 9876   1.704   0.114   2.120  0.2745 -0.4025  0.0160
  396THY     HO 9877   1.665   0.202   2.135  0.7417  0.0866 -1.4831
  396THY    CA1 9878   1.654   0.038   2.225 -0.5472 -0.5608 -0.3781
  396THY    CA2 9879   1.686  -0.095   2.260 -0.7486 -0.1200  0.2860
  396THY    CP1 9880   1.795  -0.158   2.173 -0.0503 -0.2163  0.3468
  396THY    HP1 9881   1.837  -0.086   2.102 -1.9579  1.1232  0.5107
  396THY    CP2 9882   1.909  -0.222   2.259  0.0392  0.2229 -0.1506
  396THY    HP2 9883   1.973  -0.290   2.203  0.7668  2.0734 -1.6632
  396THY    HP3 9884   1.984  -0.150   2.295  1.0315  0.0551 -1.7889
  396THY    HP4 9885   1.882  -0.276   2.351  2.0337  0.4849  0.6311
  396THY    CP3 9886   1.724  -0.255   2.085 -0.2838 -0.4198 -0.5672
  396THY    HP5 9887   1.801  -0.304   2.025  0.1920  0.6890 -0.8795
  396THY    HP6 9888   1.667  -0.337   2.131 -0.7014  0.3554  0.3360
  396THY    HP7 9889   1.658  -0.192   2.024 -0.3536  1.6304  1.4578
  396THY    CA3 9890   1.622  -0.158   2.363  0.0854  0.1630  0.1608
  396THY    HA3 9891   1.649  -0.262   2.381  0.2158 -0.0797 -1.3375
  396THY    CA4 9892   1.522  -0.092   2.442 -0.2041 -0.4337 -0.6700
  396THY    HA4 9893   1.467  -0.135   2.525 -0.2986 -0.0448 -0.5267
  396THY    CA5 9894   1.500   0.040   2.414  0.8786 -0.0392  0.4654
  396THY    CM1 9895   1.384   0.115   2.488 -0.2525 -0.0211  0.6530
  396THY    HM1 9896   1.362   0.055   2.577  2.0377 -3.0903 -0.6861
  396THY    HM2 9897   1.404   0.220   2.510  3.1040 -0.3881 -0.1803
  396THY    HM3 9898   1.294   0.109   2.425  1.5491  1.2405 -2.2591
  396THY    CA6 9899   1.571   0.105   2.311  0.3126 -0.3172 -0.4093
  396THY    HA6 9900   1.542   0.208   2.293  1.0509  0.0153  0.2757
  397THY      O 9901   8.290   4.576   8.921  0.1548 -0.3875 -0.1144
  397THY     HO 9902   8.369   4.630   8.900 -0.0828  0.4922  1.1265
  397THY    CA1 9903   8.210   4.641   9.003  0.2062 -0.3723 -0.2843
  397THY    CA2 9904   8.079   4.602   9.043  0.1798  0.5408 -0.1505
  397THY    CP1 9905   8.026   4.468   8.992 -0.4285  0.1915 -0.3421
  397THY    HP1 9906   8.101   4.402   8.947  0.3215  0.7824  0.0254
  397THY    CP2 9907   7.979   4.377   9.106  0.2254  0.5206 -0.4384
  397THY    HP2 9908   7.879   4.406   9.141 -0.0772 -0.2602 -0.6114
  397THY    HP3 9909   7.968   4.272   9.075 -0.2642  0.0113  1.3587
  397THY    HP4 9910   8.057   4.389   9.181  1.2563  1.3598 -1.6090
  397THY    CP3 9911   7.915   4.487   8.899 -0.0042  1.1918  0.3156
  397THY    HP5 9912   7.944   4.543   8.810 -1.9335  0.7009 -0.6570
  397THY    HP6 9913   7.875   4.393   8.860 -0.5740  1.6572 -0.2232
  397THY    HP7 9914   7.832   4.532   8.954 -1.4947  0.1208 -0.9884
  397THY    CA3 9915   8.000   4.681   9.131  0.9127 -0.1081  0.5089
  397THY    HA3 9916   7.896   4.654   9.146  1.0963 -0.3494  1.4275
  397THY    CA4 9917   8.061   4.789   9.195 -0.2709 -0.2580  0.1033
  397THY    HA4 9918   8.009   4.851   9.268 -0.2550  1.7913 -1.5465
  397THY    CA5 9919   8.193   4.827   9.159 -0.2378 -0.3784  0.2367
  397THY    CM1 9920   8.261   4.937   9.227 -0.0031 -0.5603  0.0208
  397THY    HM1 9921   8.249   4.935   9.336 -1.0483 -2.5205 -0.0846
  397THY    HM2 9922   8.370   4.921   9.226  0.0091 -0.4948  0.1731
  397THY    HM3 9923   8.224   5.031   9.186 -2.4408 -2.0644 -1.4659
  397THY    CA6 9924   8.260   4.749   9.064  0.0090 -0.2932  0.2099
  397THY    HA6 9925   8.357   4.789   9.034  0.1803  0.3202  1.4823
  398THY      O 9926   8.190   5.118   4.547 -0.2293 -0.1562  0.1707
  398THY     HO 9927   8.283   5.096   4.564 -0.2307 -0.5813 -0.3310
  398THY    CA1 9928   8.149   5.036   4.452 -0.1797  0.2399 -0.2354
  398THY    CA2 9929   8.031   5.061   4.381  0.2693 -0.5175  0.1612
  398THY    CP1 9930   7.946   5.180   4.411  0.0512  0.1751  0.0705
  398THY    HP1 9931   7.976   5.228   4.505  1.9389 -1.5072  0.4015
  398THY    CP2 9932   7.952   5.302   4.310 -0.2188  0.1535  0.3216
  398THY    HP2 9933   7.923   5.267   4.211 -2.1842  0.2322  0.8212
  398THY    HP3 9934   7.883   5.381   4.343  0.3217  0.4233  0.8208
  398THY    HP4 9935   8.045   5.360   4.306  0.1001 -0.4372 -1.9226
  398THY    CP3 9936   7.795   5.140   4.423  0.2297 -0.9907 -0.8325
  398THY    HP5 9937   7.731   5.221   4.460  2.9046  1.7584 -1.8565
  398THY    HP6 9938   7.758   5.119   4.322  0.7025 -0.8305 -1.0429
  398THY    HP7 9939   7.789   5.061   4.499  2.6479  0.2496  0.8179
  398THY    CA3 9940   7.997   4.977   4.275  0.9597 -0.4768  0.3952
  398THY    HA3 9941   7.911   5.002   4.212 -0.3946 -0.8221  2.0304
  398THY    CA4 9942   8.070   4.867   4.244 -0.7270  0.3071  0.2161
  398THY    HA4 9943   8.030   4.795   4.173 -0.2033  0.3606 -0.1428
  398THY    CA5 9944   8.192   4.840   4.313  0.2592 -0.3706 -0.0734
  398THY    CM1 9945   8.273   4.721   4.267  0.2891  0.6530  0.4896
  398THY    HM1 9946   8.363   4.738   4.207  0.0017  0.3107 -0.0463
  398THY    HM2 9947   8.299   4.663   4.356  0.8552  0.1781  0.0238
  398THY    HM3 9948   8.212   4.651   4.209 -0.2238  1.9158 -0.5482
  398THY    CA6 9949   8.229   4.926   4.421  0.6781  0.8861  0.1421
  398THY    HA6 9950   8.322   4.913   4.476 -0.3557 -1.1094  1.5370
  399THY      O 9951   5.448   9.852   4.999 -0.2132  0.1727 -0.5634
  399THY     HO 9952   5.380   9.880   4.935 -1.5200  0.7936  1.0087
  399THY    CA1 9953   5.541   9.792   4.934  0.0560 -0.0099  0.6501
  399THY    CA2 9954   5.672   9.830   4.945  0.0647  0.9201 -0.2638
  399THY    CP1 9955   5.704   9.948   5.025  0.1831  0.0811 -0.9981
  399THY    HP1 9956   5.639   9.948   5.114 -1.4216  0.3451 -2.1276
  399THY    CP2 9957   5.853   9.961   5.065 -0.3820  0.3937 -0.4037
  399THY    HP2 9958   5.863  10.035   5.145  1.6706  0.1486 -0.3806
  399THY    HP3 9959   5.877   9.864   5.111  1.7418  0.7980 -0.5725
  399THY    HP4 9960   5.929   9.993   4.994  2.4957 -0.1235  2.2384
  399THY    CP3 9961   5.670  10.082   4.944 -0.1230 -0.1839  0.0880
  399THY    HP5 9962   5.667  10.165   5.015 -4.5541  1.9970 -2.2141
  399THY    HP6 9963   5.739  10.102   4.861  0.7652 -0.3285  0.7818
  399THY    HP7 9964   5.574  10.084   4.891  0.5347  0.7244 -1.1401
  399THY    CA3 9965   5.768   9.749   4.885 -0.2588  0.3716 -0.4577
  399THY    HA3 9966   5.872   9.779   4.897 -0.6733  2.0892 -0.8619
  399THY    CA4 9967   5.726   9.632   4.819  0.5506  0.0707  0.2586
  399THY    HA4 9968   5.803   9.567   4.778  0.8768  1.1035 -0.8145
  399THY    CA5 9969   5.585   9.598   4.806  0.2753  0.2342  0.0169
  399THY    CM1 9970   5.546   9.476   4.732 -0.1575  0.5247 -0.3728
  399THY    HM1 9971   5.453   9.427   4.765  0.3340 -2.6924 -3.1421
  399THY    HM2 9972   5.546   9.499   4.625  0.4755  0.7468 -0.3239
  399THY    HM3 9973   5.612   9.389   4.743  0.1904  1.0123  1.6375
  399THY    CA6 9974   5.492   9.677   4.871  0.3596 -1.2619 -0.0794
  399THY    HA6 9975   5.385   9.659   4.871 -0.4588  2.6187  1.5004
  400THY      O 9976   0.510   5.828   1.035  0.3378  0.1161 -0.0634
  400THY     HO 9977   0.551   5.793   0.954 -1.7674 -0.1215 -1.1005
  400THY    CA1 9978   0.605   5.863   1.128  0.8177 -0.1256 -0.2699
  400THY    CA2 9979   0.577   5.852   1.272 -0.4122 -0.0399  1.0063
  400THY    CP1 9980   0.436   5.800   1.304  0.4477 -0.6694  0.0167
  400THY    HP1 9981   0.378   5.768   1.216  0.9677 -0.8815 -0.2512
  400THY    CP2 9982   0.433   5.679   1.390  0.0706  0.5803 -0.5077
  400THY    HP2 9983   0.464   5.707   1.491  0.4159  0.5652 -0.6055
  400THY    HP3 9984   0.331   5.640   1.398 -0.0331  0.2378 -2.7650
  400THY    HP4 9985   0.495   5.599   1.348 -0.8296 -0.3955 -0.0244
  400THY    CP3 9986   0.375   5.917   1.369  0.1644 -0.1090 -1.3948
  400THY    HP5 9987   0.375   5.996   1.293  0.5230  1.9461  0.6343
  400THY    HP6 9988   0.273   5.891   1.401  0.3173  0.8259 -0.0566
  400THY    HP7 9989   0.433   5.949   1.456  0.7740  0.8360 -2.1306
  400THY    CA3 9990   0.679   5.864   1.364  0.1830 -0.1256 -0.1259
  400THY    HA3 9991   0.673   5.851   1.472  1.3348  0.7390  0.0625
  400THY    CA4 9992   0.807   5.903   1.318  0.0363 -0.7508 -0.6724
  400THY    HA4 9993   0.886   5.912   1.392  0.2257  1.3199 -1.0745
  400THY    CA5 9994   0.833   5.915   1.176 -0.0126 -0.3325 -0.6684
  400THY    CM1 9995   0.971   5.955   1.144  0.4069  0.4210  1.0168
  400THY    HM1 9996   0.995   6.051   1.191 -0.4046  2.2618 -1.9993
  400THY    HM2 9997   1.043   5.874   1.159 -1.1699 -1.4998 -1.1212
  400THY    HM3 9998   0.974   5.966   1.035 -1.4386 -0.4075  0.8302
  400THY    CA6 9999   0.732   5.886   1.082 -0.0584  0.2739 -0.5894
  400THY    HA610000   0.751   5.885   0.976 -0.8839  0.4010 -0.7445
  401THY      O10001   8.674   8.278   1.829  0.4418  0.3079 -0.4437
  401THY     HO10002   8.593   8.229   1.805  0.3665 -1.6064  3.0543
  401THY    CA110003   8.672   8.262   1.967 -1.0731  0.4699  0.4552
  401THY    CA210004   8.729   8.360   2.053  0.2901 -0.0754 -0.1627
  401THY    CP110005   8.768   8.495   2.001  0.2407  0.1750  0.0020
  401THY    HP110006   8.777   8.498   1.892 -0.7034 -0.3735 -0.0986
  401THY    CP210007   8.664   8.598   2.038  0.7327 -0.6357 -0.1290
  401THY    HP210008   8.663   8.639   2.140  1.4719  1.4153 -0.8835
  401THY    HP310009   8.689   8.681   1.971  0.2842  0.5304  1.0956
  401THY    HP410010   8.563   8.559   2.023  0.7231 -0.1961 -1.3053
  401THY    CP310011   8.902   8.544   2.056 -0.0199  0.2506  0.2973
  401THY    HP510012   8.958   8.456   2.090  0.3718  0.3942  0.0299
  401THY    HP610013   8.961   8.597   1.981 -0.6792  0.3064 -0.1950
  401THY    HP710014   8.899   8.605   2.147  0.9880 -0.3425  0.7372
  401THY    CA310015   8.735   8.338   2.193 -0.2044 -0.4564 -0.7614
  401THY    HA310016   8.779   8.406   2.265  2.8169 -1.7760 -1.1959
  401THY    CA410017   8.685   8.220   2.239  0.6888  0.4327 -0.0904
  401THY    HA410018   8.670   8.204   2.346  0.3252  0.2453 -0.1670
  401THY    CA510019   8.612   8.132   2.149  0.3174  0.4168 -0.1584
  401THY    CM110020   8.587   7.989   2.192 -0.0190  0.4870  0.0464
  401THY    HM110021   8.609   7.962   2.296 -0.9380  1.4311  0.4993
  401THY    HM210022   8.482   7.961   2.182 -0.4667  2.5396 -1.3801
  401THY    HM310023   8.644   7.931   2.118  0.3006  2.4638 -1.3202
  401THY    CA610024   8.610   8.159   2.016 -0.4634 -0.2550  0.1025
  401THY    HA610025   8.567   8.084   1.950 -1.5469  0.3616  0.0938
  402THY      O10026   8.304   9.462   9.129 -0.2063  0.2183 -0.0561
  402THY     HO10027   8.322   9.424   9.041 -2.9212 -1.7861  0.1193
  402THY    CA110028   8.250   9.359   9.204  0.5826 -0.1071  0.3407
  402THY    CA210029   8.200   9.372   9.338  0.8494  0.3917  0.2002
  402THY    CP110030   8.222   9.505   9.404 -0.2135 -0.0415  0.8645
  402THY    HP110031   8.216   9.585   9.330 -0.1112 -0.7631  0.0673
  402THY    CP210032   8.112   9.549   9.501 -0.1457  0.0286 -0.3801
  402THY    HP210033   8.123   9.655   9.527  1.3336 -0.3563  0.7173
  402THY    HP310034   8.020   9.532   9.444 -0.7080  1.2002  0.1400
  402THY    HP410035   8.116   9.487   9.591  0.7192 -1.0048 -1.1120
  402THY    CP310036   8.365   9.515   9.467  0.1811 -0.3321  0.5393
  402THY    HP510037   8.442   9.536   9.392  0.0445  0.8877  0.7255
  402THY    HP610038   8.376   9.599   9.537  0.5824  0.9333 -0.9771
  402THY    HP710039   8.383   9.425   9.527  1.3332  0.9216  2.1432
  402THY    CA310040   8.145   9.262   9.397  0.0263 -0.6287 -0.6694
  402THY    HA310041   8.107   9.271   9.498 -0.4783  0.6337 -0.9541
  402THY    CA410042   8.140   9.141   9.329  0.3303  0.0250  0.6550
  402THY    HA410043   8.098   9.054   9.378  0.4420 -0.8812 -0.7929
  402THY    CA510044   8.198   9.127   9.203 -0.0639  0.2950  0.6541
  402THY    CM110045   8.200   8.995   9.135  0.2424  0.3141  0.4647
  402THY    HM110046   8.301   8.975   9.099  0.2519 -1.0361  1.1465
  402THY    HM210047   8.170   8.913   9.202  0.7677  0.4661  0.8902
  402THY    HM310048   8.144   8.985   9.042 -0.4756 -0.7411  0.9846
  402THY    CA610049   8.254   9.237   9.142  0.3346 -0.4346  0.4230
  402THY    HA610050   8.286   9.231   9.038 -0.0941 -2.6955  0.3910
  403THY      O10051   8.516   6.163   9.558  0.0762 -0.0566 -0.0567
  403THY     HO10052   8.556   6.085   9.598  0.2886  1.1497  2.2364
  403THY    CA110053   8.599   6.269   9.569 -0.1521 -0.2018  0.1984
  403THY    CA210054   8.580   6.386   9.486 -0.3129  0.4965  0.7706
  403THY    CP110055   8.462   6.392   9.378  0.6174  1.0627  0.0895
  403THY    HP110056   8.433   6.290   9.349  0.5146  1.1637 -0.1554
  403THY    CP210057   8.357   6.481   9.442  0.6452 -0.0504  0.2806
  403THY    HP210058   8.266   6.487   9.379  1.1877 -1.2150 -0.6553
  403THY    HP310059   8.319   6.433   9.532 -3.7191  0.1172 -1.2183
  403THY    HP410060   8.401   6.579   9.466 -0.1957 -0.1089  2.2450
  403THY    CP310061   8.502   6.452   9.241 -0.1105  0.3096 -0.2403
  403THY    HP510062   8.523   6.559   9.256  2.8891 -0.2464  0.1407
  403THY    HP610063   8.593   6.411   9.197  0.2025  0.4511  0.2701
  403THY    HP710064   8.424   6.436   9.165 -0.6104 -0.7282  0.4740
  403THY    CA310065   8.657   6.495   9.516  0.1007 -0.5570 -0.4804
  403THY    HA310066   8.625   6.589   9.474 -0.0872 -0.9706 -1.2837
  403THY    CA410067   8.757   6.493   9.616 -0.1989 -0.9508  0.8040
  403THY    HA410068   8.801   6.590   9.640  1.4830 -1.6418  0.6328
  403THY    CA510069   8.784   6.378   9.685 -0.4998  0.0373 -0.6573
  403THY    CM110070   8.872   6.389   9.805  0.5672 -0.0373  0.8218
  403THY    HM110071   8.806   6.397   9.892 -0.5995 -1.4652  0.1103
  403THY    HM210072   8.927   6.294   9.816 -1.0871 -1.1657 -0.2213
  403THY    HM310073   8.939   6.476   9.808  0.9309 -0.2232 -0.8758
  403THY    CA610074   8.701   6.270   9.666  0.9214 -0.3445  0.5354
  403THY    HA610075   8.720   6.181   9.725 -0.8411 -1.6133 -0.7362
  404THY      O10076   5.422   3.255   0.573  0.4823 -0.1851  0.1671
  404THY     HO10077   5.367   3.188   0.529 -0.6947 -0.1860  1.5643
  404THY    CA110078   5.373   3.370   0.531  0.6614 -0.0748  0.3644
  404THY    CA210079   5.357   3.485   0.617  0.0010  0.3072 -0.6956
  404THY    CP110080   5.407   3.479   0.764 -0.3093  0.0865 -0.3051
  404THY    HP110081   5.421   3.374   0.794  0.4999 -0.0620 -1.1440
  404THY    CP210082   5.545   3.549   0.766 -0.1071  0.3502  0.3815
  404THY    HP210083   5.623   3.478   0.736 -0.9077 -1.1088  1.6030
  404THY    HP310084   5.556   3.641   0.708  1.1927 -1.6399 -2.7915
  404THY    HP410085   5.558   3.586   0.869 -3.0569  3.2456 -0.1259
  404THY    CP310086   5.299   3.542   0.868 -0.6076 -0.8198 -0.2243
  404THY    HP510087   5.276   3.646   0.844  0.6311 -0.3305  0.6427
  404THY    HP610088   5.206   3.483   0.872 -2.5479  1.9814 -0.7243
  404THY    HP710089   5.339   3.534   0.970 -1.5677 -2.4340  0.0776
  404THY    CA310090   5.303   3.601   0.559 -0.9139 -0.2218  0.3801
  404THY    HA310091   5.290   3.690   0.620 -0.3030  0.2032 -0.0999
  404THY    CA410092   5.263   3.602   0.416  0.2149  0.0418 -0.2388
  404THY    HA410093   5.224   3.693   0.372  3.4973  1.8977  0.3589
  404THY    CA510094   5.287   3.490   0.335 -0.3525 -0.0798 -0.7769
  404THY    CM110095   5.242   3.486   0.198  0.4600  0.1821 -0.0454
  404THY    HM110096   5.146   3.537   0.185 -0.3505 -1.7834 -2.5819
  404THY    HM210097   5.311   3.541   0.133 -0.9829  0.8053 -1.0989
  404THY    HM310098   5.234   3.382   0.163 -0.0473 -0.4246  1.7391
  404THY    CA610099   5.344   3.379   0.395 -0.5978  0.5270  0.3470
  404THY    HA610100   5.365   3.292   0.334  2.7948  1.5198 -0.0688
  405THY      O10101   7.790   9.902   6.557 -0.3711  0.1757  0.0552
  405THY     HO10102   7.772   9.862   6.470  0.5360 -0.5450  0.1862
  405THY    CA110103   7.872  10.009   6.528  0.2114 -0.0152  0.6246
  405THY    CA210104   7.866  10.128   6.603  0.1459 -0.3610  0.1441
  405THY    CP110105   7.792  10.131   6.740  0.2038  0.1916 -0.1375
  405THY    HP110106   7.777  10.026   6.770  0.1855  0.2866  0.1976
  405THY    CP210107   7.884  10.192   6.843  0.6187 -0.4481  0.0511
  405THY    HP210108   7.991  10.168   6.829  1.0438  0.6026  1.3147
  405THY    HP310109   7.891  10.301   6.850 -2.0675 -0.0912 -1.5037
  405THY    HP410110   7.857  10.152   6.941 -2.7301 -0.6641 -0.8427
  405THY    CP310111   7.658  10.209   6.735  0.2333 -0.3693 -0.6810
  405THY    HP510112   7.585  10.154   6.675  0.0713  1.2392 -2.0144
  405THY    HP610113   7.622  10.202   6.839 -2.2469  1.5938 -1.3095
  405THY    HP710114   7.674  10.317   6.724 -3.8458  0.8053  2.2957
  405THY    CA310115   7.942  10.246   6.544 -1.2265  0.3599 -0.1644
  405THY    HA310116   7.945  10.339   6.601 -0.1259  0.2900 -0.0906
  405THY    CA410117   8.014  10.223   6.433  0.0449  0.6085 -0.1441
  405THY    HA410118   8.090  10.294   6.399 -0.4839  1.0363 -0.4578
  405THY    CA510119   8.025  10.100   6.371  0.1557 -0.6717 -0.0946
  405THY    CM110120   8.117  10.086   6.249 -0.5441 -0.4826 -0.1353
  405THY    HM110121   8.080  10.009   6.179  2.0239 -0.8016 -1.2577
  405THY    HM210122   8.113  10.175   6.186  1.1110  1.1507  1.9477
  405THY    HM310123   8.217  10.058   6.283 -0.6220  2.3310  2.7867
  405THY    CA610124   7.945   9.996   6.412 -0.7237  0.7579 -0.5981
  405THY    HA610125   7.952   9.901   6.360  0.7846 -0.5231  1.7513
  406THY      O10126   3.399   2.629   7.757  0.4736 -0.1883 -0.2690
  406THY     HO10127   3.461   2.559   7.786 -0.5300 -1.0565 -0.1485
  406THY    CA110128   3.431   2.662   7.629  0.0103 -0.1571  0.6080
  406THY    CA210129   3.376   2.778   7.569 -0.8613  0.9987  0.3220
  406THY    CP110130   3.262   2.845   7.644 -0.2003  0.0679 -0.3507
  406THY    HP110131   3.214   2.773   7.712 -1.6974  0.1962 -1.2308
  406THY    CP210132   3.312   2.973   7.717 -0.0271  0.6275 -0.0409
  406THY    HP210133   3.334   3.057   7.650 -0.1381 -0.6487 -1.7185
  406THY    HP310134   3.233   2.990   7.791 -0.0632 -1.7663  0.5361
  406THY    HP410135   3.402   2.960   7.778 -0.1459 -0.9551 -0.1694
  406THY    CP310136   3.142   2.874   7.559 -0.1135 -0.3948  0.2144
  406THY    HP510137   3.148   2.956   7.487  2.1431  0.3676  1.1810
  406THY    HP610138   3.114   2.782   7.506  0.3156 -0.5017  0.1668
  406THY    HP710139   3.068   2.914   7.628  0.4111  2.5316 -0.7762
  406THY    CA310140   3.413   2.812   7.436 -0.3884  0.0863  0.3090
  406THY    HA310141   3.363   2.892   7.383 -0.1976  1.4249  2.0898
  406THY    CA410142   3.508   2.731   7.368  0.3685  0.1288 -0.4024
  406THY    HA410143   3.531   2.753   7.264  1.4655 -0.2369 -0.2456
  406THY    CA510144   3.564   2.619   7.429 -0.4892 -1.2451 -0.4501
  406THY    CM110145   3.646   2.528   7.344  0.4468 -0.3202 -0.5947
  406THY    HM110146   3.692   2.446   7.400 -0.1869  1.1235  2.1998
  406THY    HM210147   3.591   2.488   7.258  2.3838 -0.0900 -2.0032
  406THY    HM310148   3.734   2.581   7.306  0.4942  1.4698  1.8184
  406THY    CA610149   3.516   2.584   7.560  0.0350  0.0411  0.7490
  406THY    HA610150   3.554   2.494   7.607 -0.0097 -0.9608 -1.0318
  407THY      O10151   2.282   7.211   2.693  0.6527  0.0970 -0.3148
  407THY     HO10152   2.221   7.191   2.620  0.0767  2.2105 -0.4740
  407THY    CA110153   2.408   7.163   2.668  0.7315  0.4150 -0.1055
  407THY    CA210154   2.510   7.184   2.759 -0.2014 -0.5710 -0.0740
  407THY    CP110155   2.496   7.256   2.892  0.5031  1.1404 -0.4388
  407THY    HP110156   2.394   7.296   2.906 -0.2998 -1.3256  1.4033
  407THY    CP210157   2.524   7.169   3.015 -0.7523  0.1559 -0.0519
  407THY    HP210158   2.446   7.094   3.034 -1.0804  0.6428  0.5342
  407THY    HP310159   2.614   7.109   2.994  0.7071  2.2165  0.0820
  407THY    HP410160   2.545   7.229   3.103 -0.9476  0.0848  0.0433
  407THY    CP310161   2.593   7.375   2.901  0.0918  1.0440  0.7971
  407THY    HP510162   2.576   7.446   2.819  0.9548 -1.0416 -1.2811
  407THY    HP610163   2.584   7.430   2.995 -1.9000  0.4290  1.0023
  407THY    HP710164   2.700   7.354   2.892 -0.0085  1.1753 -1.0135
  407THY    CA310165   2.634   7.143   2.715  0.4753  0.4556  0.0608
  407THY    HA310166   2.716   7.156   2.784 -0.3018 -0.0512  1.1103
  407THY    CA410167   2.649   7.077   2.596  0.0997 -0.0624 -0.5761
  407THY    HA410168   2.747   7.044   2.565 -0.2415  0.5734 -2.4501
  407THY    CA510169   2.543   7.053   2.512 -0.7221 -0.0841  0.7250
  407THY    CM110170   2.567   6.986   2.387 -0.1122  0.3070 -0.6538
  407THY    HM110171   2.651   7.033   2.334  0.1864 -1.0259 -1.4186
  407THY    HM210172   2.590   6.880   2.404  0.4103  0.6113  0.5901
  407THY    HM310173   2.474   6.986   2.329 -1.1817 -1.7979  0.9474
  407THY    CA610174   2.419   7.098   2.547 -0.1473  0.1580  0.0655
  407THY    HA610175   2.339   7.094   2.474  1.0047 -1.1539 -1.1950
  408THY      O10176   4.709   8.162   4.604 -0.3780  0.0763  0.1842
  408THY     HO10177   4.721   8.166   4.700  1.8400 -0.7981  0.0097
  408THY    CA110178   4.627   8.058   4.576 -0.2264  0.4663  0.0919
  408THY    CA210179   4.628   8.003   4.445 -0.7189 -0.1329  0.1956
  408THY    CP110180   4.727   8.041   4.332  0.3480 -0.3899  0.5585
  408THY    HP110181   4.794   8.124   4.358 -1.9572  2.1545 -0.9937
  408THY    CP210182   4.803   7.917   4.285 -0.6544  0.7638  0.2749
  408THY    HP210183   4.739   7.828   4.284 -0.2056  0.3362  3.0835
  408THY    HP310184   4.843   7.936   4.185 -3.3765  1.3686 -0.7961
  408THY    HP410185   4.885   7.889   4.352 -0.2383 -0.4557 -0.7070
  408THY    CP310186   4.648   8.087   4.203  0.4779  0.4784  0.0455
  408THY    HP510187   4.574   8.008   4.182  0.5432 -0.5457  3.0693
  408THY    HP610188   4.591   8.179   4.220  0.4958  0.5151 -0.0957
  408THY    HP710189   4.715   8.096   4.117 -0.0484  0.4003 -0.3814
  408THY    CA310190   4.533   7.905   4.413 -0.3551 -0.1511  0.6725
  408THY    HA310191   4.521   7.865   4.313 -0.0965  2.2788 -0.3904
  408THY    CA410192   4.453   7.855   4.515  0.0568  0.3398 -0.4098
  408THY    HA410193   4.390   7.768   4.497  0.0950  0.4052 -0.8710
  408THY    CA510194   4.446   7.920   4.640  1.1520  0.0113 -0.0685
  408THY    CM110195   4.335   7.889   4.738  0.6729  0.0879  0.5846
  408THY    HM110196   4.283   7.976   4.780  0.3908 -1.1402  2.9151
  408THY    HM210197   4.267   7.821   4.686 -0.3369  0.3069  1.5866
  408THY    HM310198   4.377   7.824   4.816  1.5394  0.5741  0.5402
  408THY    CA610199   4.532   8.023   4.672  0.4753  0.3063 -0.1125
  408THY    HA610200   4.525   8.080   4.764 -2.2515 -0.1921  0.0826
  409THY      O10201   7.049   4.674   9.761 -0.1100 -0.4466 -0.4494
  409THY     HO10202   7.043   4.763   9.799  1.2358  0.4368 -2.1527
  409THY    CA110203   7.179   4.645   9.768  0.0025  0.6746 -0.4469
  409THY    CA210204   7.241   4.554   9.676  0.2168  0.3397  0.5337
  409THY    CP110205   7.152   4.481   9.573 -0.4533 -0.6261 -0.5326
  409THY    HP110206   7.051   4.523   9.571 -0.0621  0.3637 -0.0909
  409THY    CP210207   7.203   4.501   9.431 -0.1463 -0.3619  0.6824
  409THY    HP210208   7.307   4.467   9.419 -0.6209 -1.7115  0.2988
  409THY    HP310209   7.155   4.444   9.351  1.6196  1.2968 -1.7576
  409THY    HP410210   7.206   4.607   9.402  1.2586 -0.1491  1.5087
  409THY    CP310211   7.144   4.334   9.606 -0.1057 -0.2766 -0.4108
  409THY    HP510212   7.090   4.323   9.700  0.2685 -0.3659 -0.2057
  409THY    HP610213   7.083   4.287   9.527 -1.1317  0.4222 -0.0525
  409THY    HP710214   7.242   4.285   9.612  0.5456  1.0899  0.4306
  409THY    CA310215   7.377   4.523   9.687 -0.3954  0.1182  0.0506
  409THY    HA310216   7.430   4.449   9.627 -0.5125  0.0387  0.0461
  409THY    CA410217   7.452   4.591   9.782 -0.0180  0.2726  0.6734
  409THY    HA410218   7.559   4.573   9.789  0.3850  1.9041 -0.8080
  409THY    CA510219   7.390   4.676   9.874 -0.0116 -0.1780  0.9515
  409THY    CM110220   7.470   4.742   9.988 -0.0087 -0.0926  0.0047
  409THY    HM110221   7.428   4.726  10.088 -1.3674  1.6436 -0.2408
  409THY    HM210222   7.571   4.701  10.001 -0.1992 -0.5243  0.1575
  409THY    HM310223   7.456   4.848   9.964  1.4418  0.3203  0.8859
  409THY    CA610224   7.254   4.704   9.865  0.3386 -0.0013  0.2541
  409THY    HA610225   7.215   4.784   9.928  0.8758  0.4188  0.0616
  410THY      O10226   6.549   2.368   6.442  0.0181 -0.0805 -0.3234
  410THY     HO10227   6.578   2.280   6.411  0.2113 -0.0936 -0.1141
  410THY    CA110228   6.629   2.387   6.546 -0.4871  0.2480 -0.6571
  410THY    CA210229   6.591   2.477   6.640  0.0081 -0.4818  0.0860
  410THY    CP110230   6.460   2.563   6.625 -0.5222 -0.2535  0.1541
  410THY    HP110231   6.401   2.526   6.540  1.5172 -1.4452 -0.8506
  410THY    CP210232   6.379   2.555   6.750  0.2858  0.7570  0.1013
  410THY    HP210233   6.436   2.565   6.844  0.1275 -2.0221  0.5753
  410THY    HP310234   6.307   2.637   6.747  0.5971  1.1366  1.7886
  410THY    HP410235   6.324   2.460   6.745 -1.6351  1.8627 -0.7950
  410THY    CP310236   6.492   2.715   6.592  0.1407 -0.2997  0.5715
  410THY    HP510237   6.402   2.777   6.579  1.0552  0.8865 -0.3564
  410THY    HP610238   6.543   2.746   6.684 -2.0691 -0.0685  1.7997
  410THY    HP710239   6.537   2.729   6.494 -2.5772  1.8737 -0.5044
  410THY    CA310240   6.679   2.506   6.746  0.1742 -0.4108  0.3024
  410THY    HA310241   6.652   2.583   6.817 -0.3288 -0.4006  0.1013
  410THY    CA410242   6.791   2.426   6.759  0.2545  0.1603 -0.4197
  410THY    HA410243   6.859   2.441   6.842  0.0472 -1.2502  0.0334
  410THY    CA510244   6.825   2.327   6.673 -0.4214  0.7897 -0.3326
  410THY    CM110245   6.947   2.249   6.692  0.0012 -0.2608  0.3677
  410THY    HM110246   6.974   2.189   6.605 -2.8644 -2.5562  0.8798
  410THY    HM210247   7.032   2.311   6.722 -0.9913  0.7535  1.1954
  410THY    HM310248   6.927   2.180   6.775  0.3786 -1.9539 -0.8900
  410THY    CA610249   6.746   2.308   6.559 -0.1750 -0.6385  0.1043
  410THY    HA610250   6.780   2.243   6.479 -3.0211 -0.9469 -0.9748
  411THY      O10251   9.681   1.559   4.880  0.1140  0.7039  0.6683
  411THY     HO10252   9.710   1.528   4.792 -0.1883  0.0289  0.8066
  411THY    CA110253   9.788   1.532   4.956  0.2485  0.5242  0.2132
  411THY    CA210254   9.808   1.596   5.077  0.0082 -0.3938 -0.7736
  411THY    CP110255   9.719   1.711   5.129 -0.6287 -0.8799  0.0392
  411THY    HP110256   9.629   1.736   5.071 -0.8654 -0.5250  0.5453
  411THY    CP210257   9.661   1.695   5.274 -0.2713  0.5747  0.6937
  411THY    HP210258   9.624   1.592   5.284  2.6543 -0.5209  1.3831
  411THY    HP310259   9.738   1.704   5.351 -0.0906 -0.7266  0.6790
  411THY    HP410260   9.580   1.762   5.305 -0.4309 -0.7132  3.3976
  411THY    CP310261   9.804   1.833   5.133  0.8223 -0.4518 -0.2583
  411THY    HP510262   9.743   1.922   5.148  1.2436 -0.1282 -0.4269
  411THY    HP610263   9.886   1.842   5.205  1.3326  0.8484 -0.9584
  411THY    HP710264   9.863   1.855   5.043 -0.0226  2.8316 -0.1462
  411THY    CA310265   9.923   1.560   5.148 -0.1741 -0.0674  0.3609
  411THY    HA310266   9.952   1.617   5.235  0.7086  0.4765 -0.2806
  411THY    CA410267  10.013   1.458   5.103 -0.1877 -0.9439 -0.3123
  411THY    HA410268  10.096   1.417   5.159  1.3486  2.3305  0.0442
  411THY    CA510269   9.990   1.406   4.971 -0.0759 -0.1647  0.1991
  411THY    CM110270  10.084   1.310   4.905 -0.3137  0.0208 -0.3290
  411THY    HM110271  10.025   1.224   4.871 -0.8537  1.0976 -2.2968
  411THY    HM210272  10.113   1.358   4.811  0.9290 -1.0928 -0.5440
  411THY    HM310273  10.169   1.286   4.969  0.4627  0.7585 -1.0610
  411THY    CA610274   9.871   1.435   4.903 -0.6528 -0.3966  0.5697
  411THY    HA610275   9.847   1.383   4.811 -2.0194 -1.2168  1.3451
  412THY      O10276   0.759   3.996   4.890  0.0386 -0.2236  0.0991
  412THY     HO10277   0.761   3.907   4.930  0.8117 -0.1252  0.2867
  412THY    CA110278   0.632   4.037   4.879  0.2257 -1.0733  0.8517
  412THY    CA210279   0.597   4.178   4.898 -0.0075  0.0776  0.5379
  412THY    CP110280   0.695   4.280   4.948 -0.8305  0.5780 -0.2841
  412THY    HP110281   0.795   4.236   4.935 -1.7627 -1.6102 -0.5080
  412THY    CP210282   0.714   4.400   4.863 -0.4107 -0.5044  0.2287
  412THY    HP210283   0.630   4.467   4.885 -0.7880 -1.5062  2.0048
  412THY    HP310284   0.815   4.440   4.872 -0.5243 -0.5067  1.8454
  412THY    HP410285   0.704   4.373   4.757  1.0015 -1.0282  0.2178
  412THY    CP310286   0.663   4.322   5.097 -1.2171  0.0092 -0.1792
  412THY    HP510287   0.755   4.367   5.137 -2.4901  1.4504  1.2302
  412THY    HP610288   0.579   4.391   5.109 -0.7173  0.3782  1.4951
  412THY    HP710289   0.634   4.230   5.149  0.3033  0.2916  1.2577
  412THY    CA310290   0.467   4.214   4.865 -0.0354 -0.0985  0.5300
  412THY    HA310291   0.437   4.317   4.885 -0.1690  0.1666 -0.9484
  412THY    CA410292   0.372   4.121   4.823  0.0618 -0.1861 -0.0912
  412THY    HA410293   0.269   4.154   4.809  0.2620  0.1831 -0.7191
  412THY    CA510294   0.403   3.988   4.822 -0.0474  0.8504  0.3557
  412THY    CM110295   0.296   3.887   4.792  0.1683 -0.6970  0.0574
  412THY    HM110296   0.265   3.884   4.687 -1.0061 -0.0486  0.3632
  412THY    HM210297   0.340   3.796   4.834 -0.7014 -1.1207  0.0757
  412THY    HM310298   0.207   3.903   4.854 -0.0510  2.0385 -0.8050
  412THY    CA610299   0.537   3.945   4.835  0.1796 -0.4237 -0.5934
  412THY    HA610300   0.570   3.842   4.823 -0.1726 -0.6229  0.0535
  413THY      O10301   7.296   0.304   0.861  0.1771 -0.4383  0.4905
  413THY     HO10302   7.391   0.324   0.853 -0.1259  0.1394 -2.5654
  413THY    CA110303   7.249   0.354   0.745  0.8691  0.0364 -0.5686
  413THY    CA210304   7.117   0.327   0.706  0.4350 -0.4146  0.6548
  413THY    CP110305   7.019   0.248   0.794 -0.2410  0.6546 -0.3033
  413THY    HP110306   7.080   0.202   0.873  2.0427  2.2459 -1.0070
  413THY    CP210307   6.919   0.328   0.878 -0.2417  0.2440  0.4375
  413THY    HP210308   6.863   0.258   0.941  0.3547 -0.5732  0.0723
  413THY    HP310309   6.964   0.393   0.955  0.0756  0.1542  0.3265
  413THY    HP410310   6.851   0.383   0.813 -1.6267 -0.4717  1.2386
  413THY    CP310311   6.950   0.142   0.712  0.1168 -0.0650  0.3159
  413THY    HP510312   6.905   0.070   0.781  1.4141  0.1429  1.4204
  413THY    HP610313   6.877   0.178   0.638  2.1550 -0.4900 -2.0703
  413THY    HP710314   7.023   0.090   0.647 -1.3607 -1.0301 -0.6387
  413THY    CA310315   7.074   0.389   0.584 -0.5571  0.5889  0.1907
  413THY    HA310316   6.973   0.384   0.545 -1.5680  0.8698  2.6098
  413THY    CA410317   7.169   0.466   0.519 -0.1166  0.2847  0.4115
  413THY    HA410318   7.143   0.518   0.427 -1.0898  0.7587  0.9391
  413THY    CA510319   7.302   0.488   0.561 -0.3062  0.4525  1.0098
  413THY    CM110320   7.386   0.565   0.476 -0.8112 -0.1256  0.2111
  413THY    HM110321   7.328   0.657   0.462 -3.7358 -2.0495 -1.3303
  413THY    HM210322   7.479   0.586   0.531 -1.2316  1.7193  0.2866
  413THY    HM310323   7.411   0.517   0.380  0.6653  1.2908 -0.1666
  413THY    CA610324   7.335   0.442   0.681  0.2899 -0.2465 -0.2718
  413THY    HA610325   7.433   0.455   0.725  1.0092 -2.1772 -1.2242
  414THY      O10326   6.778   5.802   6.607  0.0721 -0.1176 -0.5320
  414THY     HO10327   6.806   5.711   6.629 -0.8338 -0.4211 -0.6176
  414THY    CA110328   6.684   5.799   6.502  0.2924 -0.2316 -0.3873
  414THY    CA210329   6.566   5.878   6.511  0.3840 -0.0718 -0.3048
  414THY    CP110330   6.562   5.986   6.618  0.8718 -0.3304  0.3196
  414THY    HP110331   6.668   5.997   6.645  1.0270 -0.1878 -0.3296
  414THY    CP210332   6.491   6.114   6.571  0.2276 -0.0837 -0.1854
  414THY    HP210333   6.514   6.203   6.630 -1.7530 -0.5859  1.4553
  414THY    HP310334   6.520   6.137   6.467  0.6980  1.2320  0.2176
  414THY    HP410335   6.382   6.107   6.566  0.3317 -0.9011 -2.2731
  414THY    CP310336   6.480   5.939   6.733  0.1611 -0.6375  0.1885
  414THY    HP510337   6.457   6.013   6.811 -0.7773 -1.0110  0.2806
  414THY    HP610338   6.379   5.908   6.703  0.0204  0.2240 -0.2700
  414THY    HP710339   6.524   5.855   6.787  2.0061  1.1762  1.6518
  414THY    CA310340   6.456   5.856   6.420  0.1824 -0.6815  0.0834
  414THY    HA310341   6.362   5.905   6.443  0.7241  0.4207 -0.0129
  414THY    CA410342   6.472   5.763   6.318  0.6953  0.6360 -0.3622
  414THY    HA410343   6.393   5.742   6.246  0.9804 -1.3298 -0.1367
  414THY    CA510344   6.586   5.686   6.315  0.6975  0.4692  0.3354
  414THY    CM110345   6.599   5.578   6.206  0.1141 -0.1913 -0.2218
  414THY    HM110346   6.503   5.526   6.203  1.7850 -3.5119  0.0237
  414THY    HM210347   6.632   5.621   6.111 -0.0148 -1.6673 -0.9636
  414THY    HM310348   6.674   5.504   6.233 -1.3308 -1.6702 -0.1071
  414THY    CA610349   6.692   5.698   6.406 -0.1459  0.1751 -0.1895
  414THY    HA610350   6.780   5.639   6.382  0.1178  1.1746 -1.8963
  415THY      O10351   5.992   9.218   9.233 -0.3798  0.4297  0.0723
  415THY     HO10352   5.988   9.231   9.136  0.1058 -0.6977 -0.1186
  415THY    CA110353   5.975   9.087   9.246  0.1248 -0.3059  0.5096
  415THY    CA210354   6.006   9.014   9.372 -0.9137  0.5713  0.5579
  415THY    CP110355   6.038   9.091   9.492 -0.2819 -0.0468 -0.5495
  415THY    HP110356   6.037   9.201   9.496 -0.2373 -0.0575 -0.2991
  415THY    CP210357   5.947   9.054   9.611  0.2464 -0.0477 -0.3599
  415THY    HP210358   5.944   8.945   9.623 -1.7240  0.0041 -0.1793
  415THY    HP310359   5.973   9.114   9.699 -0.4427  0.0412 -0.2159
  415THY    HP410360   5.847   9.091   9.588  0.5032  1.3359  0.5981
  415THY    CP310361   6.187   9.053   9.525 -0.0154  0.3965  0.0619
  415THY    HP510362   6.222   9.099   9.618 -0.8717  0.0866  0.5392
  415THY    HP610363   6.204   8.945   9.527 -0.1699  0.2396 -2.6896
  415THY    HP710364   6.240   9.101   9.442  0.3588 -0.9330 -0.4915
  415THY    CA310365   5.981   8.881   9.371  0.2575 -0.6294  0.0355
  415THY    HA310366   6.000   8.813   9.454  1.9403 -1.3140 -0.8743
  415THY    CA410367   5.937   8.821   9.255 -0.2334 -0.2607 -0.5364
  415THY    HA410368   5.937   8.714   9.269  2.7601 -0.3073 -0.2151
  415THY    CA510369   5.918   8.886   9.134 -0.5130  0.2249 -0.1164
  415THY    CM110370   5.877   8.801   9.009 -0.2581 -0.3868 -1.0208
  415THY    HM110371   5.870   8.693   9.023 -1.3198 -0.3835 -1.4872
  415THY    HM210372   5.782   8.823   8.959  0.2925 -0.6638 -2.2021
  415THY    HM310373   5.952   8.819   8.932  1.7691  0.2376  0.9733
  415THY    CA610374   5.932   9.025   9.132 -0.2904  0.0326 -0.3630
  415THY    HA610375   5.915   9.084   9.041 -2.6747 -1.5631 -1.0541
  416THY      O10376   1.086   4.937   1.807  0.2436  0.4066 -0.6693
  416THY     HO10377   1.116   4.882   1.882 -1.0850 -0.1188 -0.4930
  416THY    CA110378   0.953   4.940   1.834 -0.0652  0.3970 -0.2362
  416THY    CA210379   0.864   5.031   1.775  0.8532 -0.2134  0.2251
  416THY    CP110380   0.914   5.118   1.654  0.0336  0.7783 -0.9615
  416THY    HP110381   0.999   5.079   1.597  2.2334  0.4415  2.2100
  416THY    CP210382   0.801   5.140   1.558  0.2778  0.6651  0.4309
  416THY    HP210383   0.846   5.184   1.468  1.2313  0.8366  0.9759
  416THY    HP310384   0.743   5.051   1.531  1.4086 -0.0596  0.3510
  416THY    HP410385   0.728   5.201   1.612 -1.5525 -2.0842  1.2744
  416THY    CP310386   0.972   5.252   1.706  0.2843  0.1510 -0.1455
  416THY    HP510387   1.071   5.250   1.752  0.2895 -1.2988 -0.1692
  416THY    HP610388   0.978   5.320   1.620  0.9068 -0.3728 -0.5220
  416THY    HP710389   0.901   5.295   1.778 -0.3334 -0.8857 -0.1192
  416THY    CA310390   0.725   5.038   1.816 -0.4023  0.3650  0.0520
  416THY    HA310391   0.658   5.116   1.779 -1.2974 -0.2241  0.4044
  416THY    CA410392   0.684   4.941   1.911  0.2781  0.1074 -0.6108
  416THY    HA410393   0.580   4.935   1.944  1.0651 -1.5502  1.8549
  416THY    CA510394   0.775   4.856   1.977 -0.4511  0.5021  0.8801
  416THY    CM110395   0.730   4.763   2.094  0.0036  0.0236  0.3080
  416THY    HM110396   0.690   4.824   2.175 -0.6171 -0.1292  0.1280
  416THY    HM210397   0.645   4.699   2.064 -0.0326 -0.2580  1.0022
  416THY    HM310398   0.805   4.693   2.132 -0.8186  0.2081  2.3657
  416THY    CA610399   0.907   4.854   1.935  0.3028 -0.7498 -0.1256
  416THY    HA610400   0.972   4.779   1.977 -1.4945 -1.1365  2.1538
  417THY      O10401   7.921   2.391   6.666 -0.0888 -0.1296 -0.0578
  417THY     HO10402   7.942   2.298   6.645 -1.8132 -0.4978 -0.2329
  417THY    CA110403   7.844   2.390   6.777 -0.4602 -0.0339  0.1133
  417THY    CA210404   7.826   2.504   6.856 -0.2191  0.4904 -0.1193
  417THY    CP110405   7.904   2.632   6.826 -0.2135 -0.3788 -0.2873
  417THY    HP110406   7.957   2.616   6.731 -0.7444  2.6439 -1.1838
  417THY    CP210407   7.809   2.748   6.803 -0.1252  0.2662  0.1147
  417THY    HP210408   7.762   2.777   6.898  0.8656 -2.0288  1.3856
  417THY    HP310409   7.859   2.837   6.762  0.4270  0.1960  0.6143
  417THY    HP410410   7.725   2.720   6.738 -1.1841 -1.4187  2.1081
  417THY    CP310411   8.018   2.669   6.930  0.1073  0.3896 -0.6154
  417THY    HP510412   8.080   2.579   6.933 -0.3310  0.0925 -0.1763
  417THY    HP610413   8.080   2.757   6.911 -0.6292  1.5065  1.7742
  417THY    HP710414   7.963   2.678   7.025  2.0662 -0.2737  0.6399
  417THY    CA310415   7.732   2.497   6.964 -0.7103  0.2683  0.8186
  417THY    HA310416   7.708   2.585   7.023 -1.2717  0.7874 -0.1609
  417THY    CA410417   7.674   2.379   6.996 -0.2339 -0.5998  0.1878
  417THY    HA410418   7.592   2.384   7.066 -0.1021 -1.1389  0.3808
  417THY    CA510419   7.704   2.254   6.926 -0.0785 -0.0790  0.0848
  417THY    CM110420   7.621   2.133   6.966  0.0988  0.6604 -0.1401
  417THY    HM110421   7.544   2.157   7.042  1.1895  1.8241  0.6438
  417THY    HM210422   7.581   2.081   6.878  1.0644  2.8380 -1.9762
  417THY    HM310423   7.692   2.061   7.006  0.6785  0.7168 -1.0405
  417THY    CA610424   7.786   2.261   6.813 -0.1959  0.0105 -0.1104
  417THY    HA610425   7.814   2.171   6.759  2.9010 -0.2833  1.7476
  418THY      O10426   9.310   8.860   9.824 -0.2028 -0.4801 -0.2228
  418THY     HO10427   9.297   8.771   9.789 -0.0463 -1.0312  1.0814
  418THY    CA110428   9.214   8.939   9.773 -1.2378 -0.0414 -0.5571
  418THY    CA210429   9.205   9.080   9.789 -0.5826 -0.0645  0.4724
  418THY    CP110430   9.315   9.161   9.858 -0.0266 -0.3016  0.1610
  418THY    HP110431   9.381   9.089   9.907 -1.3114 -0.7812  1.2427
  418THY    CP210432   9.409   9.229   9.753  0.2478 -0.4601 -0.4888
  418THY    HP210433   9.350   9.306   9.701 -2.9994 -0.7922  2.3435
  418THY    HP310434   9.497   9.279   9.794  0.0499 -0.8525  0.4436
  418THY    HP410435   9.441   9.149   9.686  0.6515 -0.3328 -0.4514
  418THY    CP310436   9.267   9.262   9.964  0.2329  0.1722  0.7481
  418THY    HP510437   9.351   9.328   9.988  0.7001 -0.5736  1.2215
  418THY    HP610438   9.182   9.324   9.936  2.7666  3.7198  0.2871
  418THY    HP710439   9.256   9.196  10.051  1.8364  0.1382  0.9652
  418THY    CA310440   9.096   9.149   9.734 -0.6225  0.1874 -0.2667
  418THY    HA310441   9.085   9.257   9.741  0.5251  0.2155  1.9474
  418THY    CA410442   8.998   9.071   9.669  0.0716  0.7784  0.2895
  418THY    HA410443   8.912   9.124   9.629 -0.2030  0.5410  0.5585
  418THY    CA510444   9.003   8.934   9.662 -0.2683  0.4254  0.0244
  418THY    CM110445   8.895   8.849   9.612  0.2062  0.1016  0.1045
  418THY    HM110446   8.935   8.767   9.551 -0.8816 -0.1328 -0.3172
  418THY    HM210447   8.836   8.805   9.693 -1.5577 -0.6606 -1.5355
  418THY    HM310448   8.830   8.907   9.546  1.2169  0.8259 -0.2942
  418THY    CA610449   9.114   8.870   9.710  0.2278 -0.4803 -0.4132
  418THY    HA610450   9.119   8.761   9.701 -1.2560 -0.5229 -1.0021
  419THY      O10451   0.847   2.455   1.331  0.3133  0.2018 -0.0072
  419THY     HO10452   0.813   2.452   1.422 -2.0515  1.5444 -0.7708
  419THY    CA110453   0.770   2.370   1.252  0.6414 -0.3372  0.6587
  419THY    CA210454   0.815   2.327   1.126 -0.3628 -0.0766 -0.3608
  419THY    CP110455   0.947   2.377   1.075 -0.1234  0.2326 -0.5085
  419THY    HP110456   0.985   2.453   1.145 -1.9245 -0.1676  0.9933
  419THY    CP210457   1.040   2.259   1.061  0.0602  0.5372 -0.1563
  419THY    HP210458   1.000   2.195   0.981  1.7286 -0.9816  0.1444
  419THY    HP310459   1.137   2.301   1.031 -0.1268  1.3107  0.3058
  419THY    HP410460   1.047   2.207   1.158 -0.0234 -1.5034 -1.1898
  419THY    CP310461   0.941   2.451   0.948 -0.2692  0.1448 -0.2995
  419THY    HP510462   0.854   2.519   0.950  0.1508  0.6911 -0.3018
  419THY    HP610463   1.029   2.516   0.941 -0.7438  1.3527  2.8983
  419THY    HP710464   0.918   2.391   0.860  1.3995 -1.4534  0.3001
  419THY    CA310465   0.735   2.253   1.039  0.0658 -0.0513  0.0662
  419THY    HA310466   0.777   2.215   0.947 -1.1675 -1.4502  0.0534
  419THY    CA410467   0.606   2.217   1.076  0.1455 -0.0824  0.2006
  419THY    HA410468   0.550   2.147   1.014 -1.5165 -0.1913  1.7287
  419THY    CA510469   0.559   2.254   1.203  0.1283 -0.6499  0.4160
  419THY    CM110470   0.433   2.200   1.251  1.5458  0.4307 -0.5273
  419THY    HM110471   0.354   2.266   1.213  1.1725  1.4271  1.7706
  419THY    HM210472   0.420   2.097   1.218  0.9225 -0.4435  2.2041
  419THY    HM310473   0.427   2.209   1.360 -0.7112 -1.3812 -0.4248
  419THY    CA610474   0.638   2.334   1.289  0.2733 -0.6465  0.0686
  419THY    HA610475   0.599   2.377   1.381  3.3485  1.4748  0.5062
  420THY      O10476   5.133   6.999   6.395  0.1325 -0.8287 -0.0373
  420THY     HO10477   5.116   6.973   6.303 -2.0705  0.2889  0.0053
  420THY    CA110478   5.069   7.120   6.420 -0.5761 -0.5625  0.4524
  420THY    CA210479   5.099   7.201   6.536  0.2768 -0.4376  0.2078
  420THY    CP110480   5.202   7.143   6.638 -0.2020 -1.0476  0.0907
  420THY    HP110481   5.264   7.062   6.600 -0.5737 -0.6002 -1.5478
  420THY    CP210482   5.311   7.247   6.670  0.0867 -0.0783  0.6397
  420THY    HP210483   5.381   7.257   6.586  0.2371 -1.8215  0.5154
  420THY    HP310484   5.279   7.351   6.687 -1.8760 -0.7485  1.3205
  420THY    HP410485   5.366   7.216   6.760 -0.5876  2.1725  1.9129
  420THY    CP310486   5.129   7.095   6.761  0.2268  0.4186 -0.2858
  420THY    HP510487   5.052   7.163   6.799  0.9029  0.5826  0.8471
  420THY    HP610488   5.078   6.999   6.743 -3.6508  2.1992  0.1533
  420THY    HP710489   5.199   7.076   6.844 -0.1596 -2.0456 -0.4357
  420THY    CA310490   5.040   7.327   6.543  0.4322 -1.4006 -0.3703
  420THY    HA310491   5.075   7.395   6.621 -1.4150  1.2767 -1.7071
  420THY    CA410492   4.948   7.364   6.443  0.0712 -0.7111  0.3172
  420THY    HA410493   4.917   7.469   6.443 -0.2028 -0.7730 -1.1060
  420THY    CA510494   4.908   7.285   6.334  0.0193  0.8381  0.2773
  420THY    CM110495   4.800   7.316   6.237  0.2798 -0.2833  0.6297
  420THY    HM110496   4.741   7.403   6.269 -1.0819 -1.4814  1.5264
  420THY    HM210497   4.830   7.349   6.137 -0.4470 -0.1361  0.4510
  420THY    HM310498   4.725   7.237   6.223 -0.6988  0.3146  2.2428
  420THY    CA610499   4.966   7.156   6.333 -1.1739  0.1033  0.0501
  420THY    HA610500   4.940   7.087   6.253 -1.0129 -1.0249  0.9421
  421THY      O10501   7.296   7.193   9.817 -0.0063 -0.6230  0.1914
  421THY     HO10502   7.224   7.194   9.882  0.6182  1.9682  0.9245
  421THY    CA110503   7.370   7.083   9.835 -0.3299  0.2213 -0.3177
  421THY    CA210504   7.472   7.045   9.744 -0.0004  0.6616  0.2005
  421THY    CP110505   7.494   7.125   9.612 -0.3904  0.8927 -0.0968
  421THY    HP110506   7.397   7.167   9.583 -2.8114 -2.7494  1.7915
  421THY    CP210507   7.597   7.235   9.626  0.0377 -0.3147 -0.6467
  421THY    HP210508   7.581   7.304   9.709 -1.2991 -2.9762  1.4781
  421THY    HP310509   7.693   7.184   9.644  0.6528  1.4177  1.4931
  421THY    HP410510   7.609   7.290   9.533  1.0585 -0.3186 -0.5392
  421THY    CP310511   7.544   7.033   9.494 -0.0118  0.0263 -0.7874
  421THY    HP510512   7.639   6.983   9.518 -0.5469 -0.6868 -0.0890
  421THY    HP610513   7.470   6.956   9.468  0.4090  0.2521 -2.7899
  421THY    HP710514   7.559   7.094   9.404  0.6166  0.7171 -0.2194
  421THY    CA310515   7.536   6.922   9.766  0.8592  0.9704  0.4121
  421THY    HA310516   7.597   6.891   9.682 -1.1812  0.5395 -1.0110
  421THY    CA410517   7.504   6.844   9.885 -0.6031 -0.2411  0.1839
  421THY    HA410518   7.556   6.749   9.894 -0.7322 -0.5134 -1.6324
  421THY    CA510519   7.425   6.895   9.987  0.6006 -0.7069  0.5029
  421THY    CM110520   7.412   6.828  10.120  0.5291 -0.4290  0.0218
  421THY    HM110521   7.387   6.896  10.202  1.4986  0.8352 -0.6983
  421THY    HM210522   7.339   6.747  10.124  0.3262 -0.2475 -0.0017
  421THY    HM310523   7.511   6.786  10.141  0.0034 -1.7610 -0.0851
  421THY    CA610524   7.362   7.019   9.960 -0.0762  0.4435  0.7038
  421THY    HA610525   7.300   7.060  10.038 -0.6785  0.2024  0.3591
  422THY      O10526   3.445   4.839   1.888 -0.2475  0.3208  0.0036
  422THY     HO10527   3.455   4.909   1.821 -2.0859  1.8220  1.1894
  422THY    CA110528   3.509   4.723   1.852  0.1349  0.4042 -0.4056
  422THY    CA210529   3.595   4.655   1.943  0.7229  0.2978  0.6407
  422THY    CP110530   3.620   4.716   2.078  0.2533  0.2291 -0.1343
  422THY    HP110531   3.556   4.802   2.102  0.8385  0.7844 -0.5228
  422THY    CP210532   3.601   4.609   2.188  0.1842 -0.1915  0.2343
  422THY    HP210533   3.678   4.532   2.174  1.4654  0.7484  1.7511
  422THY    HP310534   3.603   4.660   2.285  2.0005 -2.1420  1.3192
  422THY    HP410535   3.504   4.561   2.167  0.3453 -0.0770 -0.7975
  422THY    CP310536   3.768   4.763   2.083  0.3461  0.1906 -0.2129
  422THY    HP510537   3.787   4.804   2.183 -1.2921 -1.2219  0.7409
  422THY    HP610538   3.842   4.683   2.074  0.2152 -0.2533  2.0116
  422THY    HP710539   3.779   4.837   2.003 -1.8912 -0.9156 -1.6335
  422THY    CA310540   3.647   4.535   1.898 -0.0138 -0.2072 -0.4126
  422THY    HA310541   3.717   4.479   1.961 -0.4933 -0.3058  0.0401
  422THY    CA410542   3.620   4.481   1.777  0.6252  0.0639 -0.2478
  422THY    HA410543   3.670   4.389   1.751 -1.0268 -1.1018  0.5291
  422THY    CA510544   3.532   4.551   1.689 -0.4345 -0.3026  0.6144
  422THY    CM110545   3.500   4.492   1.556 -0.4899 -0.5692  0.0710
  422THY    HM110546   3.391   4.505   1.549 -0.3351  2.6252  1.8489
  422THY    HM210547   3.562   4.545   1.483 -1.0029  0.8078  0.6029
  422THY    HM310548   3.538   4.389   1.548 -0.5053 -0.4729 -1.3839
  422THY    CA610549   3.482   4.673   1.730  0.0810 -0.4252  0.1357
  422THY    HA610550   3.422   4.737   1.667  1.2412 -0.4453 -1.0432
  423THY      O10551   6.052   8.254   8.614 -0.8866  0.0393  0.2881
  423THY     HO10552   5.957   8.248   8.594 -0.4109 -2.1367 -1.6566
  423THY    CA110553   6.101   8.126   8.637  0.8861 -0.8062  0.1349
  423THY    CA210554   6.225   8.096   8.687 -0.0264  0.6524 -0.5438
  423THY    CP110555   6.328   8.202   8.677 -0.1191  0.0595 -0.2282
  423THY    HP110556   6.289   8.302   8.653 -0.7313 -0.1078  0.0510
  423THY    CP210557   6.398   8.233   8.810 -0.6266  0.8386 -0.2021
  423THY    HP210558   6.448   8.330   8.815  0.6140  0.2463 -0.6905
  423THY    HP310559   6.325   8.245   8.891 -0.5491 -0.8904  0.1736
  423THY    HP410560   6.457   8.149   8.850  0.3713  1.3178 -0.6322
  423THY    CP310561   6.427   8.176   8.565 -0.0424 -0.1394 -0.4189
  423THY    HP510562   6.493   8.263   8.557 -0.5357  0.1847 -0.9965
  423THY    HP610563   6.488   8.088   8.589  1.8871  1.7426  2.1713
  423THY    HP710564   6.386   8.171   8.464  1.8838  0.7748 -1.3059
  423THY    CA310565   6.261   7.961   8.707 -0.4040  0.3019 -0.2460
  423THY    HA310566   6.361   7.938   8.742  0.4016  1.4978 -1.6356
  423THY    CA410567   6.159   7.865   8.691 -0.4903  0.6739  0.4299
  423THY    HA410568   6.182   7.761   8.713  0.2691  0.7302 -0.0977
  423THY    CA510569   6.033   7.897   8.646 -0.1035 -0.3565 -0.1245
  423THY    CM110570   5.933   7.782   8.631 -0.4206  0.3070  1.2858
  423THY    HM110571   5.971   7.689   8.587 -1.4724  0.1748  0.6144
  423THY    HM210572   5.884   7.770   8.728 -0.3459  2.1102  1.5939
  423THY    HM310573   5.854   7.802   8.558  0.1208 -1.4112  0.1586
  423THY    CA610574   6.004   8.026   8.614  0.0589  0.2788 -0.1055
  423THY    HA610575   5.908   8.051   8.570 -0.7942  3.2621  3.0637
  424THY      O10576   1.384   1.574   7.379  0.3224 -0.1017  0.0015
  424THY     HO10577   1.433   1.611   7.304  1.2823  1.6359  1.3775
  424THY    CA110578   1.438   1.455   7.401 -0.3838  0.2868 -0.4088
  424THY    CA210579   1.486   1.420   7.528 -0.2844 -0.0721  1.2141
  424THY    CP110580   1.483   1.520   7.646  0.4530 -0.5688 -0.9373
  424THY    HP110581   1.460   1.622   7.614  2.4170  0.3948  0.4684
  424THY    CP210582   1.381   1.487   7.752 -0.0736 -0.1658  0.7030
  424THY    HP210583   1.366   1.557   7.835  1.5133  1.0258  0.0352
  424THY    HP310584   1.287   1.494   7.696 -0.8871  3.9587  2.2496
  424THY    HP410585   1.397   1.384   7.784  0.0781 -0.2476  0.3763
  424THY    CP310586   1.623   1.536   7.711 -0.1035 -0.3648  0.9477
  424THY    HP510587   1.689   1.545   7.623 -0.7499  0.1690  0.5112
  424THY    HP610588   1.640   1.625   7.772  1.1423  0.5914 -0.6831
  424THY    HP710589   1.642   1.449   7.776 -1.3476 -1.3956 -0.0027
  424THY    CA310590   1.530   1.288   7.553 -0.5293 -0.4667  0.4053
  424THY    HA310591   1.572   1.264   7.651  0.7944  3.5082  1.0028
  424THY    CA410592   1.522   1.192   7.448 -0.2937 -0.0700  0.5163
  424THY    HA410593   1.551   1.088   7.458  0.6527  0.3049  1.9557
  424THY    CA510594   1.477   1.234   7.322  0.0192 -0.3591 -0.1720
  424THY    CM110595   1.467   1.147   7.202 -0.7733  0.8141 -0.2856
  424THY    HM110596   1.537   1.179   7.124  0.2111 -1.2186 -0.2975
  424THY    HM210597   1.487   1.041   7.220 -0.7563  0.9665  0.6751
  424THY    HM310598   1.367   1.149   7.158 -0.4381 -0.9206 -1.1802
  424THY    CA610599   1.428   1.365   7.299 -0.1497 -0.2998 -0.3252
  424THY    HA610600   1.385   1.401   7.206 -0.2554  3.0508  0.8920
  425THY      O10601   1.149   7.440   5.854  0.2790 -0.0350 -0.0625
  425THY     HO10602   1.102   7.523   5.876 -0.7211 -1.0076  1.6838
  425THY    CA110603   1.172   7.363   5.967 -0.0287 -0.4002 -0.3488
  425THY    CA210604   1.162   7.229   5.956 -0.1256  0.1507  0.0893
  425THY    CP110605   1.120   7.159   5.823 -0.5158  0.4665 -0.1454
  425THY    HP110606   1.089   7.235   5.750  2.7873  1.1910 -0.9580
  425THY    CP210607   1.239   7.077   5.760 -0.2262 -0.4495 -0.1807
  425THY    HP210608   1.209   7.040   5.661 -0.0179  0.0573 -0.4351
  425THY    HP310609   1.324   7.144   5.746 -2.1973  2.1845 -0.4158
  425THY    HP410610   1.240   6.988   5.824 -2.3524 -0.7713 -0.5075
  425THY    CP310611   0.995   7.073   5.854 -0.2120 -0.2861 -0.2022
  425THY    HP510612   1.027   6.997   5.927  0.1928  1.0407  1.0471
  425THY    HP610613   0.923   7.137   5.905  2.7936  1.6996  1.8385
  425THY    HP710614   0.950   7.026   5.766 -0.9174  1.9205 -1.0627
  425THY    CA310615   1.205   7.159   6.070 -0.0288 -0.0100  0.1559
  425THY    HA310616   1.214   7.050   6.067  0.8594 -0.0322  2.1029
  425THY    CA410617   1.255   7.224   6.188  0.3303 -0.4690 -0.0522
  425THY    HA410618   1.293   7.163   6.269  0.2545 -2.6539 -1.5666
  425THY    CA510619   1.268   7.363   6.185 -0.0565 -0.4144 -0.3727
  425THY    CM110620   1.334   7.436   6.302 -0.5296 -0.0189 -0.1571
  425THY    HM110621   1.315   7.402   6.404  0.4071  1.6080  0.5963
  425THY    HM210622   1.441   7.416   6.287 -0.3947 -1.1532  1.9325
  425THY    HM310623   1.315   7.543   6.292  2.4670  0.5327 -0.8030
  425THY    CA610624   1.220   7.432   6.072 -0.0545 -0.0594 -0.5310
  425THY    HA610625   1.235   7.539   6.065  0.6473 -0.0641  0.6283
  426THY      O10626   5.353   8.165   6.074  0.8557  0.0878  0.6877
  426THY     HO10627   5.329   8.137   6.164 -0.6761  1.4680  0.7521
  426THY    CA110628   5.480   8.209   6.062  0.2252  0.2230  0.1009
  426THY    CA210629   5.532   8.274   5.948 -0.3783 -0.5968 -0.8649
  426THY    CP110630   5.427   8.302   5.837  0.1596  0.3729  0.2976
  426THY    HP110631   5.368   8.210   5.831  0.2194  0.4049 -1.4589
  426THY    CP210632   5.339   8.425   5.861  0.1467 -0.1660  0.2560
  426THY    HP210633   5.409   8.507   5.876  0.7168 -0.9368  2.0462
  426THY    HP310634   5.277   8.452   5.774  1.5170 -2.1485 -1.4331
  426THY    HP410635   5.277   8.424   5.952  0.8047  1.7075  0.7601
  426THY    CP310636   5.483   8.323   5.693 -0.0217  0.0565 -0.1924
  426THY    HP510637   5.410   8.287   5.619 -0.6054 -0.6747  0.7035
  426THY    HP610638   5.508   8.427   5.671 -1.0193  0.8068  1.9306
  426THY    HP710639   5.571   8.262   5.670 -0.2811  0.1047 -1.4054
  426THY    CA310640   5.665   8.315   5.938  0.0755  0.6118 -0.3284
  426THY    HA310641   5.711   8.367   5.853 -0.6850 -0.5835 -1.5107
  426THY    CA410642   5.752   8.275   6.039 -0.1125  0.2978  0.1687
  426THY    HA410643   5.857   8.303   6.035 -0.5606  1.9507 -2.2315
  426THY    CA510644   5.708   8.197   6.142  0.2060  0.1595 -0.2885
  426THY    CM110645   5.812   8.149   6.237 -1.2402  0.2734  0.3829
  426THY    HM110646   5.806   8.197   6.335  0.7459 -0.1604  0.7525
  426THY    HM210647   5.793   8.042   6.249 -0.4731 -0.2510 -2.3541
  426THY    HM310648   5.915   8.148   6.200 -1.2282 -1.0048  0.4007
  426THY    CA610649   5.573   8.171   6.159 -0.1190 -0.4512 -0.0725
  426THY    HA610650   5.535   8.106   6.238 -1.8287  0.6294  0.0276
  427THY      O10651   6.585   5.668   1.354  0.0146 -0.8554  0.4221
  427THY     HO10652   6.672   5.637   1.384  0.2791  0.2932  0.9031
  427THY    CA110653   6.499   5.573   1.368  0.2198  0.0837 -0.0004
  427THY    CA210654   6.355   5.592   1.367 -0.5954  0.8354 -0.0896
  427THY    CP110655   6.305   5.733   1.330  0.3983 -0.9483 -0.3806
  427THY    HP110656   6.353   5.810   1.393  0.7104 -1.1899 -0.3173
  427THY    CP210657   6.343   5.781   1.193  1.0621  0.3419  0.5578
  427THY    HP210658   6.319   5.885   1.168  3.5920  0.7916 -0.3294
  427THY    HP310659   6.452   5.782   1.184  0.9942 -0.5515 -0.7595
  427THY    HP410660   6.300   5.716   1.115 -2.8217  0.8629  2.0206
  427THY    CP310661   6.155   5.753   1.352 -0.5777 -0.2104 -0.4575
  427THY    HP510662   6.116   5.855   1.341 -3.5753 -1.0706  1.0317
  427THY    HP610663   6.091   5.682   1.298 -0.8854 -1.0058  0.8930
  427THY    HP710664   6.119   5.734   1.454 -0.8565  2.5164  0.0223
  427THY    CA310665   6.271   5.479   1.396 -0.0367 -0.6229  0.5235
  427THY    HA310666   6.163   5.485   1.399  0.0181  1.3459 -0.0197
  427THY    CA410667   6.326   5.351   1.397 -0.8081  0.7791  0.9101
  427THY    HA410668   6.265   5.264   1.420 -0.6394  0.6584  0.8967
  427THY    CA510669   6.470   5.330   1.387 -0.4704 -0.5051  0.4938
  427THY    CM110670   6.539   5.197   1.388 -0.6054 -0.2315 -0.5785
  427THY    HM110671   6.588   5.185   1.485 -1.8844  0.0444  0.1208
  427THY    HM210672   6.458   5.124   1.374  0.3484 -1.2995 -0.6825
  427THY    HM310673   6.602   5.189   1.298 -0.7358 -1.3511 -0.5902
  427THY    CA610674   6.555   5.445   1.379 -0.2208 -0.6652  0.7648
  427THY    HA610675   6.661   5.422   1.387 -0.3269 -1.7485 -0.5342
  428THY      O10676   9.611   9.234   7.932 -0.4320 -0.8274 -0.0595
  428THY     HO10677   9.640   9.209   8.021 -0.4634  0.9525  0.4897
  428THY    CA110678   9.693   9.334   7.896 -0.2647  0.5421  0.7330
  428THY    CA210679   9.646   9.436   7.819  0.5718 -0.7147  0.5025
  428THY    CP110680   9.498   9.446   7.777  0.6923  0.6102 -0.2693
  428THY    HP110681   9.433   9.377   7.831  0.1416  0.4315 -1.1393
  428THY    CP210682   9.427   9.584   7.809 -0.0550 -0.6553  0.1799
  428THY    HP210683   9.333   9.595   7.754 -0.1964 -0.9398  0.3589
  428THY    HP310684   9.420   9.601   7.917 -1.0140 -1.6919  0.3108
  428THY    HP410685   9.501   9.660   7.786 -2.2592  0.9258 -2.2308
  428THY    CP310686   9.489   9.407   7.627  0.9991 -0.2346  0.2143
  428THY    HP510687   9.558   9.462   7.562  1.6543 -1.1657  0.0904
  428THY    HP610688   9.516   9.303   7.602 -1.5725 -0.4397 -2.1392
  428THY    HP710689   9.385   9.422   7.594  1.3461  0.0179 -0.8231
  428THY    CA310690   9.738   9.537   7.775 -0.5045 -0.4452  0.0610
  428THY    HA310691   9.708   9.617   7.709 -2.2289 -0.9390  0.1917
  428THY    CA410692   9.875   9.526   7.817  0.2210 -0.7184 -0.7197
  428THY    HA410693   9.946   9.605   7.797 -0.7737  0.1759 -0.7767
  428THY    CA510694   9.913   9.419   7.898 -0.0870 -0.4010 -0.3016
  428THY    CM110695  10.043   9.399   7.954 -0.5524  0.2601 -0.2175
  428THY    HM110696  10.110   9.386   7.869 -1.0368  1.6887 -0.8540
  428THY    HM210697  10.055   9.489   8.015  0.4105  0.3573 -0.5353
  428THY    HM310698  10.053   9.311   8.019  0.4116  1.7967  1.8650
  428THY    CA610699   9.823   9.324   7.938  0.2601 -0.0836 -0.0206
  428THY    HA610700   9.856   9.239   7.996  1.9866 -0.2779 -1.1971
  429THY      O10701   9.484   6.457   7.551 -0.2199 -0.3965  0.1253
  429THY     HO10702   9.411   6.519   7.567  1.3619  1.7367 -0.3786
  429THY    CA110703   9.485   6.364   7.649 -0.6195  0.3703 -0.6771
  429THY    CA210704   9.592   6.281   7.676 -0.4824  0.4759  0.0020
  429THY    CP110705   9.725   6.275   7.585 -0.0972  0.2870 -0.1023
  429THY    HP110706   9.719   6.350   7.505  0.5962  0.2967 -0.1518
  429THY    CP210707   9.843   6.315   7.675 -0.6484 -0.8047 -0.3728
  429THY    HP210708   9.810   6.403   7.731 -0.3358  0.2054 -1.7226
  429THY    HP310709   9.884   6.237   7.741  0.3152  1.2603  1.6168
  429THY    HP410710   9.927   6.352   7.615 -0.6536 -0.4494 -0.1621
  429THY    CP310711   9.754   6.134   7.528  0.8984  0.0089 -0.7612
  429THY    HP510712   9.758   6.060   7.609 -1.3979  1.8806  1.2228
  429THY    HP610713   9.673   6.085   7.473  1.3282  1.3550 -2.6866
  429THY    HP710714   9.845   6.129   7.467  2.4814 -1.2588  1.5775
  429THY    CA310715   9.588   6.204   7.791 -0.2074 -0.2073 -0.3587
  429THY    HA310716   9.674   6.142   7.814 -1.3908 -1.1350  2.0874
  429THY    CA410717   9.479   6.208   7.886  0.6853  0.0081 -0.3004
  429THY    HA410718   9.484   6.155   7.980 -0.2058 -0.1032 -0.3105
  429THY    CA510719   9.376   6.299   7.862 -0.5843 -0.2343 -0.4609
  429THY    CM110720   9.265   6.310   7.962  0.0795  0.0705 -0.1040
  429THY    HM110721   9.290   6.239   8.041  1.6627 -0.0557 -0.6853
  429THY    HM210722   9.247   6.407   8.011 -0.3790  0.5845 -1.2541
  429THY    HM310723   9.174   6.276   7.912 -0.2726  0.2541  0.4164
  429THY    CA610724   9.380   6.379   7.744 -0.4987 -0.1745  0.5022
  429THY    HA610725   9.292   6.437   7.717  0.6294  0.9195 -0.9906
  430THY      O10726   7.652   0.175   8.768  0.0867 -0.4603  0.3977
  430THY     HO10727   7.605   0.247   8.813  0.8149  1.2638 -1.4328
  430THY    CA110728   7.751   0.239   8.693  0.2609 -0.3671  0.8971
  430THY    CA210729   7.809   0.170   8.579 -0.4793  0.1174 -0.1061
  430THY    CP110730   7.786   0.019   8.542  0.2708 -0.0712 -0.2832
  430THY    HP110731   7.722  -0.031   8.616  3.1531 -1.9322  1.1593
  430THY    CP210732   7.710   0.004   8.412 -0.5315  0.4642 -0.0143
  430THY    HP210733   7.748   0.086   8.349  0.7274  0.1747  0.3413
  430THY    HP310734   7.729  -0.097   8.375 -1.9781 -0.1882  0.9524
  430THY    HP410735   7.602   0.014   8.421 -0.5468  1.7530 -1.2293
  430THY    CP310736   7.917  -0.064   8.551 -0.6354  0.9168  0.1491
  430THY    HP510737   7.969  -0.072   8.647  1.1418 -1.1671 -0.9040
  430THY    HP610738   7.889  -0.168   8.530 -1.5909  0.9955  0.9579
  430THY    HP710739   7.989  -0.050   8.470  1.3997  0.1309  1.7371
  430THY    CA310740   7.899   0.243   8.500 -1.1828  0.3394  0.2903
  430THY    HA310741   7.952   0.186   8.425 -0.5067  0.4349  0.6883
  430THY    CA410742   7.933   0.374   8.527  0.3476 -0.0335 -0.4458
  430THY    HA410743   8.001   0.428   8.461 -1.0321  2.7594  0.2428
  430THY    CA510744   7.882   0.433   8.642 -1.0478  0.9003  0.0492
  430THY    CM110745   7.941   0.571   8.672  1.0298 -0.5565 -0.3227
  430THY    HM110746   7.872   0.638   8.724 -0.4709 -1.3610 -1.2106
  430THY    HM210747   8.033   0.555   8.731  0.7229 -1.8201 -0.1535
  430THY    HM310748   7.970   0.628   8.583  3.1021  0.7706  1.1195
  430THY    CA610749   7.794   0.365   8.734  0.7723  0.7803  0.3092
  430THY    HA610750   7.769   0.416   8.827  1.6527 -0.7019  1.3930
  431THY      O10751   3.819   8.603   0.019  0.3718  0.4384 -0.2454
  431THY     HO10752   3.781   8.680  -0.027 -1.8274 -0.1073  0.5082
  431THY    CA110753   3.944   8.595  -0.035 -0.8956 -0.1522  0.4043
  431THY    CA210754   4.053   8.549   0.042  0.1907  1.0111  0.1616
  431THY    CP110755   4.024   8.503   0.187 -0.3370  0.0630 -0.1472
  431THY    HP110756   3.926   8.535   0.224 -1.4804 -3.5827  0.3454
  431THY    CP210757   4.023   8.352   0.199 -0.3410 -0.0775 -0.0550
  431THY    HP210758   4.121   8.308   0.176  0.8327  1.5308  1.5533
  431THY    HP310759   3.997   8.320   0.300 -1.1635 -1.0812 -0.5703
  431THY    HP410760   3.954   8.301   0.131  1.0465 -0.2275 -1.3968
  431THY    CP310761   4.136   8.562   0.288 -0.6548 -0.2714 -0.5054
  431THY    HP510762   4.172   8.665   0.284 -0.2497 -0.4344 -2.9032
  431THY    HP610763   4.103   8.545   0.391  1.1626 -2.6979 -0.2249
  431THY    HP710764   4.228   8.502   0.293  0.3630  1.3347  1.6335
  431THY    CA310765   4.189   8.553  -0.010  0.7138 -0.4182  0.1033
  431THY    HA310766   4.276   8.519   0.047  0.2744 -1.1497  0.3548
  431THY    CA410767   4.206   8.592  -0.145 -0.2512  0.6564 -0.0586
  431THY    HA410768   4.303   8.576  -0.192 -0.6818  2.2913 -1.6133
  431THY    CA510769   4.100   8.634  -0.224 -0.1509 -0.3624  0.2756
  431THY    CM110770   4.126   8.663  -0.369 -0.0951 -0.3851  0.4031
  431THY    HM110771   4.189   8.753  -0.367  0.2800 -0.6423  3.1017
  431THY    HM210772   4.168   8.574  -0.417 -0.2990 -1.5171  2.2388
  431THY    HM310773   4.031   8.684  -0.420  0.6166  1.0355 -0.4085
  431THY    CA610774   3.971   8.643  -0.163 -0.1175 -0.7356  0.7205
  431THY    HA610775   3.898   8.692  -0.227  1.3299  0.8925  0.2429
  432THY      O10776   9.244   2.360   4.372 -0.0519  0.2483  0.1095
  432THY     HO10777   9.243   2.265   4.351  0.5543  0.0538  0.8950
  432THY    CA110778   9.373   2.392   4.385 -0.2135  0.2252 -0.3624
  432THY    CA210779   9.413   2.487   4.479 -0.7581 -0.4362  0.2802
  432THY    CP110780   9.318   2.549   4.576  0.2395 -0.1565 -0.2352
  432THY    HP110781   9.217   2.544   4.535  1.0275 -1.1500 -2.1563
  432THY    CP210782   9.328   2.477   4.713  0.4804  0.3455  0.0494
  432THY    HP210783   9.326   2.368   4.706 -0.2174  0.3336  0.3143
  432THY    HP310784   9.417   2.505   4.771 -0.7364 -0.2682  2.3450
  432THY    HP410785   9.235   2.490   4.770 -0.3005 -1.2308 -0.8077
  432THY    CP310786   9.341   2.700   4.586  0.1412 -0.5715  0.6852
  432THY    HP510787   9.429   2.724   4.648 -1.1373 -0.8118  2.6706
  432THY    HP610788   9.359   2.739   4.485 -0.0330  1.3351  1.3507
  432THY    HP710789   9.258   2.759   4.626 -1.6714 -0.4743 -2.8355
  432THY    CA310790   9.553   2.517   4.489 -0.5133 -0.4908  0.2171
  432THY    HA310791   9.584   2.591   4.563 -0.3481  0.9014 -1.1701
  432THY    CA410792   9.645   2.454   4.406 -0.0690  0.3328  0.6486
  432THY    HA410793   9.750   2.480   4.417  0.1524  0.2325 -0.9592
  432THY    CA510794   9.599   2.370   4.301 -0.0254 -0.6953  0.5921
  432THY    CM110795   9.696   2.313   4.209  0.3850  0.6114  0.4238
  432THY    HM110796   9.683   2.205   4.200 -2.1308  0.8106  1.0773
  432THY    HM210797   9.665   2.342   4.108 -1.4473 -0.6695  0.5816
  432THY    HM310798   9.800   2.338   4.236  0.6158 -1.0647  1.2105
  432THY    CA610799   9.465   2.336   4.292  0.2808  0.2088 -0.3093
  432THY    HA610800   9.430   2.268   4.215  0.9694 -0.1149 -0.3417
  433THY      O10801   9.236   7.459   3.179 -0.3927 -0.1985  0.2304
  433THY     HO10802   9.303   7.512   3.133 -2.6912  2.5745 -0.2320
  433THY    CA110803   9.190   7.358   3.098  0.0737  0.0576 -0.1032
  433THY    CA210804   9.091   7.260   3.137 -0.3399 -0.2675 -1.1307
  433THY    CP110805   9.043   7.274   3.287  0.4026 -0.5337  0.2783
  433THY    HP110806   9.100   7.348   3.345  2.7834  0.0885 -2.5883
  433THY    CP210807   8.899   7.328   3.284  0.0431  0.7260 -0.2093
  433THY    HP210808   8.838   7.256   3.229  2.1222 -1.4924  0.2105
  433THY    HP310809   8.870   7.332   3.390  2.2812 -2.1987  0.6696
  433THY    HP410810   8.897   7.430   3.244 -0.7072  1.4169  1.4713
  433THY    CP310811   9.059   7.140   3.358  0.0377  0.0876  0.0129
  433THY    HP510812   8.996   7.065   3.309 -1.5859 -0.4910  2.7594
  433THY    HP610813   9.163   7.105   3.365  0.0148  0.0646  0.2781
  433THY    HP710814   9.019   7.148   3.460 -2.1791 -0.7567 -0.7466
  433THY    CA310815   9.046   7.164   3.044  0.5710 -0.7908 -0.6802
  433THY    HA310816   8.976   7.085   3.073 -0.6223  0.4507 -0.0557
  433THY    CA410817   9.094   7.169   2.914  0.3346 -0.6943 -0.0370
  433THY    HA410818   9.063   7.095   2.841  0.9925 -1.4536  0.4319
  433THY    CA510819   9.199   7.252   2.883  0.2024 -0.0284 -0.1227
  433THY    CM110820   9.254   7.245   2.741 -0.3209 -0.4618 -0.3088
  433THY    HM110821   9.187   7.192   2.672 -2.9811  2.9615 -0.6220
  433THY    HM210822   9.273   7.344   2.698  0.1455  0.1706  1.2853
  433THY    HM310823   9.355   7.204   2.744  0.5578  1.6227  0.7223
  433THY    CA610824   9.243   7.348   2.972 -0.2656  0.3041 -0.1976
  433THY    HA610825   9.324   7.415   2.945 -1.9714  1.5859 -2.6954
  434THY      O10826   4.709   0.905   1.426 -0.2001  0.0436  0.3594
  434THY     HO10827   4.786   0.959   1.399 -2.2357  4.0415  1.8032
  434THY    CA110828   4.672   0.838   1.312 -0.1724 -0.7361  0.4559
  434THY    CA210829   4.583   0.735   1.325  1.0739 -0.3572  0.4939
  434THY    CP110830   4.534   0.676   1.460  0.0418  0.3268 -0.0532
  434THY    HP110831   4.593   0.708   1.547 -0.7821 -0.6092  0.8862
  434THY    CP210832   4.391   0.724   1.492  0.5013 -0.3819  0.3037
  434THY    HP210833   4.324   0.713   1.406  0.2820  0.4635  0.3582
  434THY    HP310834   4.364   0.674   1.585 -0.0662  0.7302  0.7581
  434THY    HP410835   4.399   0.830   1.519  0.9484 -0.6827  1.4343
  434THY    CP310836   4.530   0.519   1.463  0.4704  0.1283 -0.2204
  434THY    HP510837   4.536   0.481   1.566 -0.9646 -1.4659 -0.6787
  434THY    HP610838   4.435   0.488   1.419 -0.8153  0.2682  2.2714
  434THY    HP710839   4.618   0.478   1.412  1.1530 -0.3120  1.2436
  434THY    CA310840   4.544   0.671   1.205  0.4655 -0.4565  0.0320
  434THY    HA310841   4.474   0.588   1.206 -1.3656  1.0150  1.4710
  434THY    CA410842   4.597   0.721   1.084  0.2003 -0.0323  0.0393
  434THY    HA410843   4.560   0.670   0.996 -3.2134 -1.4211  2.0495
  434THY    CA510844   4.685   0.823   1.077  0.0377  0.0647 -0.1005
  434THY    CM110845   4.742   0.864   0.944 -0.0493 -0.2709 -0.0946
  434THY    HM110846   4.674   0.930   0.889 -0.9883 -0.8562  0.3315
  434THY    HM210847   4.845   0.901   0.949  0.0154 -0.5229  0.5179
  434THY    HM310848   4.747   0.777   0.877 -1.2223  0.0070 -0.5675
  434THY    CA610849   4.727   0.886   1.193  0.6391  0.3931  0.2725
  434THY    HA610850   4.779   0.981   1.186 -0.7040  1.1639  0.4160
  435THY      O10851   5.021   4.561   5.256 -0.4285 -0.2739  0.4989
  435THY     HO10852   5.080   4.499   5.304  1.6982  1.6836  0.5976
  435THY    CA110853   5.057   4.559   5.127  0.4238 -0.8189 -0.4700
  435THY    CA210854   5.012   4.656   5.040 -0.4389  0.1710  0.1727
  435THY    CP110855   4.923   4.766   5.093 -0.3667  0.3069  0.8787
  435THY    HP110856   4.917   4.764   5.203 -0.6642 -0.9705  0.8553
  435THY    CP210857   4.975   4.902   5.045  0.1390 -0.7918 -0.5321
  435THY    HP210858   4.928   4.974   5.113 -1.9477 -1.6347 -1.0087
  435THY    HP310859   5.085   4.905   5.052  0.1005  1.4321  0.0841
  435THY    HP410860   4.960   4.913   4.937 -0.3041 -0.4732 -0.4405
  435THY    CP310861   4.781   4.736   5.049 -0.3591  0.0127  0.3112
  435THY    HP510862   4.753   4.635   5.081 -1.9523  0.7418  1.3438
  435THY    HP610863   4.702   4.800   5.090  1.3362  1.4214  1.4824
  435THY    HP710864   4.774   4.744   4.939  1.4301 -0.1141  0.1649
  435THY    CA310865   5.050   4.658   4.907  0.0319 -0.4243  0.1658
  435THY    HA310866   5.010   4.738   4.845  1.4894  1.8127  1.9377
  435THY    CA410867   5.131   4.553   4.859  0.5318 -0.1999  0.0338
  435THY    HA410868   5.157   4.540   4.754 -0.4562 -2.3429 -0.0135
  435THY    CA510869   5.177   4.457   4.944 -1.1566  0.4809 -0.3224
  435THY    CM110870   5.271   4.350   4.899 -0.1722  0.2021  0.5632
  435THY    HM110871   5.374   4.377   4.922 -0.3384  0.0178  1.5797
  435THY    HM210872   5.252   4.251   4.943  0.8489 -0.3956 -0.2856
  435THY    HM310873   5.273   4.339   4.790 -3.1971 -0.8966  0.5034
  435THY    CA610874   5.140   4.458   5.080 -0.3202 -0.2410  0.5575
  435THY    HA610875   5.180   4.381   5.144  2.3260  1.7022  1.4116
  436THY      O10876   7.944   9.733   6.768  0.1011 -0.9491  0.3295
  436THY     HO10877   7.916   9.787   6.692  1.8327 -1.7815 -0.9815
  436THY    CA110878   8.066   9.785   6.803  0.5207  0.6845 -0.7013
  436THY    CA210879   8.138   9.738   6.918  0.5785 -0.2858 -0.4245
  436THY    CP110880   8.077   9.628   7.012  0.7678  0.1525  0.2779
  436THY    HP110881   7.970   9.618   6.992  1.1317  0.6386 -2.2290
  436THY    CP210882   8.121   9.488   6.976 -0.0998  0.1657  0.0363
  436THY    HP210883   8.109   9.464   6.870 -0.4308  2.4245 -0.4877
  436THY    HP310884   8.228   9.472   6.996 -0.1611  0.1829  0.3824
  436THY    HP410885   8.066   9.418   7.039  2.0789  1.1747  3.3502
  436THY    CP310886   8.107   9.666   7.157  0.7712 -0.3978 -0.1481
  436THY    HP510887   8.214   9.648   7.170  1.5416  3.6915  0.4552
  436THY    HP610888   8.077   9.771   7.166  0.6053 -0.4784  0.2922
  436THY    HP710889   8.048   9.600   7.223 -0.8016 -0.5855 -1.6687
  436THY    CA310890   8.266   9.785   6.943  0.2117 -0.4776  0.4867
  436THY    HA310891   8.330   9.747   7.022  0.1238 -3.4704 -0.7829
  436THY    CA410892   8.317   9.884   6.856  0.1346  0.3918 -0.9345
  436THY    HA410893   8.422   9.904   6.875  0.3911 -1.6961  0.1910
  436THY    CA510894   8.238   9.933   6.753 -0.3629 -0.4982  0.0979
  436THY    CM110895   8.299  10.046   6.669 -0.0013 -0.7602 -0.9397
  436THY    HM110896   8.224  10.115   6.627  0.1413 -1.1206 -1.8161
  436THY    HM210897   8.367  10.099   6.736 -1.3133 -2.4847  1.9124
  436THY    HM310898   8.352  10.007   6.581  1.4806  1.7494 -1.2788
  436THY    CA610899   8.116   9.879   6.717 -0.2857 -0.9179 -0.2647
  436THY    HA610900   8.088   9.901   6.614  2.2574  0.2521 -0.8056
  437THY      O10901   6.597   6.387   4.954 -0.2762  0.3652  0.3288
  437THY     HO10902   6.603   6.439   4.872 -1.4089  0.9283  0.5915
  437THY    CA110903   6.470   6.345   4.949 -0.2826 -0.0194  1.0678
  437THY    CA210904   6.403   6.319   5.063 -0.4832  0.0468 -0.2577
  437THY    CP110905   6.473   6.345   5.198 -0.3620  0.5948  0.1693
  437THY    HP110906   6.583   6.349   5.195 -0.2927 -0.4984  0.6924
  437THY    CP210907   6.425   6.487   5.243 -0.4309  0.8430 -0.1682
  437THY    HP210908   6.487   6.532   5.321  0.4391 -1.3549  0.4923
  437THY    HP310909   6.445   6.560   5.164  0.7010  1.1611  0.3983
  437THY    HP410910   6.319   6.475   5.270 -0.1054 -0.6511  0.5693
  437THY    CP310911   6.437   6.241   5.305 -0.3268  0.5019  0.5226
  437THY    HP510912   6.476   6.142   5.277  0.4733  1.1126 -0.5573
  437THY    HP610913   6.491   6.268   5.397  0.4373  2.3416 -0.4310
  437THY    HP710914   6.331   6.232   5.329  0.0705 -2.1718  1.6826
  437THY    CA310915   6.267   6.280   5.049 -0.5695 -0.0005  0.2114
  437THY    HA310916   6.203   6.259   5.134 -1.7303  0.2625 -0.5708
  437THY    CA410917   6.208   6.260   4.922 -0.1633  0.3352  0.3362
  437THY    HA410918   6.108   6.218   4.910 -0.3763  1.0949 -0.6644
  437THY    CA510919   6.282   6.290   4.810  0.4179  0.0331  0.0286
  437THY    CM110920   6.221   6.281   4.673  0.1995 -0.1455  0.7230
  437THY    HM110921   6.121   6.324   4.671 -2.3616 -5.2787  0.6637
  437THY    HM210922   6.278   6.340   4.600  1.3738  0.0378  1.7624
  437THY    HM310923   6.220   6.179   4.632  1.3775  0.2065 -0.2539
  437THY    CA610924   6.415   6.330   4.824  0.0624  0.2894  0.1781
  437THY    HA610925   6.479   6.336   4.736  2.2762 -4.8065  1.0385
  438THY      O10926   8.016   8.707   8.116  0.5111  0.0618  0.0042
  438THY     HO10927   7.987   8.667   8.032 -2.3032 -1.2654  1.4967
  438THY    CA110928   8.152   8.719   8.102 -0.1667  0.3631 -0.0570
  438THY    CA210929   8.238   8.728   8.210  0.8113 -0.4454 -0.6778
  438THY    CP110930   8.189   8.739   8.355 -0.5848  0.5030 -0.5129
  438THY    HP110931   8.080   8.748   8.366 -0.9233 -1.6428 -1.6132
  438THY    CP210932   8.227   8.601   8.426 -0.0086 -0.0693 -0.1371
  438THY    HP210933   8.178   8.606   8.523  0.9506 -0.3335  0.3724
  438THY    HP310934   8.195   8.516   8.366  2.4885 -0.3293 -1.2426
  438THY    HP410935   8.334   8.581   8.441  0.3843  1.8710  0.0194
  438THY    CP310936   8.254   8.857   8.430  0.3891 -0.3657 -0.5201
  438THY    HP510937   8.242   8.939   8.358 -0.6811 -1.1873 -1.2884
  438THY    HP610938   8.208   8.883   8.526 -0.8516 -0.6071 -1.0391
  438THY    HP710939   8.361   8.839   8.443  0.4287 -0.3647 -0.8345
  438THY    CA310940   8.377   8.722   8.190  0.9952  0.2895  0.0067
  438THY    HA310941   8.444   8.714   8.275 -1.0361 -1.2257  1.5513
  438THY    CA410942   8.426   8.707   8.055  0.1055 -0.3570 -0.0783
  438THY    HA410943   8.532   8.687   8.040 -0.2655 -0.9569 -2.2874
  438THY    CA510944   8.332   8.696   7.949  0.7512 -0.5257  0.0741
  438THY    CM110945   8.386   8.679   7.808  0.3266 -0.6704 -0.0159
  438THY    HM110946   8.457   8.756   7.777  1.8559 -2.5357 -1.4542
  438THY    HM210947   8.445   8.587   7.815  0.1574 -0.6559  2.4996
  438THY    HM310948   8.314   8.667   7.726  0.8065 -0.6390 -0.4489
  438THY    CA610949   8.194   8.706   7.972 -0.6429  0.3076  0.1141
  438THY    HA610950   8.130   8.697   7.884  0.0200 -1.6877 -0.2157
  439THY      O10951   0.493   4.764   1.274  0.1234  0.7143  0.3765
  439THY     HO10952   0.450   4.847   1.249  1.7482  1.3383 -0.4436
  439THY    CA110953   0.603   4.758   1.188  0.1118 -0.0876 -0.4031
  439THY    CA210954   0.637   4.644   1.109 -0.4070 -0.1325 -0.2583
  439THY    CP110955   0.553   4.516   1.115  0.2082  0.5091 -0.3790
  439THY    HP110956   0.456   4.544   1.159 -0.2428 -0.2727 -0.8499
  439THY    CP210957   0.522   4.466   0.970 -0.2097 -0.1554  0.1032
  439THY    HP210958   0.485   4.546   0.904  2.0723 -0.5819 -1.8229
  439THY    HP310959   0.607   4.417   0.920 -0.6357 -0.6048 -0.1886
  439THY    HP410960   0.443   4.390   0.975  0.3425 -0.8242 -0.9855
  439THY    CP310961   0.603   4.407   1.208  0.8617  0.7712  0.0238
  439THY    HP510962   0.697   4.357   1.179 -0.6536 -3.5660  1.7904
  439THY    HP610963   0.615   4.465   1.300  0.2953  1.7601 -0.5167
  439THY    HP710964   0.525   4.330   1.208 -0.2528  1.8776  0.1998
  439THY    CA310965   0.757   4.658   1.027 -0.3488 -0.3579  0.7293
  439THY    HA310966   0.787   4.568   0.975 -1.8621 -0.3245 -0.2466
  439THY    CA410967   0.836   4.772   1.033 -0.1244  0.0759  0.1745
  439THY    HA410968   0.933   4.770   0.983  0.3899 -1.4676  1.1572
  439THY    CA510969   0.795   4.882   1.109  0.1680  0.6832  0.1021
  439THY    CM110970   0.890   4.995   1.119  0.4978  0.1335 -0.1795
  439THY    HM110971   0.869   5.056   1.208  2.0166 -1.5815  1.4639
  439THY    HM210972   0.995   4.969   1.105  0.4757  0.2757 -0.6085
  439THY    HM310973   0.870   5.063   1.036  2.3657 -0.0050 -0.7790
  439THY    CA610974   0.682   4.876   1.186  0.1567 -0.3455 -0.0261
  439THY    HA610975   0.662   4.946   1.266 -0.9749  0.0812 -0.6464
  440THY      O10976   8.680   3.801   4.235  0.3028 -0.1130  0.6915
  440THY     HO10977   8.748   3.731   4.235  0.8851  0.4319  0.4630
  440THY    CA110978   8.566   3.765   4.288  0.0453 -0.3762 -0.8148
  440THY    CA210979   8.440   3.821   4.254  0.0627  0.6408  0.1536
  440THY    CP110980   8.437   3.938   4.154  0.1089 -0.1651 -0.3914
  440THY    HP110981   8.518   4.003   4.188 -0.9958  1.1743 -0.2525
  440THY    CP210982   8.485   3.893   4.011 -0.0929  0.4076 -0.6007
  440THY    HP210983   8.573   3.827   4.016  1.8936  2.8347 -1.7098
  440THY    HP310984   8.404   3.837   3.962  0.2081  0.4123 -1.1083
  440THY    HP410985   8.515   3.982   3.955  0.7800  0.5428  0.0538
  440THY    CP310986   8.305   4.018   4.141 -0.3388 -0.2324 -0.3075
  440THY    HP510987   8.224   3.944   4.149  0.0097 -0.6534 -0.5992
  440THY    HP610988   8.304   4.095   4.219  0.0181  0.0922 -0.6229
  440THY    HP710989   8.296   4.079   4.051 -0.4223  0.2099 -0.0000
  440THY    CA310990   8.327   3.766   4.315 -0.5032 -0.2705 -0.3600
  440THY    HA310991   8.226   3.795   4.287 -1.3592 -1.0959  1.6520
  440THY    CA410992   8.335   3.668   4.416 -0.4854 -0.8253 -0.6827
  440THY    HA410993   8.249   3.632   4.473  0.4818  0.7346  1.9267
  440THY    CA510994   8.464   3.630   4.459  0.2571 -0.7664 -0.3661
  440THY    CM110995   8.467   3.529   4.568  0.5142 -0.0998 -0.4689
  440THY    HM110996   8.395   3.563   4.643 -0.0497 -0.3827 -0.8696
  440THY    HM210997   8.430   3.432   4.531  0.4602 -0.3563  0.2386
  440THY    HM310998   8.570   3.538   4.605  0.6860  0.7803 -1.1386
  440THY    CA610999   8.579   3.672   4.391  0.7222 -0.2851  0.3399
  440THY    HA611000   8.677   3.638   4.422  1.7881  0.7249 -1.7199
  441THY      O11001   4.578   4.048   4.779  0.3984  0.3570 -0.5405
  441THY     HO11002   4.612   3.973   4.727 -1.6432 -0.5345 -0.6876
  441THY    CA111003   4.685   4.110   4.826  0.7481  0.4724  0.4448
  441THY    CA211004   4.686   4.239   4.883 -0.0687  0.3793 -0.3821
  441THY    CP111005   4.559   4.319   4.890 -0.3049  0.8800 -0.0341
  441THY    HP111006   4.480   4.295   4.817 -0.8171  1.2492  0.3834
  441THY    CP211007   4.502   4.325   5.029  0.2640  0.2528  0.1425
  441THY    HP211008   4.406   4.378   5.024 -1.5405 -2.5394  2.1242
  441THY    HP311009   4.477   4.223   5.060  0.5814  0.3227  0.6409
  441THY    HP411010   4.568   4.384   5.093 -0.3258  0.7329  0.3123
  441THY    CP311011   4.598   4.460   4.842  0.1669  0.2633  0.2945
  441THY    HP511012   4.623   4.465   4.735 -0.4150  1.0707  0.1890
  441THY    HP611013   4.508   4.521   4.853  0.9898  1.3550  1.2117
  441THY    HP711014   4.678   4.509   4.898 -1.0861  2.1884  0.5046
  441THY    CA311015   4.804   4.283   4.940  0.5153  0.2653 -0.5925
  441THY    HA311016   4.811   4.378   4.990 -0.2400 -0.5178  1.0653
  441THY    CA411017   4.914   4.198   4.945  0.3151  0.4151 -0.1730
  441THY    HA411018   5.006   4.219   5.000  1.3498  0.3517 -1.8053
  441THY    CA511019   4.914   4.077   4.887 -0.2443 -0.2330  0.0653
  441THY    CM111020   5.026   3.983   4.898  0.8244  0.3026 -0.4117
  441THY    HM111021   5.023   3.924   4.990  2.0674  1.8453  0.6819
  441THY    HM211022   5.024   3.916   4.811 -0.6746 -1.3069  0.8064
  441THY    HM311023   5.116   4.046   4.905  0.7755  0.1851  1.7024
  441THY    CA611024   4.798   4.026   4.828 -0.5550 -1.0331  0.3620
  441THY    HA611025   4.797   3.924   4.790  2.2779 -0.2273 -2.2985
  442THY      O11026   4.404   9.787   2.615  0.0354 -0.1855  0.1071
  442THY     HO11027   4.322   9.792   2.563 -1.1041 -0.3166  1.7963
  442THY    CA111028   4.456   9.910   2.592  0.7287  0.3868 -0.2998
  442THY    CA211029   4.580   9.959   2.645  0.6345 -1.0205  0.5514
  442THY    CP111030   4.668   9.868   2.728 -0.0600  0.3104 -0.3911
  442THY    HP111031   4.620   9.770   2.736 -1.4405  1.0531  0.7610
  442THY    CP211032   4.810   9.853   2.658  0.2905 -0.5218  0.0221
  442THY    HP211033   4.873   9.924   2.712 -0.5416 -0.1925  0.5842
  442THY    HP311034   4.851   9.754   2.680  1.4822 -0.3326 -1.2197
  442THY    HP411035   4.801   9.873   2.550  3.1609 -0.9538 -0.3778
  442THY    CP311036   4.660   9.915   2.872 -0.0842  0.0279  0.6034
  442THY    HP511037   4.695  10.019   2.872  1.9972 -0.6277  0.6191
  442THY    HP611038   4.566   9.899   2.925 -0.2313 -2.4452 -0.2698
  442THY    HP711039   4.738   9.863   2.928  0.2844  0.1656  0.2213
  442THY    CA311040   4.613  10.098   2.618 -0.3094  0.1080  0.4398
  442THY    HA311041   4.705  10.138   2.660  1.3320 -3.2367  0.3339
  442THY    CA411042   4.535  10.178   2.535  0.5985 -0.0694 -0.4553
  442THY    HA411043   4.562  10.281   2.512  0.7231 -0.1401 -0.6342
  442THY    CA511044   4.415  10.126   2.482  0.1101 -0.1376 -0.5504
  442THY    CM111045   4.336  10.217   2.379 -0.3356 -0.2591 -0.5216
  442THY    HM111046   4.362  10.323   2.378  0.1251 -0.3188  1.3339
  442THY    HM211047   4.356  10.185   2.276 -2.0398 -1.1339 -0.6094
  442THY    HM311048   4.229  10.212   2.399 -0.1763 -0.3563  0.3474
  442THY    CA611049   4.380   9.991   2.502  0.4876 -0.5207  0.4847
  442THY    HA611050   4.295   9.947   2.450 -1.0961  1.5423  1.1709
  443THY      O11051   1.839   5.452   5.291  0.1707 -0.6587 -0.6216
  443THY     HO11052   1.819   5.484   5.380  0.0856 -0.4871 -0.7026
  443THY    CA111053   1.972   5.475   5.266 -0.2754  0.5455  0.1469
  443THY    CA211054   2.027   5.463   5.141  0.3398  0.3617  0.5460
  443THY    CP111055   1.960   5.437   5.015  0.2172 -0.0889 -0.0094
  443THY    HP111056   1.853   5.451   5.035  0.7827  1.4343  2.2280
  443THY    CP211057   1.984   5.537   4.897 -0.6457  0.3743  0.0601
  443THY    HP211058   1.981   5.639   4.937 -0.5365  0.3153  0.2203
  443THY    HP311059   2.081   5.515   4.851 -0.7581  0.3148 -0.1521
  443THY    HP411060   1.902   5.544   4.824  0.7089 -0.5036 -1.6352
  443THY    CP311061   1.993   5.297   4.964 -0.1952  0.0619 -0.2075
  443THY    HP511062   1.934   5.262   4.878 -0.1118 -1.1668  0.2069
  443THY    HP611063   2.098   5.297   4.932 -0.8153 -1.0649 -2.4278
  443THY    HP711064   1.973   5.226   5.046  0.5813  1.5259  1.2962
  443THY    CA311065   2.164   5.458   5.135 -0.3922  0.4933  0.0724
  443THY    HA311066   2.207   5.443   5.037 -1.3285  2.8073 -0.7597
  443THY    CA411067   2.247   5.496   5.240 -0.1114  0.2956  0.1099
  443THY    HA411068   2.353   5.475   5.239 -0.5554 -2.7415  2.2217
  443THY    CA511069   2.190   5.522   5.364  0.2683  0.2348 -0.1354
  443THY    CM111070   2.277   5.570   5.476  0.8271  0.4103 -0.0345
  443THY    HM111071   2.328   5.664   5.450  2.5722 -0.8733 -1.5161
  443THY    HM211072   2.221   5.587   5.569  0.6773  1.1649 -0.2556
  443THY    HM311073   2.356   5.502   5.509 -0.5949 -2.0402 -1.3443
  443THY    CA611074   2.051   5.505   5.375 -0.6336 -0.4488  0.6054
  443THY    HA611075   1.996   5.533   5.464 -1.5829 -0.5527  0.0635
  444THY      O11076   4.978   5.010   8.495  0.3414  0.0205  0.3603
  444THY     HO11077   4.917   5.031   8.421 -0.7238 -0.1171  1.1761
  444THY    CA111078   5.107   5.005   8.443  0.5373 -0.5791  1.3545
  444THY    CA211079   5.220   4.948   8.506 -0.4536  0.1024  0.4596
  444THY    CP111080   5.203   4.889   8.645  0.7671 -1.1583 -0.6803
  444THY    HP111081   5.157   4.964   8.710  2.6395 -2.1687  1.9575
  444THY    CP211082   5.114   4.770   8.649  0.7608 -0.0249 -0.5522
  444THY    HP211083   5.154   4.682   8.598  1.2751 -0.2540  0.2366
  444THY    HP311084   5.081   4.741   8.750  2.2013  1.1187  0.2913
  444THY    HP411085   5.024   4.804   8.596  1.2602  0.8359 -0.8842
  444THY    CP311086   5.336   4.861   8.715  0.2632 -0.2176  0.1984
  444THY    HP511087   5.326   4.817   8.814  1.5283 -0.4706  0.2366
  444THY    HP611088   5.400   4.786   8.665 -1.1326 -1.4438  0.2073
  444THY    HP711089   5.397   4.950   8.737  3.3624 -2.5305  1.7715
  444THY    CA311090   5.338   4.949   8.437  0.2472 -0.1101 -0.0964
  444THY    HA311091   5.433   4.907   8.469 -1.0390 -2.3538  1.0404
  444THY    CA411092   5.351   5.001   8.302 -0.0570  0.4984  0.2791
  444THY    HA411093   5.447   5.009   8.253 -0.0572 -1.4254 -0.0984
  444THY    CA511094   5.232   5.044   8.238 -0.0245 -0.1632 -0.0208
  444THY    CM111095   5.220   5.084   8.097 -0.5203 -0.0701  0.0146
  444THY    HM111096   5.254   5.187   8.080  1.9303 -0.0058  3.9325
  444THY    HM211097   5.283   5.039   8.020  0.2906 -0.1401  0.7014
  444THY    HM311098   5.117   5.090   8.061 -0.7014  1.1699  0.6839
  444THY    CA611099   5.115   5.046   8.311  0.8120  0.1189  0.1543
  444THY    HA611100   5.020   5.069   8.264 -0.3190 -2.8576  0.6973
  445THY      O11101   9.012   5.304   5.544 -0.6605  0.4507  0.4012
  445THY     HO11102   9.099   5.283   5.584 -0.6215  0.0232  0.0971
  445THY    CA111103   9.007   5.433   5.517  0.1206  0.8778  0.3091
  445THY    CA211104   8.892   5.508   5.511 -0.1857 -0.8153 -0.3098
  445THY    CP111105   8.759   5.449   5.551  0.5028  0.3564 -0.2399
  445THY    HP111106   8.759   5.341   5.534  0.1303  0.4536 -0.8815
  445THY    CP211107   8.732   5.473   5.697 -0.6183 -0.5133 -0.1909
  445THY    HP211108   8.733   5.582   5.708  0.9529 -0.5203  0.0388
  445THY    HP311109   8.641   5.427   5.737  0.4143 -1.7588  0.8443
  445THY    HP411110   8.814   5.437   5.761 -0.9523 -0.5459  0.2251
  445THY    CP311111   8.643   5.501   5.462  0.1098  0.2704 -0.2039
  445THY    HP511112   8.561   5.428   5.467 -0.4695  0.5330 -3.4642
  445THY    HP611113   8.616   5.607   5.472 -0.7532 -0.0129  0.5937
  445THY    HP711114   8.676   5.484   5.359  1.4231 -1.7574  0.4938
  445THY    CA311115   8.896   5.647   5.475  0.2219  1.1755  0.2565
  445THY    HA311116   8.815   5.719   5.474  0.5458  1.5395 -0.3095
  445THY    CA411117   9.025   5.701   5.447 -0.4339 -0.3924 -0.5732
  445THY    HA411118   9.028   5.807   5.421 -0.9183  0.0616  1.0979
  445THY    CA511119   9.141   5.626   5.452 -0.3042 -0.2396 -0.5000
  445THY    CM111120   9.279   5.689   5.422 -0.1271  0.3350  0.1474
  445THY    HM111121   9.331   5.693   5.519  0.4165  0.7976 -0.1601
  445THY    HM211122   9.332   5.644   5.338  2.2793 -0.5698  2.0362
  445THY    HM311123   9.271   5.793   5.390  0.8755  0.0875 -0.9645
  445THY    CA611124   9.133   5.495   5.482  0.3654 -0.0060 -0.5748
  445THY    HA611125   9.223   5.434   5.477  0.3841 -0.1057  0.6455
  446THY      O11126   5.852   6.360   6.650  0.0036  0.6001 -0.0907
  446THY     HO11127   5.856   6.295   6.577  0.9906  0.4575  0.0770
  446THY    CA111128   5.964   6.433   6.655  0.0962  0.1362 -0.2626
  446THY    CA211129   5.990   6.549   6.731 -0.2373  0.6246  0.3053
  446THY    CP111130   5.873   6.597   6.825  0.1332  0.3462  0.3376
  446THY    HP111131   5.788   6.529   6.809  0.1829  0.4538 -0.4349
  446THY    CP211132   5.896   6.584   6.973 -0.4603  0.6498  0.5958
  446THY    HP211133   5.935   6.483   6.990  0.3835  0.3369 -2.6248
  446THY    HP311134   5.967   6.655   7.019 -1.0139  0.3886  1.9080
  446THY    HP411135   5.810   6.601   7.039  0.5384 -1.2269  2.5099
  446THY    CP311136   5.819   6.730   6.789 -0.6571 -0.1806  0.3447
  446THY    HP511137   5.781   6.741   6.687  1.0658  0.6502 -0.2477
  446THY    HP611138   5.741   6.753   6.863  1.1530 -0.0337  2.3422
  446THY    HP711139   5.900   6.803   6.795  0.5102 -1.4736  1.1787
  446THY    CA311140   6.103   6.632   6.709 -0.6861 -0.1809 -0.0074
  446THY    HA311141   6.126   6.720   6.769 -0.6257 -0.4125  0.3146
  446THY    CA411142   6.197   6.582   6.620 -0.8501 -0.0420  0.0981
  446THY    HA411143   6.285   6.645   6.604 -1.0029  0.1877  0.1608
  446THY    CA511144   6.182   6.457   6.552 -0.0600 -0.4200 -0.7364
  446THY    CM111145   6.282   6.399   6.463 -0.2934  0.3353 -0.0196
  446THY    HM111146   6.335   6.477   6.407 -1.2452  0.7971 -0.2912
  446THY    HM211147   6.360   6.345   6.518 -2.6433 -0.7554  2.5052
  446THY    HM311148   6.225   6.339   6.390 -0.8497 -0.0014  0.6846
  446THY    CA611149   6.066   6.382   6.569  0.4329  0.4404 -0.3143
  446THY    HA611150   6.047   6.288   6.518  1.0398  1.7012 -3.0881
  447THY      O11151   5.632   2.999   8.755  0.5907  0.1371  0.2348
  447THY     HO11152   5.645   3.094   8.776 -1.7636  0.9285 -1.5106
  447THY    CA111153   5.710   2.984   8.646 -1.1572 -0.0594  0.1547
  447THY    CA211154   5.705   2.876   8.565 -0.0837  0.6420 -0.2248
  447THY    CP111155   5.606   2.757   8.594  0.3311 -0.0798 -0.3426
  447THY    HP111156   5.539   2.778   8.678 -1.4205  0.7256 -1.8692
  447THY    CP211157   5.517   2.726   8.468 -0.1709 -0.3414 -0.7197
  447THY    HP211158   5.445   2.652   8.504 -0.0259 -0.0690  0.1398
  447THY    HP311159   5.465   2.812   8.424 -1.6035 -0.2233  1.1051
  447THY    HP411160   5.583   2.693   8.388  1.8624  3.5777 -0.9059
  447THY    CP311161   5.678   2.636   8.643  0.1644 -0.1856  0.2901
  447THY    HP511162   5.754   2.602   8.572 -1.2541 -0.0514 -1.3743
  447THY    HP611163   5.696   2.640   8.751 -0.5054 -2.8791  0.5738
  447THY    HP711164   5.606   2.553   8.639 -1.4064  1.1431 -0.4250
  447THY    CA311165   5.800   2.852   8.464  0.2956 -1.0106  0.3761
  447THY    HA311166   5.803   2.762   8.403 -0.2351  0.1184 -1.3936
  447THY    CA411167   5.891   2.956   8.442 -0.8582  0.1293 -0.1832
  447THY    HA411168   5.972   2.945   8.370  0.1471  0.9903  0.7887
  447THY    CA511169   5.895   3.072   8.526  0.0791 -0.1193  0.1751
  447THY    CM111170   5.989   3.184   8.507 -0.2943 -0.0546  0.3752
  447THY    HM111171   6.071   3.164   8.577  0.8752 -0.7749 -1.1176
  447THY    HM211172   6.021   3.175   8.402 -3.2113  0.0476 -0.5945
  447THY    HM311173   5.942   3.283   8.517  0.8086  0.4433  0.8965
  447THY    CA611174   5.802   3.089   8.622 -0.1093 -0.8244 -0.2405
  447THY    HA611175   5.802   3.185   8.673  1.4081  0.2830 -2.2076
  448THY      O11176   0.217   7.051   6.572 -0.2569  0.2815  0.1171
  448THY     HO11177   0.170   6.968   6.587 -3.0733  0.8903 -3.7081
  448THY    CA111178   0.328   7.036   6.650  0.0501  0.2074  0.0519
  448THY    CA211179   0.451   7.083   6.604 -0.0011  0.4348  0.4938
  448THY    CP111180   0.460   7.177   6.484 -0.0050  0.3526 -0.5379
  448THY    HP111181   0.361   7.208   6.449 -0.8867 -0.3282  1.2351
  448THY    CP211182   0.545   7.297   6.529  0.0510 -0.2511  0.0256
  448THY    HP211183   0.517   7.381   6.464 -0.6506  2.4134  3.4913
  448THY    HP311184   0.541   7.326   6.634 -0.6815  0.2689 -0.1400
  448THY    HP411185   0.652   7.285   6.508  0.1352  0.4768  0.0030
  448THY    CP311186   0.523   7.107   6.363 -0.4504  0.2206  0.1342
  448THY    HP511187   0.533   7.192   6.295  1.9720  1.2188  1.5957
  448THY    HP611188   0.624   7.070   6.381  0.3153  1.5817 -1.1214
  448THY    HP711189   0.468   7.025   6.316 -0.3910 -0.7409  1.6840
  448THY    CA311190   0.568   7.044   6.666 -0.5788 -0.4460 -0.7246
  448THY    HA311191   0.660   7.089   6.632 -1.4431 -0.2176 -2.9194
  448THY    CA411192   0.564   6.973   6.792 -0.1671 -0.2996  0.1823
  448THY    HA411193   0.653   6.938   6.844 -0.3679 -2.3067 -0.7241
  448THY    CA511194   0.434   6.936   6.838 -0.1350 -0.6383 -0.3027
  448THY    CM111195   0.419   6.855   6.967  0.0814  0.4288  0.2588
  448THY    HM111196   0.315   6.828   6.991 -0.2791 -0.5764 -2.1120
  448THY    HM211197   0.473   6.761   6.952  0.1583  0.6212 -0.7817
  448THY    HM311198   0.468   6.907   7.049  0.9442  1.8308 -1.0929
  448THY    CA611199   0.313   6.967   6.768  0.0758 -0.1808  0.0500
  448THY    HA611200   0.221   6.921   6.802 -0.3149  0.7415  0.2577
  449THY      O11201   0.552   6.892   9.026 -0.7026  0.0562 -0.5684
  449THY     HO11202   0.505   6.810   9.050  1.6018 -0.8502  1.3289
  449THY    CA111203   0.461   6.986   8.991  0.1349 -0.6049  0.1500
  449THY    CA211204   0.497   7.119   8.960 -0.3201  0.6468 -0.6592
  449THY    CP111205   0.635   7.162   8.992 -0.8542  0.4136  0.0291
  449THY    HP111206   0.699   7.078   9.022  0.2755  0.5867 -1.7841
  449THY    CP211207   0.710   7.232   8.875  0.4723 -0.2801 -0.2857
  449THY    HP211208   0.734   7.162   8.794 -1.1464  1.4665 -2.3848
  449THY    HP311209   0.646   7.311   8.834 -1.1286 -0.6034  1.4598
  449THY    HP411210   0.798   7.280   8.919 -0.3609 -0.3267  1.5103
  449THY    CP311211   0.633   7.254   9.117 -0.7188 -0.4418  0.8280
  449THY    HP511212   0.578   7.197   9.193 -0.2710  0.6218  1.9919
  449THY    HP611213   0.733   7.275   9.158 -0.6895  0.9770  0.0852
  449THY    HP711214   0.589   7.351   9.093  1.5872  0.5829  0.4387
  449THY    CA311215   0.404   7.211   8.912  0.1504  0.2304  0.2019
  449THY    HA311216   0.436   7.314   8.899 -0.6946  0.3488 -1.2083
  449THY    CA411217   0.276   7.159   8.883  0.3104 -0.6122 -0.1654
  449THY    HA411218   0.196   7.218   8.839 -0.4474 -1.8367 -0.4819
  449THY    CA511219   0.244   7.028   8.903 -0.5462 -0.4548  0.9446
  449THY    CM111220   0.117   6.972   8.865 -0.5284 -0.3114  0.2048
  449THY    HM111221   0.115   6.862   8.857  0.1489 -0.4582  1.6349
  449THY    HM211222   0.041   6.995   8.940 -0.1611 -2.2113  1.2443
  449THY    HM311223   0.091   7.023   8.772  1.0317 -1.0272 -0.6669
  449THY    CA611224   0.335   6.946   8.968  0.0401  0.6719 -0.7723
  449THY    HA611225   0.311   6.844   8.996  2.2528 -0.0239 -1.2523
  450THY      O11226   1.994   0.967   5.597  0.3666 -0.0379  0.5800
  450THY     HO11227   1.897   0.963   5.598  0.3840 -0.7280 -0.1158
  450THY    CA111228   2.018   1.037   5.482  0.1129  0.1736 -0.5663
  450THY    CA211229   2.142   1.083   5.437  0.0931  0.2510  0.4476
  450THY    CP111230   2.269   1.049   5.531  0.8595  0.2530  0.1205
  450THY    HP111231   2.230   1.052   5.633  1.2770 -0.1284  0.2929
  450THY    CP211232   2.317   0.908   5.518 -0.2334 -0.2798  0.5173
  450THY    HP211233   2.349   0.891   5.415 -2.8880 -1.3895 -0.2101
  450THY    HP311234   2.397   0.888   5.591  1.5720 -0.7267 -1.4971
  450THY    HP411235   2.233   0.842   5.542 -2.3268  3.0039  3.0860
  450THY    CP311236   2.376   1.152   5.533 -0.0717 -0.9265  0.2356
  450THY    HP511237   2.339   1.253   5.509 -2.0441 -2.1367 -2.2671
  450THY    HP611238   2.422   1.143   5.632  1.9570  0.5573 -0.4884
  450THY    HP711239   2.445   1.133   5.449 -3.7590 -1.9084 -2.8539
  450THY    CA311240   2.154   1.146   5.312 -0.8734  0.7196 -0.6033
  450THY    HA311241   2.253   1.166   5.273 -0.3396  1.1674  0.8935
  450THY    CA411242   2.044   1.179   5.232  0.5739 -0.7828 -0.6787
  450THY    HA411243   2.053   1.224   5.134  1.1649  0.9733  0.1384
  450THY    CA511244   1.920   1.128   5.279  0.7291 -0.3023 -0.1630
  450THY    CM111245   1.790   1.147   5.202 -0.6483 -0.7657  0.2850
  450THY    HM111246   1.767   1.254   5.198 -0.3193 -0.6204  1.7732
  450THY    HM211247   1.804   1.121   5.096  1.6496  0.5926  0.1783
  450THY    HM311248   1.706   1.099   5.253  0.0214 -1.0092  1.2097
  450THY    CA611249   1.911   1.062   5.402 -0.2019  0.6862 -0.0236
  450THY    HA611250   1.814   1.033   5.440 -0.1050 -0.1517 -0.3897
  451THY      O11251   4.672   0.478   0.797 -0.0454  0.7333  0.1697
  451THY     HO11252   4.587   0.500   0.755 -0.4664 -0.5356  0.3071
  451THY    CA111253   4.679   0.347   0.836 -0.3138 -0.6103 -0.1216
  451THY    CA211254   4.753   0.299   0.945  0.7080 -0.7422  0.2260
  451THY    CP111255   4.829   0.390   1.042 -0.4864 -0.6537 -0.1295
  451THY    HP111256   4.816   0.495   1.013  1.6156 -1.1035 -3.1611
  451THY    CP211257   4.779   0.364   1.185  0.2615 -0.2578 -0.5153
  451THY    HP211258   4.670   0.368   1.197  0.4721  2.8342  1.7099
  451THY    HP311259   4.822   0.268   1.215 -0.7483 -0.8464 -0.9277
  451THY    HP411260   4.821   0.438   1.254 -2.0637  1.1155 -0.4529
  451THY    CP311261   4.978   0.360   1.022 -0.9213 -0.4292  0.6268
  451THY    HP511262   5.009   0.368   0.917 -1.5985 -0.9606  0.3780
  451THY    HP611263   5.047   0.426   1.075  1.3582 -2.1888  0.0069
  451THY    HP711264   4.996   0.255   1.045  0.5415 -0.3969 -0.2271
  451THY    CA311265   4.755   0.159   0.971 -0.2481  0.2654 -0.4576
  451THY    HA311266   4.815   0.114   1.050  0.9366 -1.2101 -2.1032
  451THY    CA411267   4.673   0.073   0.902  0.8086 -0.5176  0.1151
  451THY    HA411268   4.668  -0.031   0.936  2.6583 -0.9086 -0.7028
  451THY    CA511269   4.589   0.124   0.791  0.0742  0.0594 -0.0813
  451THY    CM111270   4.515   0.031   0.700  0.4825 -0.4224  0.1967
  451THY    HM111271   4.557   0.033   0.599  2.4378  0.0008  0.9730
  451THY    HM211272   4.524  -0.078   0.716  2.0058 -0.4164 -0.4936
  451THY    HM311273   4.408   0.053   0.703  0.6526  0.5711 -0.8428
  451THY    CA611274   4.596   0.259   0.763  0.0368  0.7588 -0.3849
  451THY    HA611275   4.531   0.288   0.681  0.7437 -0.3517 -1.3872
  452THY      O11276   6.939   4.944   9.873  0.2237  0.4160 -0.1206
  452THY     HO11277   6.930   4.953   9.970 -1.1564  0.3033 -0.2164
  452THY    CA111278   6.889   5.062   9.819 -0.2348 -0.1084  0.7089
  452THY    CA211279   6.832   5.057   9.689  0.4898  0.4109 -0.0784
  452THY    CP111280   6.829   4.929   9.607 -0.4740  0.7221 -0.5503
  452THY    HP111281   6.913   4.861   9.619 -0.7934  0.2298 -1.0549
  452THY    CP211282   6.707   4.844   9.650 -0.2332 -0.4596  0.0445
  452THY    HP211283   6.702   4.754   9.588  0.7517  1.3093 -2.7477
  452THY    HP311284   6.713   4.830   9.759  0.8738 -1.3359 -0.1187
  452THY    HP411285   6.620   4.906   9.627 -0.4917 -1.3928 -1.6323
  452THY    CP311286   6.823   4.951   9.454  0.3107 -0.7487  0.2309
  452THY    HP511287   6.734   5.007   9.424  0.7478 -0.3700 -0.3783
  452THY    HP611288   6.913   5.001   9.416  0.3879 -1.7734 -1.0163
  452THY    HP711289   6.826   4.853   9.405 -0.1730 -1.8859  2.3251
  452THY    CA311290   6.770   5.176   9.640  0.0971 -0.4574  0.0963
  452THY    HA311291   6.711   5.172   9.549  1.5259 -3.3627 -0.8309
  452THY    CA411292   6.773   5.297   9.727 -0.7812  0.3881 -0.1487
  452THY    HA411293   6.717   5.387   9.702  0.5428  1.9897  2.2669
  452THY    CA511294   6.833   5.296   9.853 -0.5510  0.7990  0.2132
  452THY    CM111295   6.830   5.415   9.938  0.2229 -0.7869  0.2333
  452THY    HM111296   6.914   5.479   9.910 -0.3129 -0.2260 -0.1053
  452THY    HM211297   6.741   5.477   9.928  1.4560  1.0649  0.2908
  452THY    HM311298   6.844   5.388  10.044  3.6225  0.0544  0.1010
  452THY    CA611299   6.891   5.179   9.895  0.4739  0.2291 -0.6306
  452THY    HA611300   6.916   5.172  10.000 -2.7927 -0.8046  0.1827
  453THY      O11301   0.016   7.639   6.940  0.4857  0.3557 -0.1559
  453THY     HO11302  -0.066   7.690   6.925  0.0076 -0.8090 -1.6962
  453THY    CA111303  -0.022   7.523   6.897  0.0533  0.5441 -0.5643
  453THY    CA211304   0.069   7.429   6.840  0.4793  0.0184  0.0843
  453THY    CP111305   0.216   7.439   6.869  1.0468  0.4060 -0.3529
  453THY    HP111306   0.228   7.514   6.948  0.2238  2.3209 -1.9653
  453THY    CP211307   0.274   7.307   6.912  0.6561  0.1646 -0.1654
  453THY    HP211308   0.380   7.312   6.940  0.3755 -0.6359  1.1008
  453THY    HP311309   0.212   7.278   6.997  2.0311 -1.4374  0.3389
  453THY    HP411310   0.268   7.228   6.836 -0.2951  1.1379 -1.1411
  453THY    CP311311   0.278   7.491   6.732 -0.5421  0.0549 -0.2861
  453THY    HP511312   0.274   7.409   6.659  0.4622  0.5044 -0.8638
  453THY    HP611313   0.227   7.583   6.698 -1.0452 -0.6748 -1.5978
  453THY    HP711314   0.384   7.511   6.750 -0.5835  0.5186 -0.5426
  453THY    CA311315   0.019   7.330   6.753 -0.2028 -0.6307 -0.5619
  453THY    HA311316   0.090   7.267   6.701  1.0048 -0.3240  0.6536
  453THY    CA411317  -0.118   7.305   6.742 -0.2450  0.3523 -0.0235
  453THY    HA411318  -0.158   7.217   6.692 -0.1494  0.9253 -1.1442
  453THY    CA511319  -0.207   7.384   6.813  0.4041  0.2886  0.0770
  453THY    CM111320  -0.356   7.362   6.812 -0.4673  0.6995  0.1050
  453THY    HM111321  -0.410   7.457   6.818  0.5478  1.3690 -0.7172
  453THY    HM211322  -0.389   7.317   6.717  2.0341  1.3528 -1.1865
  453THY    HM311323  -0.395   7.298   6.891  0.6764  1.5715  1.4226
  453THY    CA611324  -0.156   7.496   6.892 -0.0036  0.2100 -0.3368
  453THY    HA611325  -0.225   7.564   6.941 -0.6228 -1.8057  1.7719
  454THY      O11326   3.508   8.709   4.711 -0.0135 -0.1337 -0.8805
  454THY     HO11327   3.468   8.644   4.772 -1.7397 -0.0208 -1.8336
  454THY    CA111328   3.447   8.700   4.596  0.5744  0.3776 -0.5077
  454THY    CA211329   3.511   8.725   4.472 -0.6358 -0.2065 -0.4440
  454THY    CP111330   3.657   8.752   4.469  1.1011  0.0407  0.2587
  454THY    HP111331   3.704   8.730   4.565  0.0839  2.4203  1.4074
  454THY    CP211332   3.725   8.664   4.369 -0.4519 -0.0958 -0.2435
  454THY    HP211333   3.718   8.560   4.405  0.4430  0.1385  0.6664
  454THY    HP311334   3.664   8.669   4.278 -1.9946  0.7152  0.8036
  454THY    HP411335   3.829   8.687   4.344 -0.5403 -0.2964 -0.8248
  454THY    CP311336   3.680   8.900   4.420  0.1502  0.6724 -0.2028
  454THY    HP511337   3.789   8.913   4.419  0.6365 -2.6359 -2.1381
  454THY    HP611338   3.652   8.916   4.316  1.4253 -0.0940 -0.6846
  454THY    HP711339   3.639   8.975   4.490 -1.5549  0.8415 -1.3326
  454THY    CA311340   3.431   8.732   4.358  0.5622 -0.0310  0.7144
  454THY    HA311341   3.476   8.754   4.262  3.2784 -3.0621  1.1142
  454THY    CA411342   3.294   8.714   4.376  0.1394  0.2545 -0.8522
  454THY    HA411343   3.223   8.730   4.296 -1.0563 -0.2802  0.0750
  454THY    CA511344   3.233   8.692   4.495 -0.5344 -0.1271  0.6204
  454THY    CM111345   3.086   8.684   4.514  0.6637 -0.1064 -0.1837
  454THY    HM111346   3.063   8.643   4.613 -2.2563 -2.3975 -1.6321
  454THY    HM211347   3.046   8.785   4.504 -2.1889 -0.9829  1.3651
  454THY    HM311348   3.041   8.623   4.434  0.4463  1.3205 -1.1761
  454THY    CA611349   3.315   8.676   4.607  0.2535  0.5331  0.2201
  454THY    HA611350   3.274   8.673   4.708  1.7788  1.8629  0.9401
  455THY      O11351   4.185   9.293   8.987 -0.4414  0.3681 -0.3311
  455THY     HO11352   4.261   9.350   9.008 -0.0778 -0.9236  2.3967
  455THY    CA111353   4.154   9.316   8.864  0.1303  0.2080  0.2873
  455THY    CA211354   4.023   9.307   8.814 -0.0247  0.1749 -0.1246
  455THY    CP111355   3.909   9.274   8.915 -0.0130  0.3568 -0.3084
  455THY    HP111356   3.956   9.219   8.998  0.2257  1.7902  0.5562
  455THY    CP211357   3.828   9.398   8.972  0.2893  0.1167  0.3715
  455THY    HP211358   3.763   9.441   8.896  1.5837  0.4759 -0.5627
  455THY    HP311359   3.770   9.368   9.061 -1.2558 -1.9603 -1.2189
  455THY    HP411360   3.891   9.474   9.020  0.1148 -0.0990  0.9633
  455THY    CP311361   3.813   9.174   8.848 -0.2984 -0.3400  0.6197
  455THY    HP511362   3.877   9.090   8.819 -2.2985 -1.2471 -1.4947
  455THY    HP611363   3.726   9.147   8.910 -0.5239  1.7415  1.2683
  455THY    HP711364   3.769   9.222   8.760  0.7054  0.5733  0.6141
  455THY    CA311365   3.991   9.355   8.687  0.1703 -0.2406 -0.4810
  455THY    HA311366   3.891   9.361   8.646 -0.3773  1.4406  1.0036
  455THY    CA411367   4.092   9.387   8.603 -0.8154 -0.2739  0.0355
  455THY    HA411368   4.062   9.425   8.506  0.1013  0.6176  0.0858
  455THY    CA511369   4.223   9.390   8.647 -0.5559 -0.3888 -0.4020
  455THY    CM111370   4.335   9.431   8.559 -0.4825  0.0226 -0.4140
  455THY    HM111371   4.338   9.361   8.476 -1.5889 -0.1620 -0.3148
  455THY    HM211372   4.325   9.531   8.515 -0.3756 -0.7896 -2.3523
  455THY    HM311373   4.431   9.432   8.612  1.2190  0.6688 -3.3171
  455THY    CA611374   4.252   9.353   8.774  0.5906 -0.2261  0.1589
  455THY    HA611375   4.355   9.364   8.805  0.6300  0.5986 -0.2277
  456THY      O11376   6.575   0.385   1.825  0.7071  0.3438  0.1120
  456THY     HO11377   6.558   0.405   1.919  2.0112  1.7035  0.0904
  456THY    CA111378   6.456   0.323   1.787 -0.3060 -0.0969  0.2362
  456THY    CA211379   6.415   0.327   1.655  0.2076  0.4945  0.0845
  456THY    CP111380   6.501   0.385   1.547 -0.5265  0.3969  0.1046
  456THY    HP111381   6.580   0.456   1.576  0.4075 -1.0350  1.2053
  456THY    CP211382   6.593   0.273   1.491  0.6873  0.2732 -0.2645
  456THY    HP211383   6.657   0.308   1.409  0.3564  0.0720 -0.6101
  456THY    HP311384   6.646   0.209   1.563  1.1658  0.5971 -0.3251
  456THY    HP411385   6.516   0.212   1.443  0.1607  1.8520 -1.5398
  456THY    CP311386   6.419   0.450   1.426  0.0183 -0.3237  0.5144
  456THY    HP511387   6.357   0.519   1.483  1.8101 -2.0260  4.9881
  456THY    HP611388   6.491   0.507   1.366 -0.2057  1.1530  1.6052
  456THY    HP711389   6.377   0.371   1.362  3.4391 -1.0229 -1.0981
  456THY    CA311390   6.304   0.245   1.614  0.6272  0.6357 -0.4507
  456THY    HA311391   6.282   0.226   1.509  1.1715 -1.1230 -0.2919
  456THY    CA411392   6.234   0.172   1.713  0.7672 -0.6279 -0.0400
  456THY    HA411393   6.143   0.121   1.685 -0.4638  1.8986 -0.8741
  456THY    CA511394   6.272   0.174   1.848 -0.2993 -0.3197 -0.0670
  456THY    CM111395   6.182   0.134   1.951  0.1230 -0.2284 -0.7818
  456THY    HM111396   6.128   0.047   1.910 -0.6722  1.0888 -2.6412
  456THY    HM211397   6.232   0.114   2.046 -0.2884  0.7474 -0.3450
  456THY    HM311398   6.109   0.213   1.972 -0.8778 -1.4048  0.4260
  456THY    CA611399   6.383   0.251   1.879 -0.5390  0.6413 -0.3059
  456THY    HA611400   6.398   0.277   1.983 -1.4401  1.7682 -0.4388
  457THY      O11401   1.899   9.882   5.598  0.5158  0.2293  0.6039
  457THY     HO11402   1.950   9.890   5.516  0.7090 -1.3620  0.5506
  457THY    CA111403   1.777   9.838   5.558  0.6495  0.5669 -0.6967
  457THY    CA211404   1.697   9.761   5.649  0.0136  0.2755  0.4896
  457THY    CP111405   1.745   9.724   5.783  1.0458  0.0424  0.3377
  457THY    HP111406   1.832   9.785   5.812  0.4548 -0.6259  3.9979
  457THY    CP211407   1.633   9.758   5.889 -0.4709  0.2321 -0.5760
  457THY    HP211408   1.669   9.748   5.992  1.1391  1.2014 -0.9985
  457THY    HP311409   1.598   9.860   5.871 -0.1853  0.1918 -1.4112
  457THY    HP411410   1.542   9.700   5.875 -0.8117  0.4455  0.6914
  457THY    CP311411   1.777   9.575   5.779  0.1064 -0.7682  0.3825
  457THY    HP511412   1.845   9.562   5.694  0.4683 -1.8943  0.8285
  457THY    HP611413   1.839   9.544   5.864  0.6099 -0.2130  0.2243
  457THY    HP711414   1.687   9.516   5.759  0.5318 -1.2749 -0.0963
  457THY    CA311415   1.578   9.700   5.594 -0.4989  0.2284  0.6919
  457THY    HA311416   1.530   9.618   5.648  0.1960 -1.4496 -1.1051
  457THY    CA411417   1.539   9.725   5.462  0.8294 -1.1442  0.3083
  457THY    HA411418   1.442   9.698   5.422  0.5419 -1.6550  1.3267
  457THY    CA511419   1.611   9.810   5.382 -1.2767 -0.9263  0.2447
  457THY    CM111420   1.554   9.851   5.244  0.0094 -0.2734 -0.2196
  457THY    HM111421   1.470   9.786   5.218 -1.0725  1.6683 -1.9041
  457THY    HM211422   1.522   9.956   5.248  0.6260 -0.0353 -1.1968
  457THY    HM311423   1.630   9.850   5.165  0.1969 -2.3652 -0.0470
  457THY    CA611424   1.731   9.863   5.426 -0.1053 -0.3208 -0.5513
  457THY    HA611425   1.782   9.930   5.358  0.8340 -1.8680 -1.4140
  458THY      O11426   6.960   7.705   0.590 -0.5140 -0.0907  0.3533
  458THY     HO11427   6.884   7.724   0.648 -0.5849  0.4500  0.0935
  458THY    CA111428   7.072   7.759   0.637  0.3114 -0.3941 -0.7041
  458THY    CA211429   7.192   7.687   0.657  0.1005  0.9617  0.7296
  458THY    CP111430   7.209   7.544   0.597  0.5357  0.6654  0.0613
  458THY    HP111431   7.119   7.505   0.549 -0.1932 -1.0545  2.6586
  458THY    CP211432   7.319   7.526   0.496 -0.2049 -0.4058  0.2790
  458THY    HP211433   7.334   7.622   0.445 -1.5519  0.5515  1.5967
  458THY    HP311434   7.415   7.526   0.549  0.3583  0.3950 -0.7215
  458THY    HP411435   7.318   7.432   0.439  1.5318  0.3701 -1.1111
  458THY    CP311436   7.232   7.440   0.705 -1.0947  0.0330 -0.0772
  458THY    HP511437   7.144   7.432   0.770 -1.6458  0.8411 -0.7020
  458THY    HP611438   7.253   7.343   0.658  1.9048  1.0339 -1.0257
  458THY    HP711439   7.318   7.475   0.763 -1.2459  0.5990 -0.1825
  458THY    CA311440   7.294   7.751   0.724  0.2256  0.5681 -0.2055
  458THY    HA311441   7.378   7.689   0.752 -0.3438  0.4483  1.3139
  458THY    CA411442   7.284   7.880   0.768 -0.6018 -0.7150  0.1717
  458THY    HA411443   7.360   7.927   0.829  0.0874 -0.6823 -0.6946
  458THY    CA511444   7.165   7.943   0.759  0.9445 -0.1784  0.3993
  458THY    CM111445   7.144   8.075   0.827 -0.2045  0.5888 -0.1375
  458THY    HM111446   7.220   8.141   0.783  0.7991 -1.8336 -2.3090
  458THY    HM211447   7.043   8.111   0.804 -1.2292 -2.6326 -1.2897
  458THY    HM311448   7.161   8.074   0.935  2.0587  0.8023 -0.4457
  458THY    CA611449   7.057   7.887   0.689  0.0517  0.3797  0.0490
  458THY    HA611450   6.962   7.938   0.676  0.1443  0.4278 -0.4876
  459THY      O11451   4.042   4.182   9.019 -0.5347  0.2760  0.1086
  459THY     HO11452   3.994   4.201   9.101  0.5423 -0.4874  0.9440
  459THY    CA111453   4.096   4.294   8.983 -1.0551  0.0439 -0.3964
  459THY    CA211454   4.212   4.308   8.900  0.2342 -0.6735 -0.4873
  459THY    CP111455   4.284   4.183   8.850  0.8337  0.5328 -0.8789
  459THY    HP111456   4.271   4.106   8.927  0.7826  2.7530  1.4804
  459THY    CP211457   4.221   4.126   8.722 -1.0134 -0.0316 -0.1169
  459THY    HP211458   4.121   4.083   8.741 -0.8346 -0.4873 -0.2005
  459THY    HP311459   4.222   4.202   8.643 -0.5785  0.1654  0.0785
  459THY    HP411460   4.292   4.046   8.701  1.2790  1.3136  2.0312
  459THY    CP311461   4.431   4.201   8.848 -0.2758  0.1708 -0.3959
  459THY    HP511462   4.462   4.256   8.758 -0.8120  0.5699 -0.3449
  459THY    HP611463   4.469   4.247   8.940 -2.4116 -2.0173  1.7004
  459THY    HP711464   4.476   4.101   8.843 -2.9732 -1.0755 -1.7332
  459THY    CA311465   4.246   4.441   8.860 -0.0708 -0.3037 -0.0621
  459THY    HA311466   4.336   4.458   8.801 -1.0410 -0.1937 -1.5679
  459THY    CA411467   4.182   4.555   8.913  0.1286  0.2925  0.2632
  459THY    HA411468   4.208   4.655   8.881  0.9633 -0.6407 -2.2648
  459THY    CA511469   4.078   4.539   9.005  0.3488  0.5044  0.1145
  459THY    CM111470   4.010   4.656   9.061  0.0032 -0.2185  0.7273
  459THY    HM111471   3.915   4.684   9.013 -0.4292 -2.1037  0.3921
  459THY    HM211472   3.987   4.658   9.168  0.5809  0.7723  0.8456
  459THY    HM311473   4.079   4.741   9.052 -0.4704  0.1535  0.5701
  459THY    CA611474   4.038   4.413   9.039  0.2092  0.1531  0.1527
  459THY    HA611475   3.953   4.400   9.104 -0.1871  0.6235 -0.2640
  460THY      O11476   0.010   9.781   6.517 -0.1077 -0.0587  0.2876
  460THY     HO11477   0.096   9.774   6.472 -0.4525  1.1598 -0.6142
  460THY    CA111478  -0.092   9.788   6.430 -0.0898 -0.3290  0.6929
  460THY    CA211479  -0.226   9.767   6.471  0.2806 -0.0934  0.2953
  460THY    CP111480  -0.256   9.746   6.614  0.2375 -0.0185 -0.0663
  460THY    HP111481  -0.167   9.703   6.662  0.2857 -1.3831 -1.3122
  460THY    CP211482  -0.298   9.882   6.690 -0.6200 -0.1675  0.1778
  460THY    HP211483  -0.324   9.860   6.795  0.8139  0.8628  0.7695
  460THY    HP311484  -0.214   9.952   6.696 -1.6233  0.9667  3.0211
  460THY    HP411485  -0.387   9.930   6.647 -0.2379 -0.1069 -0.5538
  460THY    CP311486  -0.368   9.638   6.621 -0.2698 -0.2932 -0.1278
  460THY    HP511487  -0.366   9.593   6.721 -1.3468  0.5453  0.2919
  460THY    HP611488  -0.467   9.685   6.616 -0.2440 -0.3790 -2.1146
  460THY    HP711489  -0.350   9.566   6.541  1.0214  0.4274 -0.5185
  460THY    CA311490  -0.327   9.787   6.380 -1.0132  0.1358 -0.2182
  460THY    HA311491  -0.433   9.786   6.405 -0.9290  0.1032  0.1372
  460THY    CA411492  -0.286   9.824   6.248  0.3892  0.2464  0.1076
  460THY    HA411493  -0.364   9.844   6.175  0.5376 -1.0295 -0.4254
  460THY    CA511494  -0.157   9.844   6.206  0.4046  0.0073 -0.1307
  460THY    CM111495  -0.140   9.892   6.060  0.3983  0.2920 -0.4189
  460THY    HM111496  -0.195   9.831   5.988 -2.3008  0.3019  1.4954
  460THY    HM211497  -0.170   9.995   6.041 -1.5713 -0.5178 -2.0592
  460THY    HM311498  -0.034   9.880   6.034 -0.0043 -0.0679 -1.9708
  460THY    CA611499  -0.059   9.815   6.300 -0.4347 -0.6561  0.2700
  460THY    HA611500   0.043   9.836   6.267 -1.2233  0.1598 -1.8528
  461THY      O11501   8.480   4.775   7.357 -0.5230  0.4960  0.4806
  461THY     HO11502   8.440   4.808   7.439  0.6567  0.0714  1.2554
  461THY    CA111503   8.611   4.825   7.361  0.8242 -0.1770 -0.4071
  461THY    CA211504   8.711   4.795   7.265  0.5142 -0.1879  0.1157
  461THY    CP111505   8.667   4.701   7.148  0.2633 -0.4703 -0.0653
  461THY    HP111506   8.560   4.713   7.125 -0.2037 -2.1808  1.0486
  461THY    CP211507   8.749   4.716   7.014  0.1362  0.0051 -0.3593
  461THY    HP211508   8.716   4.652   6.931  0.5033  0.4790 -0.8814
  461THY    HP311509   8.746   4.820   6.980  1.7389  1.1327  2.5587
  461THY    HP411510   8.856   4.710   7.040  0.0252  1.3427  0.5017
  461THY    CP311511   8.685   4.559   7.200  0.1992 -0.1807 -0.3457
  461THY    HP511512   8.645   4.490   7.124  0.9186 -2.4014  1.1743
  461THY    HP611513   8.784   4.529   7.235  1.6453  1.1593 -2.9946
  461THY    HP711514   8.618   4.551   7.286 -2.1679 -1.2008 -2.1554
  461THY    CA311515   8.840   4.849   7.283  0.0338  0.3716 -0.7581
  461THY    HA311516   8.924   4.819   7.220  1.7012  1.1144  0.9927
  461THY    CA411517   8.868   4.934   7.391  0.8948 -0.0077 -0.4542
  461THY    HA411518   8.961   4.991   7.393  0.1406  1.2934 -1.2604
  461THY    CA511519   8.772   4.957   7.488 -0.2962  0.3289 -0.3432
  461THY    CM111520   8.799   5.050   7.605  0.1867 -0.2757  0.0177
  461THY    HM111521   8.882   5.117   7.579  1.3038 -1.7124 -0.2764
  461THY    HM211522   8.711   5.111   7.627  1.6576  3.4446 -3.1589
  461THY    HM311523   8.834   4.995   7.693  2.7873  2.4180  0.8232
  461THY    CA611524   8.644   4.902   7.471  0.4750  0.6631 -0.8099
  461THY    HA611525   8.572   4.926   7.548  0.5042  0.5067 -0.7332
  462THY      O11526   5.321   3.175   7.765 -0.4290 -0.1183  0.5498
  462THY     HO11527   5.335   3.258   7.716 -1.0497 -0.1335  0.3384
  462THY    CA111528   5.451   3.132   7.799  0.9346  0.3753  0.4781
  462THY    CA211529   5.473   3.008   7.865 -0.2090  0.0735  0.2832
  462THY    CP111530   5.360   2.922   7.913  0.4067 -0.0659  0.3208
  462THY    HP111531   5.264   2.971   7.892  0.6648  0.8103  1.1069
  462THY    CP211532   5.368   2.787   7.845 -0.2832 -0.1885 -0.0420
  462THY    HP211533   5.455   2.727   7.874 -1.4638 -2.0403 -0.1427
  462THY    HP311534   5.282   2.730   7.881  0.4749 -1.1972  0.2277
  462THY    HP411535   5.370   2.808   7.737  0.0837  0.2107  0.0378
  462THY    CP311536   5.367   2.916   8.067 -0.4001  0.1499 -0.9615
  462THY    HP511537   5.468   2.894   8.105 -1.1302 -2.4878 -0.3317
  462THY    HP611538   5.340   3.017   8.099 -0.9823  0.1757 -1.5195
  462THY    HP711539   5.296   2.838   8.096 -2.1208  0.6305 -3.5633
  462THY    CA311540   5.608   2.973   7.893  0.4708  0.4945  0.0643
  462THY    HA311541   5.627   2.870   7.925  0.6517  0.8945  1.2967
  462THY    CA411542   5.703   3.077   7.888 -0.1529  0.2387  0.0483
  462THY    HA411543   5.803   3.064   7.927 -0.6290  2.5758  2.2845
  462THY    CA511544   5.676   3.202   7.828 -0.3072 -0.1998 -0.1279
  462THY    CM111545   5.789   3.304   7.817 -0.4792  0.2841  0.0695
  462THY    HM111546   5.815   3.360   7.908 -1.1208  0.2282  0.2898
  462THY    HM211547   5.879   3.249   7.788  0.7357  2.0791  0.3076
  462THY    HM311548   5.771   3.380   7.740  0.3216  1.5927  1.1218
  462THY    CA611549   5.553   3.217   7.773  0.0105 -0.7876 -0.4424
  462THY    HA611550   5.538   3.319   7.738  0.6659 -0.4260  0.3053
  463THY      O11551   5.224   1.253   4.855 -0.5582  0.4913  0.0553
  463THY     HO11552   5.320   1.242   4.870 -0.8187 -0.9427  0.8584
  463THY    CA111553   5.184   1.132   4.877 -0.6448  0.3245  0.0050
  463THY    CA211554   5.055   1.103   4.925  1.1596  0.1878  0.0580
  463THY    CP111555   4.938   1.210   4.917  0.5634 -0.0367  0.1584
  463THY    HP111556   4.987   1.308   4.927  2.1683 -0.3635 -3.0998
  463THY    CP211557   4.873   1.208   4.775  0.0038  0.3087  0.1332
  463THY    HP211558   4.798   1.288   4.774  1.9971  2.2912  0.3106
  463THY    HP311559   4.938   1.230   4.689 -1.2704 -2.6195 -1.7338
  463THY    HP411560   4.826   1.114   4.745  0.1000  0.9808 -2.3298
  463THY    CP311561   4.825   1.179   5.016  0.0554  1.3531  0.4315
  463THY    HP511562   4.864   1.149   5.114 -0.1059 -0.6851 -0.0781
  463THY    HP611563   4.759   1.265   5.033 -0.2067  1.1830  0.2779
  463THY    HP711564   4.766   1.093   4.983  1.2739 -0.0194  1.6771
  463THY    CA311565   5.041   0.976   4.975 -0.0638  0.7261  0.6409
  463THY    HA311566   4.949   0.936   5.017  0.1452 -1.0583 -0.5040
  463THY    CA411567   5.134   0.877   4.959 -0.7106 -0.2753 -0.3348
  463THY    HA411568   5.111   0.779   5.000 -0.1200 -0.3481 -0.1651
  463THY    CA511569   5.264   0.905   4.911  0.1963  0.0892 -0.0577
  463THY    CM111570   5.368   0.805   4.902 -0.1298  0.8150 -0.1302
  463THY    HM111571   5.381   0.763   4.801  2.3861  2.0793 -0.4079
  463THY    HM211572   5.462   0.861   4.909 -0.0054  0.4717  1.0879
  463THY    HM311573   5.345   0.717   4.963  1.6548  1.7572  1.9957
  463THY    CA611574   5.282   1.034   4.865  0.6373  0.2228  0.4418
  463THY    HA611575   5.383   1.063   4.837  0.3845  1.9068  1.1582
  464THY      O11576   2.967   9.823   2.505 -0.1923 -0.1442 -0.8837
  464THY     HO11577   3.055   9.805   2.541 -0.8261  1.6688  1.8174
  464THY    CA111578   2.945   9.956   2.526 -0.5218  0.4469  0.0115
  464THY    CA211579   2.823  10.011   2.501 -0.5208 -0.1897 -0.0849
  464THY    CP111580   2.712   9.920   2.447  0.4086  0.7842 -0.4996
  464THY    HP111581   2.748   9.832   2.394  0.2490 -0.4026  1.2809
  464THY    CP211582   2.636   9.872   2.576 -0.0483  0.3900  1.0638
  464THY    HP211583   2.592   9.953   2.635  0.2374  2.6345 -1.5552
  464THY    HP311584   2.560   9.800   2.544 -3.5118  3.7480  1.0589
  464THY    HP411585   2.706   9.826   2.646 -1.3094 -1.3365  1.2333
  464THY    CP311586   2.616   9.999   2.354 -0.1654 -0.2028  0.4572
  464THY    HP511587   2.548   9.923   2.313  2.4033 -0.9095 -2.9451
  464THY    HP611588   2.566  10.086   2.399 -1.8901 -1.5294  1.2425
  464THY    HP711589   2.675  10.020   2.264 -1.9529 -1.0397 -0.9947
  464THY    CA311590   2.808  10.152   2.510  0.3414  0.2755  0.3085
  464THY    HA311591   2.712  10.198   2.490 -0.4878 -1.8005 -0.8089
  464THY    CA411592   2.917  10.227   2.550 -0.2095  0.2510  0.7910
  464THY    HA411593   2.915  10.334   2.563  0.1916  0.0997  2.3703
  464THY    CA511594   3.036  10.164   2.579 -0.1783  0.3542  0.1505
  464THY    CM111595   3.155  10.249   2.625  0.4620  0.1730  0.5582
  464THY    HM111596   3.239  10.271   2.558 -0.4657  0.2683 -0.5936
  464THY    HM211597   3.122  10.346   2.663  0.3904  1.0594 -1.6625
  464THY    HM311598   3.186  10.193   2.714  1.9342  0.9617  0.5668
  464THY    CA611599   3.050  10.029   2.566  0.2285  0.1402 -0.2633
  464THY    HA611600   3.144   9.980   2.585  0.6600  1.4155  1.0394
  465THY      O11601   1.902   4.268   8.806 -0.1625  0.1581 -0.5186
  465THY     HO11602   1.926   4.280   8.713  1.7134  1.8635  0.1151
  465THY    CA111603   2.025   4.259   8.864 -0.0447 -0.3158 -0.0682
  465THY    CA211604   2.041   4.240   9.007  0.6681 -0.1053 -0.1051
  465THY    CP111605   1.923   4.239   9.098  0.4592 -0.2488 -0.3363
  465THY    HP111606   1.848   4.312   9.063  0.4058 -0.6814 -1.1376
  465THY    CP211607   1.857   4.102   9.096  0.3215  0.1661  0.6761
  465THY    HP211608   1.771   4.108   9.164  0.1003  2.0155  0.2858
  465THY    HP311609   1.815   4.078   8.998 -1.0627 -1.5305  1.5988
  465THY    HP411610   1.927   4.023   9.125  0.0632  0.0803  1.0878
  465THY    CP311611   1.948   4.270   9.243  0.2528  0.4646 -0.0047
  465THY    HP511612   2.015   4.353   9.266  0.6836 -0.3582  1.8786
  465THY    HP611613   1.857   4.290   9.300  0.7096  0.9990  0.5539
  465THY    HP711614   2.003   4.183   9.282 -1.6538 -0.5495  0.5573
  465THY    CA311615   2.169   4.247   9.059 -0.1283  0.5040  0.3875
  465THY    HA311616   2.191   4.236   9.165 -0.3593  2.2014  0.6497
  465THY    CA411617   2.282   4.264   8.971  0.1589 -0.3470 -0.4291
  465THY    HA411618   2.380   4.264   9.017 -0.0842 -0.6096  0.0964
  465THY    CA511619   2.268   4.263   8.835 -0.6439  0.3689  0.5348
  465THY    CM111620   2.388   4.263   8.745 -0.6398  0.4522  0.6149
  465THY    HM111621   2.477   4.226   8.797 -0.9336  0.0476  0.8351
  465THY    HM211622   2.378   4.207   8.652 -0.6636  1.5723 -0.0744
  465THY    HM311623   2.413   4.361   8.705  0.4699  0.6976  1.8358
  465THY    CA611624   2.140   4.277   8.789  0.6695  0.4419  0.2766
  465THY    HA611625   2.131   4.288   8.681  1.5462 -0.4342  0.0977
  466THY      O11626   8.774   9.186   7.531 -0.4378 -0.0145 -0.3948
  466THY     HO11627   8.746   9.093   7.536  1.1715 -0.4642  3.9775
  466THY    CA111628   8.894   9.173   7.473 -0.5129 -0.4399 -0.0600
  466THY    CA211629   8.996   9.273   7.485 -0.3867  0.1659  0.9243
  466THY    CP111630   8.950   9.408   7.540  0.1340  0.0812  0.8349
  466THY    HP111631   8.899   9.402   7.636 -0.3206  1.0181  0.6664
  466THY    CP211632   9.073   9.494   7.585  0.3220  0.2832  0.0150
  466THY    HP211633   9.126   9.432   7.658 -1.3968 -2.4047 -0.8567
  466THY    HP311634   9.147   9.523   7.509  0.4420  1.3451  0.5200
  466THY    HP411635   9.039   9.585   7.634 -0.5123 -0.0972  0.1579
  466THY    CP311636   8.878   9.488   7.430 -0.8028  0.6382 -0.1926
  466THY    HP511637   8.868   9.595   7.450 -1.2255  0.6549 -0.4887
  466THY    HP611638   8.906   9.467   7.326 -2.0589 -0.0438 -0.4067
  466THY    HP711639   8.775   9.453   7.438 -0.8409  0.3471 -1.7517
  466THY    CA311640   9.119   9.239   7.422  0.5853  0.1261 -0.4118
  466THY    HA311641   9.200   9.312   7.427  0.4829  0.2928 -1.0962
  466THY    CA411642   9.138   9.116   7.361 -1.1428 -0.6323 -0.1905
  466THY    HA411643   9.236   9.092   7.319 -0.4960  0.4939  0.6425
  466THY    CA511644   9.034   9.023   7.346 -1.1139 -0.4473 -0.6941
  466THY    CM111645   9.058   8.896   7.270 -0.3087 -0.1463  0.3602
  466THY    HM111646   9.051   8.922   7.164  0.7106 -0.9239  0.0794
  466THY    HM211647   9.157   8.852   7.283  0.2321  0.6528 -0.8940
  466THY    HM311648   8.978   8.824   7.291 -0.4767  0.1358  0.6924
  466THY    CA611649   8.913   9.053   7.407 -1.2638 -0.2146 -0.7162
  466THY    HA611650   8.828   8.986   7.405  0.4541 -2.6268  1.2301
  467THY      O11651   1.085   2.641   3.327 -0.2874 -0.0875 -0.1509
  467THY     HO11652   1.030   2.716   3.299 -1.6282 -0.0190  2.3661
  467THY    CA111653   1.208   2.666   3.273  1.2692 -0.0962  0.0726
  467THY    CA211654   1.313   2.585   3.317 -0.0349 -0.4007 -0.1154
  467THY    CP111655   1.296   2.482   3.419  0.1080  0.2416 -0.1535
  467THY    HP111656   1.201   2.485   3.472  0.0705  0.0270 -0.2068
  467THY    CP211657   1.289   2.341   3.360  0.1667 -0.3522  0.1336
  467THY    HP211658   1.214   2.340   3.279 -0.5233  0.3522  0.7462
  467THY    HP311659   1.390   2.321   3.323  1.7965 -1.3199  4.4682
  467THY    HP411660   1.282   2.277   3.449 -2.1068  0.5660  0.7137
  467THY    CP311661   1.396   2.492   3.533  0.4398 -0.5116 -0.1632
  467THY    HP511662   1.489   2.455   3.487  0.4870  1.4735 -1.8086
  467THY    HP611663   1.405   2.588   3.585  0.8205 -1.0542  0.8106
  467THY    HP711664   1.369   2.419   3.610  1.0479  1.0405  1.5857
  467THY    CA311665   1.443   2.612   3.270  0.0626  0.2538  0.1618
  467THY    HA311666   1.529   2.548   3.282 -0.4066 -1.3943 -3.6386
  467THY    CA411667   1.450   2.710   3.167 -0.4504 -0.1821  0.2278
  467THY    HA411668   1.546   2.733   3.123  0.4419  1.5499  2.8586
  467THY    CA511669   1.335   2.773   3.109 -0.3905 -0.1265  0.2796
  467THY    CM111670   1.337   2.874   2.996  0.2589  0.4170 -0.3403
  467THY    HM111671   1.242   2.887   2.944  0.2802 -0.6275 -0.6690
  467THY    HM211672   1.349   2.976   3.033 -0.6378  0.5876 -0.4964
  467THY    HM311673   1.411   2.847   2.920 -1.0595 -0.1141 -1.4755
  467THY    CA611674   1.217   2.770   3.181 -0.0560 -0.0565 -0.0551
  467THY    HA611675   1.138   2.840   3.155 -1.2738 -0.6112  1.9237
  468THY      O11676   3.066   2.000   8.974 -0.5280  0.1552 -0.3120
  468THY     HO11677   3.031   1.960   8.892  2.0532 -2.3751 -0.3031
  468THY    CA111678   2.981   2.095   9.009  0.3306 -0.2664 -0.5275
  468THY    CA211679   3.027   2.206   9.083 -0.0850 -0.7618  0.7155
  468THY    CP111680   3.176   2.215   9.129  0.2427 -0.3050 -0.8145
  468THY    HP111681   3.234   2.137   9.079 -0.1259 -1.2877  0.2294
  468THY    CP211682   3.230   2.354   9.097 -0.0654  0.2155 -0.5890
  468THY    HP211683   3.229   2.379   8.990 -0.0334 -0.2818 -0.7054
  468THY    HP311684   3.187   2.430   9.163  0.9755  0.1192  0.2260
  468THY    HP411685   3.332   2.347   9.136 -0.0155  2.0250 -0.3156
  468THY    CP311686   3.189   2.193   9.277  0.0874 -0.4820 -0.4147
  468THY    HP511687   3.293   2.186   9.309  0.4346  1.0014 -1.1135
  468THY    HP611688   3.143   2.274   9.335  1.9121  1.7298 -1.8834
  468THY    HP711689   3.135   2.104   9.312  0.3634  0.1411  1.7220
  468THY    CA311690   2.930   2.302   9.123  0.0170  0.1617 -0.0654
  468THY    HA311691   2.963   2.385   9.186  0.9632  0.1127 -0.4785
  468THY    CA411692   2.797   2.279   9.089 -0.2173 -0.0330 -0.0273
  468THY    HA411693   2.717   2.345   9.122 -0.2171 -0.5253  1.0254
  468THY    CA511694   2.756   2.176   9.009 -0.5629 -0.1523  0.3153
  468THY    CM111695   2.608   2.162   8.969 -0.2056 -0.5803 -0.5935
  468THY    HM111696   2.544   2.236   9.019  2.7437  2.0755 -0.4125
  468THY    HM211697   2.594   2.200   8.867 -0.9906  0.0843 -0.2465
  468THY    HM311698   2.565   2.061   8.973  0.6834 -1.1079 -2.6896
  468THY    CA611699   2.849   2.087   8.965  0.5465  0.5902 -0.6557
  468THY    HA611700   2.825   2.001   8.903  0.7165 -1.1829  1.6355
  469THY      O11701   4.777   9.465   9.711 -0.0167 -0.8470  0.1582
  469THY     HO11702   4.777   9.528   9.785 -1.0490  1.9836 -2.0549
  469THY    CA111703   4.901   9.481   9.659  0.0218 -0.1761  0.5293
  469THY    CA211704   4.926   9.476   9.517  1.2811  0.6857 -0.4450
  469THY    CP111705   4.810   9.472   9.421 -0.0365 -0.1459  0.2867
  469THY    HP111706   4.717   9.485   9.478 -0.3604 -0.7616 -0.0819
  469THY    CP211707   4.814   9.592   9.324  0.5974  0.2399  0.2602
  469THY    HP211708   4.839   9.676   9.391 -1.7479  1.0301  0.2125
  469THY    HP311709   4.887   9.589   9.243 -1.7484 -1.1888 -1.9341
  469THY    HP411710   4.716   9.605   9.278  0.4807  0.3027  0.5261
  469THY    CP311711   4.793   9.332   9.355  0.2716 -0.8529  0.0568
  469THY    HP511712   4.779   9.258   9.435 -2.5072  0.0058  0.4619
  469THY    HP611713   4.711   9.337   9.284 -0.8273 -0.7492  1.2916
  469THY    HP711714   4.877   9.291   9.297  0.2531  0.1020 -0.6616
  469THY    CA311715   5.058   9.487   9.471 -0.1331 -0.1165 -0.0737
  469THY    HA311716   5.082   9.485   9.365  0.7631  2.2284  0.0269
  469THY    CA411717   5.164   9.512   9.560  0.4554 -0.8355  0.2858
  469THY    HA411718   5.268   9.517   9.529  0.0528  1.2961 -0.9041
  469THY    CA511719   5.138   9.529   9.694  0.7131  0.3772 -0.1437
  469THY    CM111720   5.237   9.559   9.791  0.4191  0.4666  0.3637
  469THY    HM111721   5.217   9.644   9.857 -2.1946  0.6012 -0.4724
  469THY    HM211722   5.255   9.467   9.846 -2.1179 -0.3847 -0.0712
  469THY    HM311723   5.330   9.582   9.738 -0.9444  0.8388 -2.0743
  469THY    CA611724   5.007   9.513   9.740  0.1209 -0.7461  0.2291
  469THY    HA611725   4.988   9.516   9.847 -1.4740  1.8500 -0.0325
  470THY      O11726   9.130   7.362   0.910 -0.1012 -0.3697 -0.7212
  470THY     HO11727   9.103   7.277   0.870  1.1836 -2.4901  2.5269
  470THY    CA111728   9.264   7.372   0.878  0.7990 -0.2412  0.3728
  470THY    CA211729   9.343   7.480   0.914 -0.1330 -0.7697 -0.0972
  470THY    CP111730   9.284   7.591   1.000  0.5248  0.3998 -0.2590
  470THY    HP111731   9.201   7.537   1.048  2.4930 -0.3959  2.4691
  470THY    CP211732   9.373   7.645   1.115  0.2831  0.0229 -0.3415
  470THY    HP211733   9.325   7.723   1.176  0.2517  0.1792 -0.5659
  470THY    HP311734   9.402   7.562   1.181 -1.9214 -1.4422 -1.0832
  470THY    HP411735   9.460   7.686   1.064  0.2483  0.6675  0.1060
  470THY    CP311736   9.230   7.715   0.924  0.3984 -0.3921  0.1082
  470THY    HP511737   9.219   7.794   1.000 -1.0457 -0.0522 -0.4232
  470THY    HP611738   9.310   7.742   0.854  1.6995  0.2771  1.7788
  470THY    HP711739   9.130   7.695   0.884  0.6976 -0.1776 -0.7522
  470THY    CA311740   9.477   7.496   0.868  0.2255  0.3630 -0.0145
  470THY    HA311741   9.531   7.587   0.890  1.3679 -0.8717  2.8097
  470THY    CA411742   9.538   7.393   0.798 -0.1746 -0.0293  0.0153
  470THY    HA411743   9.640   7.396   0.762 -0.1192  0.5343  0.2075
  470THY    CA511744   9.458   7.276   0.766 -0.5084 -0.2826 -0.4977
  470THY    CM111745   9.514   7.166   0.687 -0.0890  0.2197  0.0160
  470THY    HM111746   9.473   7.166   0.586  0.1412 -0.6723 -0.0830
  470THY    HM211747   9.621   7.181   0.669 -0.1803  0.3657 -0.4184
  470THY    HM311748   9.506   7.066   0.731 -0.2731 -0.1707 -0.8965
  470THY    CA611749   9.318   7.277   0.791 -0.5581 -0.2483  0.4300
  470THY    HA611750   9.259   7.193   0.756  0.5396 -0.5911 -0.6722
  471THY      O11751   9.462   3.539   0.599  0.4422 -0.0580 -0.5215
  471THY     HO11752   9.372   3.567   0.622  1.1814  1.6915  0.4861
  471THY    CA111753   9.550   3.604   0.684  0.6184  0.1521 -0.3637
  471THY    CA211754   9.655   3.524   0.740 -0.2714 -0.6632 -0.2517
  471THY    CP111755   9.689   3.371   0.709  0.4153 -0.5132 -0.0334
  471THY    HP111756   9.613   3.327   0.643  0.5403 -0.7501 -0.0193
  471THY    CP211757   9.822   3.345   0.645  0.4978 -0.0341  0.0215
  471THY    HP211758   9.817   3.362   0.537  1.7455 -0.0937 -0.0577
  471THY    HP311759   9.892   3.410   0.700 -0.2400 -0.2539  1.2693
  471THY    HP411760   9.834   3.238   0.663  0.1294  0.0751  0.9765
  471THY    CP311761   9.665   3.288   0.835  0.5352 -0.0499  0.1265
  471THY    HP511762   9.651   3.182   0.808  1.3746 -0.1953  0.2343
  471THY    HP611763   9.753   3.297   0.900  0.6299 -1.5129  0.2411
  471THY    HP711764   9.574   3.320   0.885  0.0975  1.2801 -1.4390
  471THY    CA311765   9.729   3.592   0.842 -0.8744  0.2901 -0.3060
  471THY    HA311766   9.795   3.532   0.903 -0.8994  1.5199  0.9704
  471THY    CA411767   9.710   3.727   0.871  0.2468 -0.0213  0.3511
  471THY    HA411768   9.774   3.776   0.944 -0.9187 -1.2209  2.2795
  471THY    CA511769   9.602   3.795   0.815 -0.6618  0.3502  0.2720
  471THY    CM111770   9.573   3.934   0.860  0.3678  0.2413 -0.2621
  471THY    HM111771   9.664   3.990   0.882  0.7018  0.4006 -1.8766
  471THY    HM211772   9.511   3.991   0.789 -0.8302 -0.9806 -0.2262
  471THY    HM311773   9.507   3.924   0.947 -0.6937 -4.1621 -1.3408
  471THY    CA611774   9.528   3.739   0.716  0.9024  0.3724  0.5875
  471THY    HA611775   9.437   3.790   0.683  1.2933  0.1033 -1.0250
  472THY      O11776   9.274   4.607   4.776  0.2108  0.0982  0.6593
  472THY     HO11777   9.344   4.610   4.844  1.4995 -0.2773 -0.6081
  472THY    CA111778   9.306   4.695   4.688 -0.6719  0.2829  0.1623
  472THY    CA211779   9.240   4.709   4.563 -0.2658  0.6857 -0.6944
  472THY    CP111780   9.127   4.612   4.517  0.2863  0.2660 -0.0215
  472THY    HP111781   9.092   4.543   4.594 -1.8616  0.5186 -0.7083
  472THY    CP211782   9.007   4.709   4.474  0.2669  1.3781  0.0475
  472THY    HP211783   8.927   4.645   4.435  0.2419  1.8609 -0.7012
  472THY    HP311784   8.964   4.764   4.559 -1.9369 -1.3238  0.8517
  472THY    HP411785   9.035   4.774   4.391  0.6610 -0.5834 -1.4370
  472THY    CP311786   9.182   4.517   4.406  0.9386 -0.1168  0.2221
  472THY    HP511787   9.192   4.559   4.306 -0.4123 -1.0450 -0.3312
  472THY    HP611788   9.285   4.494   4.434  1.6655 -0.5574 -2.5212
  472THY    HP711789   9.116   4.429   4.403  0.2284  0.2753  2.2747
  472THY    CA311790   9.304   4.790   4.461 -0.7222  0.1069 -0.6037
  472THY    HA311791   9.265   4.791   4.360 -1.7345  1.4641 -0.2226
  472THY    CA411792   9.424   4.867   4.496  1.1721 -0.5747  0.3266
  472THY    HA411793   9.473   4.939   4.431 -0.2960 -0.8116 -1.1190
  472THY    CA511794   9.476   4.849   4.620  0.5135  0.0716 -0.6139
  472THY    CM111795   9.596   4.928   4.662 -0.6858  0.8456  0.3309
  472THY    HM111796   9.597   5.022   4.607  2.3312  1.4006  1.1632
  472THY    HM211797   9.603   4.943   4.771 -2.0178  1.9619  0.2947
  472THY    HM311798   9.685   4.873   4.630 -0.1917  0.9623  1.4392
  472THY    CA611799   9.415   4.777   4.718 -0.0377 -0.1630 -0.9403
  472THY    HA611800   9.473   4.776   4.810  1.0899  1.3477 -1.5900
  473THY      O11801   6.843   2.550   9.388 -0.5424  0.3670 -0.7474
  473THY     HO11802   6.838   2.621   9.321  2.6444 -0.3014 -1.8375
  473THY    CA111803   6.715   2.527   9.427  0.3336  0.1053 -0.2717
  473THY    CA211804   6.679   2.543   9.566 -0.1915 -0.3676 -0.4469
  473THY    CP111805   6.778   2.602   9.666 -0.4413  0.2977 -0.2113
  473THY    HP111806   6.856   2.653   9.607  0.3182  0.0390  0.5477
  473THY    CP211807   6.721   2.708   9.751 -0.0334  0.1401 -0.4049
  473THY    HP211808   6.663   2.666   9.834  1.1321 -0.0661  0.3368
  473THY    HP311809   6.805   2.768   9.789  0.8468 -0.5848 -1.1580
  473THY    HP411810   6.649   2.764   9.691  0.1522  0.7852 -0.0348
  473THY    CP311811   6.852   2.497   9.753 -0.2628 -0.1108  0.0876
  473THY    HP511812   6.931   2.540   9.816  0.1582  0.2651 -0.6787
  473THY    HP611813   6.771   2.462   9.818  1.0895  0.1702  1.9994
  473THY    HP711814   6.894   2.415   9.693  0.8756  0.0943  0.5799
  473THY    CA311815   6.552   2.501   9.614 -0.0457 -0.0840 -0.4995
  473THY    HA311816   6.521   2.489   9.717 -1.9279 -0.1521 -1.0265
  473THY    CA411817   6.454   2.469   9.517  1.1070  0.1976 -0.3944
  473THY    HA411818   6.357   2.433   9.552  0.9381 -0.8332 -1.8088
  473THY    CA511819   6.478   2.469   9.379 -0.6246  0.0273 -0.2462
  473THY    CM111820   6.373   2.435   9.279  0.5299 -0.1067  0.1380
  473THY    HM111821   6.281   2.393   9.321 -1.4458  1.3521 -2.4323
  473THY    HM211822   6.358   2.527   9.222  0.9759  0.6705  1.2261
  473THY    HM311823   6.402   2.361   9.204 -2.8025 -0.2749 -1.1445
  473THY    CA611824   6.612   2.491   9.334 -0.5729  0.3482  0.1094
  473THY    HA611825   6.635   2.495   9.228  1.0163  1.0072  0.4432
  474THY      O11826   0.519   6.265   0.906 -0.1843  0.5219 -0.2978
  474THY     HO11827   0.526   6.185   0.962  3.1296  0.9790  0.1510
  474THY    CA111828   0.605   6.366   0.959 -0.8501  0.2241  0.7044
  474THY    CA211829   0.592   6.503   0.922 -0.2783  0.0909 -0.2577
  474THY    CP111830   0.478   6.537   0.829 -0.2724 -0.3162 -0.4207
  474THY    HP111831   0.406   6.455   0.837  0.2482 -0.7017  0.5065
  474THY    CP211832   0.398   6.671   0.865  0.4442 -0.1360  0.1447
  474THY    HP211833   0.470   6.752   0.875  1.2596 -0.6356 -1.3275
  474THY    HP311834   0.323   6.694   0.788 -1.5763 -0.2987  1.9562
  474THY    HP411835   0.329   6.665   0.950 -2.6183 -0.9121 -2.1825
  474THY    CP311836   0.526   6.540   0.684 -0.4196  0.0855 -0.3586
  474THY    HP511837   0.614   6.601   0.658 -0.0766 -0.7046 -1.1041
  474THY    HP611838   0.553   6.439   0.650  0.0463  0.6453 -1.7438
  474THY    HP711839   0.443   6.574   0.620 -0.1135 -0.2284 -0.9318
  474THY    CA311840   0.684   6.596   0.984 -0.4859 -0.6786  0.9485
  474THY    HA311841   0.674   6.702   0.961 -0.8156 -1.0267 -0.6212
  474THY    CA411842   0.779   6.545   1.076 -0.7192  0.4460  0.0454
  474THY    HA411843   0.839   6.614   1.135 -1.0324 -0.3566  1.3665
  474THY    CA511844   0.811   6.409   1.099 -0.1282 -0.1814 -0.5739
  474THY    CM111845   0.903   6.358   1.211  0.5142 -0.4585  0.1250
  474THY    HM111846   0.993   6.310   1.171  1.5707 -1.1084  2.9990
  474THY    HM211847   0.920   6.442   1.279  0.4108 -0.2125 -0.1498
  474THY    HM311848   0.856   6.272   1.261 -0.6317  0.3990  0.5744
  474THY    CA611849   0.711   6.322   1.046 -0.1366 -0.4257 -0.1213
  474THY    HA611850   0.710   6.217   1.075  0.4732 -0.0473  1.3639
  475THY      O11851   3.790   6.029   9.128  0.2885  0.6807 -0.0348
  475THY     HO11852   3.865   5.975   9.157 -0.8298  0.4282  2.6067
  475THY    CA111853   3.704   6.043   9.229  0.3454 -0.1024  0.9324
  475THY    CA211854   3.563   6.060   9.200 -0.2466 -0.2644 -0.8152
  475THY    CP111855   3.508   6.049   9.057  0.4696 -0.1815 -0.3782
  475THY    HP111856   3.580   6.023   8.978 -1.6429  2.7321 -3.5479
  475THY    CP211857   3.415   5.933   9.042 -0.3779 -0.4125  0.1524
  475THY    HP211858   3.464   5.848   9.091 -1.6893  0.6117  3.5273
  475THY    HP311859   3.321   5.960   9.092 -1.1635 -0.8131 -1.0760
  475THY    HP411860   3.398   5.913   8.936  0.0360 -1.0806  0.2067
  475THY    CP311861   3.440   6.187   9.008 -0.4113  0.3920  0.0550
  475THY    HP511862   3.356   6.167   8.940 -0.0478 -2.8153  0.3864
  475THY    HP611863   3.423   6.245   9.099  0.8446  0.5120  0.2217
  475THY    HP711864   3.510   6.248   8.951 -0.0061  0.9154  1.0986
  475THY    CA311865   3.473   6.065   9.305 -0.0531  0.1224  0.0799
  475THY    HA311866   3.367   6.068   9.280 -0.0368 -0.9843 -0.1598
  475THY    CA411867   3.518   6.058   9.434  0.2256  0.5801  0.1662
  475THY    HA411868   3.448   6.064   9.516  1.1556  1.4612  0.9196
  475THY    CA511869   3.656   6.046   9.466 -1.3021 -0.1857  0.6959
  475THY    CM111870   3.706   6.044   9.606 -0.4094 -0.0075 -0.1548
  475THY    HM111871   3.633   5.992   9.669 -0.9425  0.7279 -0.1522
  475THY    HM211872   3.795   5.979   9.609  0.7899  1.5842  1.2828
  475THY    HM311873   3.736   6.139   9.653  1.2102  0.3190 -1.6995
  475THY    CA611874   3.749   6.051   9.362  0.2075 -0.2977  0.2059
  475THY    HA611875   3.856   6.045   9.382  0.4952  0.1911 -1.1386
  476THY      O11876   7.866   9.225   0.534 -0.5021 -0.0699  0.2045
  476THY     HO11877   7.864   9.150   0.596 -0.6013  1.9073  2.7626
  476THY    CA111878   7.932   9.183   0.422 -0.1368 -0.1421  0.1630
  476THY    CA211879   7.984   9.276   0.329  0.0974  0.8477  0.0662
  476THY    CP111880   7.960   9.428   0.352 -0.0392  0.5529 -0.2313
  476THY    HP111881   7.859   9.441   0.395  0.3183  1.0334  0.4955
  476THY    CP211882   8.050   9.493   0.462  0.0911 -0.3281 -0.4463
  476THY    HP211883   8.156   9.495   0.435 -0.6339 -1.3834 -3.8974
  476THY    HP311884   8.010   9.593   0.479  0.7347  0.1761 -1.7621
  476THY    HP411885   8.021   9.438   0.552 -0.4175  0.0032 -0.4046
  476THY    CP311886   7.969   9.515   0.223  0.6260  0.1988 -0.7283
  476THY    HP511887   7.918   9.606   0.255 -0.0851 -0.0490 -1.1343
  476THY    HP611888   8.073   9.536   0.195  0.6302  0.8093 -0.2704
  476THY    HP711889   7.908   9.458   0.152 -0.2242 -2.6343  2.0925
  476THY    CA311890   8.056   9.215   0.222 -0.0968 -0.6773  0.1666
  476THY    HA311891   8.104   9.272   0.143 -0.2857 -1.0134 -0.1935
  476THY    CA411892   8.070   9.071   0.212 -0.0827  0.3855  0.3694
  476THY    HA411893   8.134   9.029   0.135  0.9355 -2.0035  2.4141
  476THY    CA511894   8.013   8.982   0.308 -0.3294 -0.2129  0.7963
  476THY    CM111895   8.029   8.837   0.305  0.0019  0.3171 -0.4941
  476THY    HM111896   8.008   8.798   0.405  0.3307  0.9862 -0.1554
  476THY    HM211897   7.957   8.793   0.235 -2.2132  0.4334  1.5580
  476THY    HM311898   8.126   8.808   0.265 -1.1608 -1.0269 -2.4992
  476THY    CA611899   7.953   9.043   0.419  0.3620 -0.8829  0.3838
  476THY    HA611900   7.912   8.977   0.494  1.8553 -1.4011  0.7852
  477THY      O11901   0.652   7.232   8.146 -0.1616  0.4795 -0.1842
  477THY     HO11902   0.692   7.144   8.152 -1.1639  0.0852  1.1780
  477THY    CA111903   0.608   7.257   8.273 -0.2449 -0.8112 -0.4683
  477THY    CA211904   0.590   7.387   8.334 -0.3333 -0.2483  0.1487
  477THY    CP111905   0.632   7.513   8.260 -0.5464  0.2635 -0.1186
  477THY    HP111906   0.648   7.489   8.154 -1.0069 -0.4185 -0.0413
  477THY    CP211907   0.520   7.626   8.265 -0.0722 -0.3833 -0.6758
  477THY    HP211908   0.533   7.705   8.190  2.2958 -0.1068 -0.0467
  477THY    HP311909   0.418   7.585   8.267  0.0148 -0.6380  2.5328
  477THY    HP411910   0.532   7.667   8.365  0.3500 -1.1610 -0.4000
  477THY    CP311911   0.768   7.569   8.310  0.0724  0.2161  0.3610
  477THY    HP511912   0.857   7.512   8.283  0.2357  1.0842 -1.0155
  477THY    HP611913   0.781   7.660   8.250 -0.1849  1.0165  1.4710
  477THY    HP711914   0.768   7.596   8.417 -1.2233  1.8342 -0.0076
  477THY    CA311915   0.533   7.402   8.465 -0.0655 -0.1754  0.5197
  477THY    HA311916   0.511   7.502   8.499 -1.4321  0.3092 -1.5680
  477THY    CA411917   0.478   7.286   8.523  0.3960  0.2569  0.1459
  477THY    HA411918   0.433   7.297   8.621  2.4230  1.7077  0.9947
  477THY    CA511919   0.492   7.168   8.457  0.1237  0.4359 -0.1758
  477THY    CM111920   0.420   7.040   8.501 -0.8331 -0.4112  0.3050
  477THY    HM111921   0.491   6.958   8.506 -0.0011  0.2066 -0.8361
  477THY    HM211922   0.365   7.058   8.594 -1.2754  0.4497 -0.1040
  477THY    HM311923   0.340   7.016   8.430  0.9049 -2.9352 -0.9357
  477THY    CA611924   0.558   7.149   8.335  0.1190 -0.0393  0.2442
  477THY    HA611925   0.551   7.051   8.287 -1.9373 -0.3905  1.1686
  478THY      O11926   9.627   1.125   1.262  0.1910  0.7656 -0.7049
  478THY     HO11927   9.718   1.158   1.259  0.5356  0.4472  2.6153
  478THY    CA111928   9.553   1.225   1.305  0.2930 -0.3280 -0.2232
  478THY    CA211929   9.424   1.211   1.347 -0.6771  0.0100 -0.0320
  478THY    CP111930   9.353   1.079   1.317  0.1873  0.1454 -0.0506
  478THY    HP111931   9.425   1.001   1.347  0.6936  0.8604  0.6262
  478THY    CP211932   9.224   1.046   1.392 -0.3573 -0.1079  0.4318
  478THY    HP211933   9.244   1.080   1.494 -0.6610 -0.7928  0.7299
  478THY    HP311934   9.139   1.102   1.351 -1.0022 -1.0892  0.3934
  478THY    HP411935   9.197   0.940   1.380 -1.5685  0.2265 -0.0062
  478THY    CP311936   9.327   1.069   1.167  0.1965  0.1287 -0.1844
  478THY    HP511937   9.429   1.069   1.128  1.6732  1.7476  3.2102
  478THY    HP611938   9.277   0.973   1.147  0.9698 -0.0189 -1.4728
  478THY    HP711939   9.283   1.161   1.128  2.0040  1.9529  1.8028
  478THY    CA311940   9.367   1.316   1.415 -0.6228  0.1888  0.2152
  478THY    HA311941   9.263   1.307   1.446 -0.6579 -1.1077 -0.2485
  478THY    CA411942   9.434   1.444   1.426  0.8278 -0.0889  0.0294
  478THY    HA411943   9.382   1.530   1.467  2.0645  0.3732  0.6886
  478THY    CA511944   9.563   1.461   1.377 -1.6466  0.2330  0.1238
  478THY    CM111945   9.645   1.587   1.388 -0.3646 -0.3035 -0.3898
  478THY    HM111946   9.627   1.658   1.307  0.7751 -2.3725 -2.5695
  478THY    HM211947   9.612   1.639   1.479  0.2766 -1.3250  0.4581
  478THY    HM311948   9.754   1.577   1.399 -0.5667  0.5703  5.2085
  478THY    CA611949   9.623   1.345   1.320 -0.0297 -0.3851  0.2062
  478THY    HA611950   9.730   1.353   1.303  0.1387 -0.1115  1.3577
  479THY      O11951   2.698   7.231   7.204  0.4763 -0.3422 -0.1536
  479THY     HO11952   2.617   7.284   7.205  1.1868  0.8114 -1.2122
  479THY    CA111953   2.774   7.275   7.098 -0.0838  0.0122  0.2659
  479THY    CA211954   2.912   7.261   7.086 -0.2044  0.7234 -1.0236
  479THY    CP111955   2.984   7.176   7.198 -0.3061  0.1676 -0.5547
  479THY    HP111956   2.908   7.145   7.270  0.0973  1.0437  0.2700
  479THY    CP211957   3.052   7.051   7.144  0.1288  0.0497  0.7665
  479THY    HP211958   2.977   6.986   7.098 -0.3765  0.9163  0.3353
  479THY    HP311959   3.125   7.070   7.065 -1.5794  2.5681 -0.3694
  479THY    HP411960   3.088   6.997   7.232 -0.0870 -0.2663  0.6585
  479THY    CP311961   3.097   7.269   7.265 -0.2419  0.4106  0.0225
  479THY    HP511962   3.059   7.372   7.269 -0.2256  0.4522 -0.7619
  479THY    HP611963   3.134   7.233   7.362  1.0779  0.4964 -0.4265
  479THY    HP711964   3.182   7.265   7.196 -1.8573 -2.0088 -2.0146
  479THY    CA311965   2.985   7.326   6.990  0.2272  1.2537  0.6159
  479THY    HA311966   3.093   7.332   6.994  0.5298 -0.1673 -2.3327
  479THY    CA411967   2.921   7.410   6.894  0.5354  0.3795  0.1008
  479THY    HA411968   2.974   7.470   6.821  0.5373 -0.4935 -0.6383
  479THY    CA511969   2.774   7.424   6.891 -0.2290 -0.2549 -0.1990
  479THY    CM111970   2.706   7.507   6.788 -0.2932 -0.2238 -0.1448
  479THY    HM111971   2.718   7.611   6.818 -2.5262  0.1866 -0.4936
  479THY    HM211972   2.754   7.515   6.690 -1.3124 -3.3328 -1.0372
  479THY    HM311973   2.599   7.490   6.767 -0.1680  0.8714 -1.8021
  479THY    CA611974   2.708   7.346   6.991 -0.5778 -0.1947 -0.3155
  479THY    HA611975   2.602   7.370   6.999  0.0107  1.9573  2.5366
  480THY      O11976   6.216   3.641   6.787  0.1405  0.1676 -0.3392
  480THY     HO11977   6.182   3.603   6.704  3.2854 -2.8702 -0.4489
  480THY    CA111978   6.242   3.773   6.777  0.0217 -0.0001  0.3728
  480THY    CA211979   6.253   3.855   6.893 -0.2624  0.0754 -0.0783
  480THY    CP111980   6.258   3.795   7.036  0.0077 -0.7313  0.8772
  480THY    HP111981   6.264   3.687   7.020 -1.5754 -0.9783  1.6921
  480THY    CP211982   6.375   3.842   7.127  0.3631  0.7449  0.0664
  480THY    HP211983   6.360   3.936   7.182  2.7959  0.1675  1.8910
  480THY    HP311984   6.392   3.768   7.205 -0.4344  2.0848  1.5773
  480THY    HP411985   6.466   3.855   7.068  1.1758  0.7550  1.2833
  480THY    CP311986   6.121   3.824   7.091 -0.8102  0.7317 -0.1101
  480THY    HP511987   6.099   3.930   7.079 -2.1788  0.9104  3.0621
  480THY    HP611988   6.046   3.763   7.037 -1.1671  0.2047  0.9467
  480THY    HP711989   6.119   3.795   7.197 -0.9889  0.2478 -0.2403
  480THY    CA311990   6.258   3.993   6.882 -0.1209  0.0480 -0.4411
  480THY    HA311991   6.290   4.061   6.960  0.3723  0.9673 -1.4353
  480THY    CA411992   6.250   4.050   6.759  0.1671 -0.1392 -0.1029
  480THY    HA411993   6.277   4.155   6.748 -0.0811 -0.0553  0.0656
  480THY    CA511994   6.231   3.971   6.643 -0.9118 -0.4682  0.2833
  480THY    CM111995   6.221   4.036   6.507 -0.5032  0.5702  0.2600
  480THY    HM111996   6.124   4.023   6.456  0.1772  0.4309 -1.0500
  480THY    HM211997   6.240   4.141   6.529  2.1047 -0.0434  1.2912
  480THY    HM311998   6.308   4.018   6.442  0.4961  2.1116  1.1121
  480THY    CA611999   6.224   3.838   6.652  0.2488  0.2129 -0.0060
  480THY    HA612000   6.201   3.786   6.559 -1.8425 -0.6467  0.9225
  481THY      O12001   3.542   5.274   4.118 -0.0997  0.1262  0.6205
  481THY     HO12002   3.513   5.328   4.042  1.2991 -0.9346 -0.7468
  481THY    CA112003   3.437   5.226   4.175 -0.7178  0.1393  0.0429
  481THY    CA212004   3.442   5.174   4.310  0.0099 -0.7786 -0.1088
  481THY    CP112005   3.577   5.170   4.386 -0.1659  0.2565 -0.4615
  481THY    HP112006   3.662   5.153   4.318 -0.2263 -0.7649 -0.2895
  481THY    CP212007   3.610   5.309   4.439 -0.6564  0.2860 -0.2319
  481THY    HP212008   3.710   5.322   4.481 -1.3314  0.4083  1.4016
  481THY    HP312009   3.598   5.388   4.364 -1.0131 -1.1323 -1.7232
  481THY    HP412010   3.537   5.331   4.518 -0.1467  1.0526  0.0349
  481THY    CP312011   3.583   5.062   4.494 -0.4019  0.6582 -0.2912
  481THY    HP512012   3.512   5.093   4.571 -1.6548 -2.3257 -0.0982
  481THY    HP612013   3.550   4.960   4.470  1.1523 -0.2430  1.1514
  481THY    HP712014   3.686   5.066   4.530 -0.2572 -4.8644  0.7917
  481THY    CA312015   3.326   5.131   4.365 -0.3260  0.2319 -0.5033
  481THY    HA312016   3.315   5.099   4.468 -0.2679  2.1303  0.1150
  481THY    CA412017   3.202   5.127   4.292  0.1228 -0.0815 -0.1981
  481THY    HA412018   3.111   5.090   4.337  0.2011  0.0959  0.1127
  481THY    CA512019   3.200   5.165   4.157 -0.4698 -0.6826 -0.0683
  481THY    CM112020   3.068   5.179   4.076 -0.1459 -0.0246  0.2356
  481THY    HM112021   3.036   5.283   4.067  1.8070  0.5980  0.1117
  481THY    HM212022   3.093   5.139   3.977 -0.5785  1.2288 -0.3949
  481THY    HM312023   2.988   5.126   4.128 -0.0891  1.0952  1.5078
  481THY    CA612024   3.323   5.209   4.099  0.0487 -0.3711  0.0691
  481THY    HA612025   3.318   5.243   3.995  1.1697 -0.6545 -0.0858
  482THY      O12026   4.682   1.212   1.291 -0.8037  0.8034 -0.1727
  482THY     HO12027   4.621   1.170   1.354  0.2493 -0.4114  0.0721
  482THY    CA112028   4.628   1.321   1.232 -0.1552 -0.5276 -0.5583
  482THY    CA212029   4.694   1.389   1.126 -0.0795 -0.5415  1.3643
  482THY    CP112030   4.819   1.332   1.061 -0.1318 -0.6466  0.4342
  482THY    HP112031   4.823   1.224   1.081 -2.3480 -1.1697 -1.5885
  482THY    CP212032   4.823   1.355   0.911 -0.0674  0.0745 -0.5776
  482THY    HP212033   4.799   1.456   0.874 -1.3943 -0.1425 -0.3579
  482THY    HP312034   4.922   1.333   0.868  0.1523  0.0786 -0.0804
  482THY    HP412035   4.748   1.296   0.857  0.1289  0.0089 -0.7802
  482THY    CP312036   4.945   1.404   1.119  0.2331 -0.2695  0.2765
  482THY    HP512037   4.987   1.351   1.206 -1.1639 -1.3839  0.3070
  482THY    HP612038   5.024   1.415   1.044  0.3595  1.3176  0.6023
  482THY    HP712039   4.915   1.506   1.147 -1.9869 -1.0817  1.0682
  482THY    CA312040   4.629   1.512   1.081  0.1021  0.3743 -0.0102
  482THY    HA312041   4.669   1.576   1.003  0.7355 -0.7662 -0.6475
  482THY    CA412042   4.503   1.552   1.131  0.2975 -0.1981 -0.7554
  482THY    HA412043   4.457   1.645   1.099  1.8214  1.5408  1.7134
  482THY    CA512044   4.445   1.479   1.234 -0.2905  0.5859  0.5116
  482THY    CM112045   4.322   1.531   1.284  0.3209 -0.3694  1.0722
  482THY    HM112046   4.264   1.444   1.318 -0.6934 -0.4683 -0.7782
  482THY    HM212047   4.363   1.603   1.355 -0.0598  0.0893  0.8328
  482THY    HM312048   4.268   1.586   1.206  1.1906  1.2890  1.5908
  482THY    CA612049   4.507   1.368   1.289  0.3474  0.1510 -0.1190
  482THY    HA612050   4.461   1.326   1.377 -1.2910 -0.1488 -1.0766
  483THY      O12051   8.975   6.183   9.561 -0.2748 -0.2245  0.3818
  483THY     HO12052   8.919   6.261   9.545 -1.1281 -0.7859  0.6220
  483THY    CA112053   8.990   6.122   9.444  0.3242 -0.5060 -0.1694
  483THY    CA212054   9.013   5.986   9.438 -0.5877  0.4131 -0.1943
  483THY    CP112055   9.044   5.888   9.562 -0.0642 -0.2265 -0.5313
  483THY    HP112056   9.034   5.949   9.652 -2.1304 -1.8689  0.4171
  483THY    CP212057   8.932   5.783   9.571  0.4550  0.1813  0.2149
  483THY    HP212058   8.928   5.744   9.673 -1.0766  1.1276  0.5472
  483THY    HP312059   8.837   5.833   9.552 -0.3814 -1.3630  0.2338
  483THY    HP412060   8.945   5.706   9.494 -0.5480 -0.7588  0.9498
  483THY    CP312061   9.187   5.827   9.558 -0.2514  0.4820 -0.1492
  483THY    HP512062   9.263   5.902   9.581 -0.6995  0.3688  1.8467
  483THY    HP612063   9.195   5.766   9.649 -2.9777  1.1024  0.5829
  483THY    HP712064   9.220   5.772   9.469 -1.1744 -1.6258  0.7501
  483THY    CA312065   9.008   5.918   9.307  0.0037 -0.6259 -0.5026
  483THY    HA312066   9.018   5.811   9.292 -1.0543 -0.8095  0.0403
  483THY    CA412067   8.995   6.001   9.189  0.1692  0.0695  0.4599
  483THY    HA412068   8.986   5.966   9.087 -0.2464  0.3855  0.3822
  483THY    CA512069   8.982   6.144   9.202  0.7208  0.0219  0.3050
  483THY    CM112070   8.973   6.232   9.080 -0.4427  0.1805  0.5717
  483THY    HM112071   8.898   6.311   9.089 -1.4884 -0.6200 -0.7689
  483THY    HM212072   9.066   6.289   9.067 -0.6576  0.5700  0.7335
  483THY    HM312073   8.945   6.177   8.990 -0.4014  0.2315  0.5282
  483THY    CA612074   8.982   6.202   9.334 -0.6028 -0.1720 -0.3755
  483THY    HA612075   8.980   6.310   9.342 -1.2329 -0.1208 -1.0838
  484THY      O12076   6.337   6.944   5.689  0.2759 -0.1459  0.6906
  484THY     HO12077   6.358   6.862   5.737  3.1113  0.3112  0.4161
  484THY    CA112078   6.204   6.944   5.661 -0.0557  0.5895 -0.0419
  484THY    CA212079   6.141   7.012   5.555 -0.3116  0.5115  0.0169
  484THY    CP112080   6.231   7.092   5.464  0.3842  0.2262 -0.0399
  484THY    HP112081   6.334   7.105   5.499  0.6403 -0.3191 -0.5740
  484THY    CP212082   6.237   7.028   5.326 -0.6553 -0.7056  0.4306
  484THY    HP212083   6.137   7.024   5.281 -0.7903 -0.4787  0.7091
  484THY    HP312084   6.303   7.087   5.262 -1.2419  0.9025  1.2414
  484THY    HP412085   6.266   6.923   5.334 -0.6746 -0.7838 -0.4798
  484THY    CP312086   6.180   7.236   5.435 -0.6534 -0.6208  0.3123
  484THY    HP512087   6.097   7.246   5.364 -0.7373 -1.5386  0.2702
  484THY    HP612088   6.146   7.283   5.528  1.4040  2.5197 -0.3602
  484THY    HP712089   6.262   7.294   5.390  0.3014  0.3280  3.0893
  484THY    CA312090   5.998   7.020   5.545  0.0830  0.6994  0.2890
  484THY    HA312091   5.949   7.072   5.463 -0.8974 -0.0884  0.3520
  484THY    CA412092   5.924   6.973   5.654  0.8737 -0.0738  0.3687
  484THY    HA412093   5.816   6.983   5.654  0.5657 -2.2437  2.9116
  484THY    CA512094   5.988   6.903   5.756 -0.1045  0.1249 -0.0654
  484THY    CM112095   5.917   6.835   5.869  0.3848 -0.0182 -0.5012
  484THY    HM112096   5.814   6.804   5.847  0.9131 -3.2684  1.0288
  484THY    HM212097   5.978   6.758   5.917  2.0983  2.9813  2.5920
  484THY    HM312098   5.900   6.917   5.940 -0.7692 -1.1921  0.6264
  484THY    CA612099   6.125   6.885   5.757 -0.4767 -0.0631 -0.4075
  484THY    HA612100   6.173   6.841   5.844  1.6853 -2.2024 -2.5318
  485THY      O12101   5.476   5.830   1.840 -0.0298  0.0172 -0.5123
  485THY     HO12102   5.383   5.858   1.852 -0.0778 -0.3585  0.0282
  485THY    CA112103   5.467   5.736   1.743  0.1230  0.5586 -0.9401
  485THY    CA212104   5.574   5.662   1.696 -0.3471 -0.3846  0.4450
  485THY    CP112105   5.716   5.695   1.737 -0.3114  0.6481  0.0575
  485THY    HP112106   5.718   5.772   1.816  1.7161  0.4461  0.2637
  485THY    CP212107   5.790   5.578   1.801 -0.5763  0.5796  0.1988
  485THY    HP212108   5.885   5.615   1.842  1.6188 -0.7408 -3.2557
  485THY    HP312109   5.738   5.521   1.879 -0.5714  0.6970  0.2892
  485THY    HP412110   5.836   5.516   1.723  1.7808  2.8877 -0.4159
  485THY    CP312111   5.798   5.762   1.624 -0.8322 -0.3883  0.3106
  485THY    HP512112   5.868   5.695   1.573 -0.6250 -0.1463  0.2769
  485THY    HP612113   5.740   5.818   1.551  2.1440  0.4500 -1.5604
  485THY    HP712114   5.875   5.826   1.668 -0.5626 -0.8825  0.5708
  485THY    CA312115   5.562   5.557   1.599 -0.6350 -0.1575 -0.1226
  485THY    HA312116   5.648   5.495   1.574 -0.8419 -0.3337 -0.3881
  485THY    CA412117   5.431   5.527   1.558 -0.1066  0.5948  0.1782
  485THY    HA412118   5.409   5.456   1.479  0.8785 -0.7154  1.0343
  485THY    CA512119   5.323   5.607   1.597 -0.3270 -0.6924 -0.0491
  485THY    CM112120   5.180   5.594   1.536  0.0052 -0.5853 -0.0630
  485THY    HM112121   5.106   5.617   1.614  1.7424  0.6333  1.3336
  485THY    HM212122   5.181   5.654   1.445 -0.2775  0.4463  0.5953
  485THY    HM312123   5.158   5.489   1.516 -1.5939 -0.4516  0.7832
  485THY    CA612124   5.338   5.702   1.698  0.5217 -0.4928 -0.7876
  485THY    HA612125   5.251   5.762   1.725  1.9622  0.3058  2.5634
  486THY      O12126   1.241   5.212   2.535 -0.2986 -0.0920 -0.1712
  486THY     HO12127   1.196   5.210   2.449 -0.2069 -3.0136 -0.2557
  486THY    CA112128   1.144   5.173   2.620 -0.4244  0.2885 -0.4190
  486THY    CA212129   1.170   5.111   2.741  0.1132 -0.4692 -1.2586
  486THY    CP112130   1.314   5.096   2.794  0.0989 -0.0634  0.4668
  486THY    HP112131   1.387   5.127   2.718 -1.4172  1.5269 -0.4233
  486THY    CP212132   1.336   5.157   2.934 -0.0106 -0.5160  0.4102
  486THY    HP212133   1.292   5.095   3.013  1.2164 -2.2128 -0.1805
  486THY    HP312134   1.442   5.180   2.952 -0.5853  1.9341  1.0415
  486THY    HP412135   1.291   5.257   2.926  1.3242  0.1742  1.1750
  486THY    CP312136   1.343   4.949   2.819 -0.2210  0.7473 -0.1335
  486THY    HP512137   1.443   4.938   2.863 -0.6564 -1.5761  0.4528
  486THY    HP612138   1.261   4.905   2.878 -2.9954  2.3418 -2.5462
  486THY    HP712139   1.339   4.887   2.729 -1.9293 -1.1562  1.1442
  486THY    CA312140   1.065   5.078   2.822 -0.0013  0.0388 -0.7137
  486THY    HA312141   1.076   5.028   2.918 -3.6686 -1.2872 -0.8459
  486THY    CA412142   0.932   5.121   2.789 -0.1306  0.0986 -0.1287
  486THY    HA412143   0.857   5.096   2.863 -0.3611 -0.7374 -0.6361
  486THY    CA512144   0.902   5.191   2.668 -0.1334  0.4288 -0.4238
  486THY    CM112145   0.763   5.238   2.624 -0.5700 -0.1465  0.5378
  486THY    HM112146   0.736   5.336   2.666 -0.1728 -1.1573  3.3260
  486THY    HM212147   0.769   5.246   2.515  0.5434  2.9778  0.7207
  486THY    HM312148   0.691   5.166   2.664 -0.6140  0.9334  2.5436
  486THY    CA612149   1.015   5.208   2.584  0.1769  0.8375  0.0164
  486THY    HA612150   0.997   5.262   2.492 -0.4259 -1.4653 -1.2976
  487THY      O12151   6.461   4.841   0.765 -0.2347 -0.0702 -0.2368
  487THY     HO12152   6.408   4.807   0.691  0.0070 -0.1306 -0.3833
  487THY    CA112153   6.405   4.799   0.881 -0.0926 -0.7179 -0.0904
  487THY    CA212154   6.472   4.806   1.000 -0.8285 -0.3067  0.3511
  487THY    CP112155   6.604   4.874   1.012  0.1721 -0.6020  0.5269
  487THY    HP112156   6.635   4.919   0.917 -0.7627  0.8732  0.8882
  487THY    CP212157   6.605   4.978   1.127  0.0735 -0.0149 -0.0188
  487THY    HP212158   6.548   5.068   1.098  1.5792  1.1451  0.4781
  487THY    HP312159   6.570   4.955   1.229  1.7782  1.3815  0.9463
  487THY    HP412160   6.708   5.013   1.141 -0.6238  2.1073  0.3334
  487THY    CP312161   6.708   4.771   1.045  0.4998 -0.5349 -0.2573
  487THY    HP512162   6.803   4.817   1.072 -0.6339  0.8828  1.5486
  487THY    HP612163   6.675   4.712   1.132 -3.0750  1.2910 -0.1833
  487THY    HP712164   6.715   4.697   0.964 -2.1426 -1.1613 -0.0020
  487THY    CA312165   6.404   4.770   1.114  0.4433  0.2732  0.9383
  487THY    HA312166   6.455   4.764   1.210  1.1396  0.0801  0.5569
  487THY    CA412167   6.270   4.730   1.110  0.4679  0.1474 -0.7258
  487THY    HA412168   6.211   4.713   1.199 -0.4419 -2.3301 -1.7060
  487THY    CA512169   6.200   4.729   0.990 -0.2496 -0.2667  0.2831
  487THY    CM112170   6.053   4.690   0.984  0.0724  0.0751  0.3725
  487THY    HM112171   6.048   4.591   1.032  2.1013 -0.2923 -0.0929
  487THY    HM212172   5.991   4.762   1.038  1.0522 -0.7779  2.7616
  487THY    HM312173   6.018   4.688   0.880 -0.0777  1.7061  0.3746
  487THY    CA612174   6.276   4.756   0.875 -0.0587 -0.2716  0.3413
  487THY    HA612175   6.232   4.745   0.777  1.1574  1.0454 -0.3897
  488THY      O12176   3.309   1.131   8.305 -0.1159 -0.8447  0.6308
  488THY     HO12177   3.360   1.067   8.356 -0.5736 -1.7873 -0.0665
  488THY    CA112178   3.178   1.116   8.347  0.1208 -0.1120 -0.4884
  488THY    CA212179   3.104   1.215   8.414  0.2968  0.1177 -0.3202
  488THY    CP112180   3.173   1.334   8.480  0.2890 -0.1976 -0.1396
  488THY    HP112181   3.281   1.337   8.457  1.3096 -4.0164  3.0196
  488THY    CP212182   3.123   1.474   8.445  0.1673 -0.2372  0.3981
  488THY    HP212183   3.029   1.483   8.500 -0.2682 -2.1474  0.0440
  488THY    HP312184   3.202   1.547   8.468  1.8184 -1.5304 -0.9387
  488THY    HP412185   3.110   1.481   8.336  0.6212 -0.9879  0.2887
  488THY    CP312186   3.188   1.315   8.627  0.7833 -0.2219  0.5977
  488THY    HP512187   3.243   1.396   8.677  1.9340 -0.3210 -0.4408
  488THY    HP612188   3.085   1.321   8.662 -0.1434 -2.3042 -1.4948
  488THY    HP712189   3.225   1.216   8.656 -0.6086 -0.6541  0.9754
  488THY    CA312190   2.962   1.210   8.408  0.0305 -0.0521 -0.2536
  488THY    HA312191   2.906   1.289   8.455  0.1129 -0.8835  1.3154
  488THY    CA412192   2.898   1.096   8.366 -0.1518 -0.0399 -1.0429
  488THY    HA412193   2.790   1.088   8.379 -0.1427  0.2364 -0.8113
  488THY    CA512194   2.971   0.988   8.304 -0.4690 -0.0870  0.0755
  488THY    CM112195   2.904   0.858   8.254  0.2405 -0.4580 -0.4700
  488THY    HM112196   2.802   0.886   8.227 -0.1645  1.0604  2.2671
  488THY    HM212197   2.941   0.818   8.159  0.3111  0.2242 -0.7379
  488THY    HM312198   2.901   0.782   8.332 -0.0467  1.5702  1.5998
  488THY    CA612199   3.112   1.000   8.303  0.1591 -0.6115 -0.2937
  488THY    HA612200   3.181   0.924   8.270  0.6550 -0.3758  0.1881
  489THY      O12201   7.394   9.190   9.224 -0.1110 -0.7938  0.2966
  489THY     HO12202   7.300   9.171   9.207 -0.3074  0.9244 -0.7489
  489THY    CA112203   7.410   9.326   9.189  0.3388  0.0665 -0.0025
  489THY    CA212204   7.538   9.385   9.193  0.0445 -0.6196 -0.4952
  489THY    CP112205   7.664   9.310   9.259 -0.0907  0.3049 -0.3618
  489THY    HP112206   7.646   9.206   9.291 -0.7771 -0.0282 -1.7311
  489THY    CP212207   7.776   9.293   9.152 -0.3934  0.5506 -0.6693
  489THY    HP212208   7.849   9.218   9.184 -2.1619 -0.0455  2.2692
  489THY    HP312209   7.718   9.252   9.068 -3.1257  1.7510  0.4954
  489THY    HP412210   7.832   9.386   9.140 -1.1720  1.5395  2.4429
  489THY    CP312211   7.708   9.389   9.382  0.0506 -0.0879  0.1436
  489THY    HP512212   7.631   9.374   9.458 -1.6135 -1.0515 -1.6149
  489THY    HP612213   7.798   9.339   9.420 -0.2384 -0.5339  0.2543
  489THY    HP712214   7.738   9.493   9.363 -0.4494  0.4958  2.2703
  489THY    CA312215   7.546   9.520   9.137 -0.2281  0.1141  0.3686
  489THY    HA312216   7.640   9.574   9.133  0.0438 -0.3135  0.8042
  489THY    CA412217   7.423   9.584   9.101  0.6659 -0.0721  0.0170
  489THY    HA412218   7.425   9.686   9.064 -0.8048 -0.4676 -1.2715
  489THY    CA512219   7.302   9.517   9.105  1.2766  0.4452 -0.6510
  489THY    CM112220   7.181   9.587   9.062  0.4105  0.1007 -0.6714
  489THY    HM112221   7.204   9.682   9.013 -0.7450  0.5473 -0.3837
  489THY    HM212222   7.121   9.526   8.993 -0.8618  0.8339 -0.2523
  489THY    HM312223   7.115   9.607   9.147 -0.2403 -0.4910 -1.0243
  489THY    CA612224   7.291   9.392   9.148  0.4526  0.3324 -0.0799
  489THY    HA612225   7.198   9.336   9.150  0.2130  0.7312  2.3178
  490THY      O12226   4.586   9.546   6.348  0.1492  0.5031  0.5126
  490THY     HO12227   4.682   9.547   6.366  0.2300 -0.0145  0.1177
  490THY    CA112228   4.550   9.664   6.371 -0.4382 -0.9658  0.3216
  490THY    CA212229   4.424   9.715   6.337 -0.2913  0.2063  0.8355
  490THY    CP112230   4.320   9.620   6.266 -0.9146  0.3405 -0.6125
  490THY    HP112231   4.369   9.534   6.220  1.0616  0.2698  1.4284
  490THY    CP212232   4.224   9.566   6.367  0.2154  0.0765  0.5816
  490THY    HP212233   4.150   9.504   6.316  2.7261 -1.9353 -0.8369
  490THY    HP312234   4.282   9.521   6.448  2.1967 -2.0177 -1.8601
  490THY    HP412235   4.167   9.651   6.407  1.5796  1.5864 -0.5535
  490THY    CP312236   4.241   9.673   6.147 -0.4227 -0.2296 -0.0445
  490THY    HP512237   4.166   9.751   6.165  0.7030  0.5815  1.3825
  490THY    HP612238   4.317   9.703   6.075 -0.0405 -0.7216  0.1513
  490THY    HP712239   4.188   9.588   6.102 -1.0460  0.6162 -0.9419
  490THY    CA312240   4.393   9.854   6.352  0.1293 -0.0577 -0.5961
  490THY    HA312241   4.298   9.898   6.324 -0.6330 -0.2605  1.4664
  490THY    CA412242   4.484   9.928   6.426  1.3951 -0.9884  0.1878
  490THY    HA412243   4.460  10.032   6.449  0.1447 -0.2463 -3.7551
  490THY    CA512244   4.606   9.879   6.458 -0.2974  0.6240  0.6568
  490THY    CM112245   4.707   9.962   6.533  0.6258 -0.2952 -0.1683
  490THY    HM112246   4.675  10.067   6.536  0.3314 -0.3319 -1.3204
  490THY    HM212247   4.726   9.920   6.632 -0.8700 -0.2134  0.1689
  490THY    HM312248   4.801   9.957   6.476  0.4257  0.0847 -0.5435
  490THY    CA612249   4.650   9.746   6.427  0.8400  0.2687 -0.0921
  490THY    HA612250   4.748   9.707   6.451  0.8083 -0.3048 -0.8798
  491THY      O12251   3.388   0.659   6.817 -0.4637  0.0507 -0.4114
  491THY     HO12252   3.485   0.650   6.815 -0.3025  0.7512  1.6705
  491THY    CA112253   3.341   0.672   6.689  0.1556 -0.9580 -0.0715
  491THY    CA212254   3.201   0.672   6.668 -0.8118  0.2113 -0.0029
  491THY    CP112255   3.097   0.663   6.781 -0.5086 -0.4399  0.3105
  491THY    HP112256   3.136   0.635   6.880 -1.5772 -0.5071  0.7344
  491THY    CP212257   3.034   0.803   6.806 -0.2465  0.4685 -0.0029
  491THY    HP212258   3.110   0.880   6.823 -1.0323  1.6982 -1.7451
  491THY    HP312259   2.969   0.830   6.722 -0.1862 -1.2358 -0.6355
  491THY    HP412260   2.975   0.798   6.898 -1.3617  2.6952 -0.5426
  491THY    CP312261   2.993   0.552   6.758  0.0964  1.1038  0.0279
  491THY    HP512262   2.925   0.550   6.672  0.1915 -1.0378 -0.0431
  491THY    HP612263   3.045   0.456   6.747 -1.0216  0.2084  1.9731
  491THY    HP712264   2.918   0.561   6.838 -0.1845  3.1556 -0.4012
  491THY    CA312265   3.151   0.693   6.535  0.5132  0.1346 -0.5154
  491THY    HA312266   3.044   0.693   6.514  0.8056 -1.2104 -2.1939
  491THY    CA412267   3.234   0.699   6.431 -0.3790  0.1223  0.1299
  491THY    HA412268   3.204   0.716   6.328 -0.5055 -0.3687  0.0797
  491THY    CA512269   3.372   0.691   6.453  0.1291 -0.3620  0.6431
  491THY    CM112270   3.477   0.722   6.339  0.5789 -0.0533 -0.7949
  491THY    HM112271   3.420   0.708   6.246 -1.0544  2.2095 -0.2505
  491THY    HM212272   3.502   0.829   6.328  0.3275 -0.2264 -4.2560
  491THY    HM312273   3.568   0.662   6.341  1.6006  1.4470  0.8049
  491THY    CA612274   3.427   0.685   6.580 -0.4101  0.1324  0.6154
  491THY    HA612275   3.533   0.669   6.596 -0.4551 -0.0672  0.7168
  492THY      O12276   3.046   5.685   6.599  0.1275 -0.5499  0.2080
  492THY     HO12277   3.114   5.616   6.603  0.7273  0.0549  0.7474
  492THY    CA112278   2.954   5.671   6.690 -0.6556 -0.0067 -0.2584
  492THY    CA212279   2.850   5.758   6.704 -0.3080  0.2560  0.4604
  492THY    CP112280   2.832   5.866   6.603 -0.3012  0.0023 -0.0318
  492THY    HP112281   2.931   5.912   6.591  0.5685 -1.6792  0.4568
  492THY    CP212282   2.788   5.808   6.467  0.0942 -0.1615  0.0236
  492THY    HP212283   2.803   5.875   6.381 -0.7904  0.5693  0.4288
  492THY    HP312284   2.839   5.714   6.444 -1.1469 -0.7589 -0.3560
  492THY    HP412285   2.682   5.783   6.459 -0.3503  1.5815 -0.0907
  492THY    CP312286   2.735   5.979   6.639  0.3821 -0.0741 -0.4057
  492THY    HP512287   2.773   6.039   6.722  3.7295 -0.2285 -1.6576
  492THY    HP612288   2.716   6.048   6.555 -6.3225 -1.5745 -0.6422
  492THY    HP712289   2.630   5.951   6.653 -0.5078  2.1508 -1.9325
  492THY    CA312290   2.757   5.738   6.813  0.0055 -0.0089 -0.0727
  492THY    HA312291   2.666   5.796   6.817  0.6822  1.0422  0.9994
  492THY    CA412292   2.781   5.637   6.906  0.2097  1.1060  0.1799
  492THY    HA412293   2.703   5.623   6.981 -0.0573  1.5593 -0.0040
  492THY    CA512294   2.887   5.556   6.899 -0.4792 -0.1157 -0.3150
  492THY    CM112295   2.911   5.452   7.003 -0.3792  0.3592 -0.2365
  492THY    HM112296   2.820   5.398   7.030 -1.4137  1.0992 -2.0813
  492THY    HM212297   2.976   5.376   6.958  1.9972  1.4262  1.1912
  492THY    HM312298   2.972   5.488   7.087  1.0235 -2.3577  0.0138
  492THY    CA612299   2.981   5.576   6.791  0.6719 -0.0342 -0.2374
  492THY    HA612300   3.069   5.514   6.785 -0.1153 -1.0640 -1.7931
  493THY      O12301   2.665   3.210   4.614  0.2521  0.0749  0.4111
  493THY     HO12302   2.638   3.292   4.659  0.8018  0.9627 -0.8516
  493THY    CA112303   2.744   3.156   4.710 -0.3960  0.2412 -0.2749
  493THY    CA212304   2.774   3.019   4.726 -0.5707 -0.4997  0.1464
  493THY    CP112305   2.708   2.914   4.632 -0.6001  0.4718  0.6530
  493THY    HP112306   2.619   2.951   4.580 -0.4141  0.1259  0.0835
  493THY    CP212307   2.817   2.874   4.522  0.3114  0.1959 -0.4609
  493THY    HP212308   2.903   2.833   4.575 -0.1552  1.2439  1.1982
  493THY    HP312309   2.784   2.797   4.451  0.3540 -1.0084  0.7822
  493THY    HP412310   2.839   2.966   4.466  0.5554  1.4153  1.5385
  493THY    CP312311   2.672   2.787   4.715 -0.6829  1.2990  1.0979
  493THY    HP512312   2.605   2.823   4.794 -1.2571  0.7183  0.8814
  493THY    HP612313   2.613   2.711   4.663 -1.0969  3.0951 -1.1717
  493THY    HP712314   2.761   2.743   4.762  0.3791  2.8633  0.6402
  493THY    CA312315   2.884   2.982   4.802  0.3161  0.2717 -0.6973
  493THY    HA312316   2.918   2.879   4.794  0.1952  0.3027 -1.7060
  493THY    CA412317   2.943   3.076   4.894 -0.8526  0.5394  0.2020
  493THY    HA412318   3.022   3.040   4.960  0.6520  0.4884 -1.5316
  493THY    CA512319   2.897   3.207   4.899  0.7502  0.2620 -0.2069
  493THY    CM112320   2.950   3.308   4.993  0.2939 -0.1135 -0.3744
  493THY    HM112321   2.988   3.402   4.952 -0.6562 -0.6753 -2.6891
  493THY    HM212322   2.881   3.333   5.074  1.7396 -0.0143  0.8797
  493THY    HM312323   3.027   3.265   5.059 -0.8313  2.5315  2.9300
  493THY    CA612324   2.795   3.247   4.802 -0.1312  0.2120 -1.2108
  493THY    HA612325   2.781   3.354   4.798  0.6547  0.3543 -0.4238
  494THY      O12326   1.670   4.933   9.600 -0.4131 -0.5692  0.0505
  494THY     HO12327   1.657   4.970   9.689 -0.5221 -2.6760  0.9627
  494THY    CA112328   1.767   5.006   9.534  0.1340  0.6115 -0.1994
  494THY    CA212329   1.747   5.059   9.410  0.1111  0.3947  0.4320
  494THY    CP112330   1.610   5.045   9.339  0.2319 -0.5283 -0.2949
  494THY    HP112331   1.543   4.970   9.382  0.4904 -1.0109 -0.7245
  494THY    CP212332   1.531   5.177   9.354  0.1824  0.4022  0.4847
  494THY    HP212333   1.449   5.183   9.281 -0.8272 -0.1700  1.5186
  494THY    HP312334   1.488   5.167   9.455  0.1596 -1.7710  0.3055
  494THY    HP412335   1.600   5.261   9.346 -0.8764  1.1448 -1.4533
  494THY    CP312336   1.625   5.010   9.191 -0.3823  0.5325  0.0160
  494THY    HP512337   1.692   5.079   9.138  0.4877  0.7521  1.3599
  494THY    HP612338   1.663   4.909   9.173 -0.5390  0.1247  1.7683
  494THY    HP712339   1.523   5.024   9.153 -0.7212  1.0294  1.0697
  494THY    CA312340   1.852   5.142   9.348  0.6115  0.3386  0.6819
  494THY    HA312341   1.826   5.185   9.252  1.2520 -1.9695 -0.6119
  494THY    CA412342   1.969   5.160   9.413  0.7260 -1.2429 -0.0184
  494THY    HA412343   2.048   5.225   9.376  0.6441  0.2691  2.2319
  494THY    CA512344   1.992   5.094   9.532  0.1072 -0.2240 -0.9348
  494THY    CM112345   2.129   5.104   9.594  0.4310  0.0191 -0.3697
  494THY    HM112346   2.140   5.076   9.699  2.2598 -2.3177 -1.1152
  494THY    HM212347   2.197   5.035   9.544  0.5848 -0.4088  0.4258
  494THY    HM312348   2.176   5.203   9.586 -0.9383  0.6042 -1.8476
  494THY    CA612349   1.889   5.032   9.603  0.4651 -0.0559  0.3152
  494THY    HA612350   1.904   4.978   9.696  0.2315 -2.2237 -0.8327
  495THY      O12351   6.414   6.067   9.513 -0.1235  0.0053 -0.9029
  495THY     HO12352   6.394   5.985   9.465  1.9125 -2.0575  1.4401
  495THY    CA112353   6.482   6.143   9.427 -0.2776 -0.0193  0.5343
  495THY    CA212354   6.490   6.285   9.424 -0.4273  0.2445  0.0677
  495THY    CP112355   6.397   6.360   9.516  0.2923 -0.1984  0.0892
  495THY    HP112356   6.320   6.293   9.556 -0.5970  1.1986  0.8443
  495THY    CP212357   6.469   6.413   9.637 -0.5670 -0.6025 -0.2126
  495THY    HP212358   6.403   6.418   9.724 -0.7068  0.7665 -0.3772
  495THY    HP312359   6.559   6.355   9.662 -1.1019 -0.7326  1.6049
  495THY    HP412360   6.519   6.509   9.619 -1.0834 -0.3019 -0.0535
  495THY    CP312361   6.343   6.498   9.458 -0.2977  0.1678 -0.1381
  495THY    HP512362   6.282   6.547   9.536  0.3001  0.4413  0.1613
  495THY    HP612363   6.416   6.574   9.430 -0.0326 -0.7395 -2.0419
  495THY    HP712364   6.281   6.480   9.370 -0.1494 -0.7713 -0.0634
  495THY    CA312365   6.577   6.346   9.334  0.0831 -0.1918 -0.2678
  495THY    HA312366   6.586   6.453   9.321 -2.1235 -0.2140 -2.7921
  495THY    CA412367   6.666   6.270   9.258  0.2386  0.5901 -0.5835
  495THY    HA412368   6.743   6.320   9.201  1.8224  1.4198  2.1113
  495THY    CA512369   6.669   6.129   9.272  0.6655 -0.6423 -0.9738
  495THY    CM112370   6.765   6.047   9.205  0.6128 -0.0364  0.2202
  495THY    HM112371   6.776   5.946   9.245 -1.2976 -0.8617 -1.1405
  495THY    HM212372   6.735   6.038   9.100  0.0372  0.2650  0.3545
  495THY    HM312373   6.859   6.102   9.215  1.7525 -1.5289 -1.5811
  495THY    CA612374   6.571   6.063   9.347  0.3584 -0.2425 -0.2427
  495THY    HA612375   6.565   5.955   9.349 -1.8447 -0.1984 -1.1118
  496THY      O12376   8.375   2.892   4.686 -0.2421  0.6364 -0.3210
  496THY     HO12377   8.300   2.831   4.676  1.0763 -0.7006 -3.2227
  496THY    CA112378   8.380   2.974   4.581  0.0655 -0.1536 -0.1166
  496THY    CA212379   8.490   3.058   4.563  0.3045 -0.6090  0.2165
  496THY    CP112380   8.594   3.073   4.669  0.4675  0.1099  0.5409
  496THY    HP112381   8.591   2.992   4.743 -0.1017 -1.8767 -1.5605
  496THY    CP212382   8.732   3.090   4.606  0.0521  0.2764 -0.0210
  496THY    HP212383   8.802   3.083   4.690  0.6715  2.4959 -0.2829
  496THY    HP312384   8.758   3.014   4.533 -0.9799  0.9310 -1.1062
  496THY    HP412385   8.751   3.187   4.559 -0.2065  0.4191  0.1622
  496THY    CP312386   8.573   3.199   4.756 -0.0899 -0.5171 -0.0157
  496THY    HP512387   8.475   3.198   4.805  0.2719 -0.7239  0.7179
  496THY    HP612388   8.657   3.204   4.827  0.6604 -1.3089 -0.8137
  496THY    HP712389   8.588   3.289   4.696  1.9773 -1.1575 -0.5592
  496THY    CA312390   8.500   3.143   4.454 -0.4850 -0.2447  0.8549
  496THY    HA312391   8.583   3.213   4.447  0.7542 -1.6505  0.8866
  496THY    CA412392   8.404   3.135   4.353  0.2892  0.3031 -0.5193
  496THY    HA412393   8.421   3.187   4.259  0.2093  0.6719 -0.3327
  496THY    CA512394   8.309   3.042   4.362  0.3631 -0.0495  0.7614
  496THY    CM112395   8.207   3.036   4.253 -0.1530 -0.2292 -0.6669
  496THY    HM112396   8.227   2.957   4.179 -0.7452 -2.0431  1.0152
  496THY    HM212397   8.111   3.026   4.304  1.2179 -1.8826  1.8251
  496THY    HM312398   8.214   3.131   4.198  0.1938  1.6896  2.4422
  496THY    CA612399   8.291   2.967   4.472  0.1499  0.1593 -0.2706
  496THY    HA612400   8.203   2.905   4.485 -1.9312  2.8157 -0.8292
  497THY      O12401   4.023   2.913   9.711  0.1020 -0.3507 -0.3029
  497THY     HO12402   3.968   2.889   9.788 -0.9711  0.7844 -0.6765
  497THY    CA112403   3.983   3.020   9.643 -0.1822 -0.3841  0.5352
  497THY    CA212404   3.990   3.020   9.505  0.1590  0.1978  0.4454
  497THY    CP112405   4.038   2.902   9.423 -0.7266  0.1109  0.1841
  497THY    HP112406   4.081   2.830   9.493  0.9706 -0.1857 -1.0957
  497THY    CP212407   3.936   2.828   9.337  0.3503 -0.4566  0.2813
  497THY    HP212408   3.840   2.819   9.390  0.2839 -0.4368  0.1637
  497THY    HP312409   3.904   2.880   9.247  1.9749 -1.9556 -1.2401
  497THY    HP412410   3.967   2.729   9.302 -0.0196  0.0917 -1.7444
  497THY    CP312411   4.150   2.950   9.321  0.1893 -0.3262  0.1669
  497THY    HP512412   4.195   2.861   9.276  1.6392 -0.4262  1.7413
  497THY    HP612413   4.108   3.021   9.249  1.8293  0.9327  0.4069
  497THY    HP712414   4.241   2.993   9.363  0.1461  1.3761 -1.3418
  497THY    CA312415   3.956   3.144   9.434  0.1470 -0.3759  0.7587
  497THY    HA312416   3.968   3.159   9.327  1.9830 -4.2673  0.2355
  497THY    CA412417   3.909   3.253   9.501  0.0392  0.4909 -0.0572
  497THY    HA412418   3.866   3.334   9.442 -2.5382 -0.1421  0.7984
  497THY    CA512419   3.898   3.255   9.641  0.1321  0.3977 -0.3737
  497THY    CM112420   3.840   3.380   9.708 -0.0851 -0.1062 -0.0875
  497THY    HM112421   3.907   3.394   9.793  2.4447 -1.8014 -1.6708
  497THY    HM212422   3.851   3.464   9.639 -1.2414 -0.4143 -0.6770
  497THY    HM312423   3.733   3.376   9.733  0.1474  0.1355  0.9821
  497THY    CA612424   3.937   3.139   9.712 -0.7802  0.3730  0.4665
  497THY    HA612425   3.922   3.146   9.819 -2.5490 -0.6378  0.3274
  498THY      O12426   8.084   8.147   2.797 -0.0168 -0.4904  0.8663
  498THY     HO12427   8.171   8.104   2.802  0.0242 -0.5099  0.1360
  498THY    CA112428   8.061   8.160   2.662  0.2499  0.5444 -0.3487
  498THY    CA212429   7.931   8.155   2.605 -0.8009  0.7950 -0.1655
  498THY    CP112430   7.811   8.154   2.696 -0.2308 -0.6836  0.4807
  498THY    HP112431   7.833   8.223   2.778  2.9011  0.2680 -1.0094
  498THY    CP212432   7.679   8.195   2.633  0.7784  0.2223 -0.3429
  498THY    HP212433   7.681   8.297   2.595 -1.3154  0.8071  0.9498
  498THY    HP312434   7.635   8.125   2.561  1.0576  0.1182 -0.4137
  498THY    HP412435   7.609   8.206   2.717 -0.8692  0.5449 -1.7093
  498THY    CP312436   7.804   8.022   2.763  1.0614 -0.7572  0.0722
  498THY    HP512437   7.903   7.983   2.790  0.9947  0.3900  2.0984
  498THY    HP612438   7.736   8.019   2.849 -0.4120 -1.1815 -1.0567
  498THY    HP712439   7.749   7.952   2.698  1.2395  0.2962 -1.2432
  498THY    CA312440   7.913   8.147   2.463  0.1907  0.1023  0.4145
  498THY    HA312441   7.819   8.126   2.415 -0.4222 -0.1947  1.6915
  498THY    CA412442   8.022   8.141   2.379  0.0039 -0.3609 -0.9621
  498THY    HA412443   8.014   8.124   2.272  0.3821 -1.9788 -0.7571
  498THY    CA512444   8.149   8.146   2.433 -0.1575 -0.1216 -0.2997
  498THY    CM112445   8.267   8.152   2.346  0.0389  0.2704 -0.5203
  498THY    HM112446   8.354   8.096   2.384 -0.2314  0.4524  0.3912
  498THY    HM212447   8.242   8.110   2.248 -1.2860  0.9850 -0.4986
  498THY    HM312448   8.300   8.256   2.339  1.0473 -0.0256 -0.4347
  498THY    CA612449   8.171   8.147   2.575  0.0718  0.6801  0.0757
  498THY    HA612450   8.275   8.142   2.607  0.3899 -1.6569 -1.1211
  499THY      O12451   8.177   2.517   8.061 -0.6203 -0.3635 -0.1180
  499THY     HO12452   8.216   2.478   8.141  0.2159 -0.6439 -0.6439
  499THY    CA112453   8.040   2.515   8.077  0.2103 -0.5304  0.0668
  499THY    CA212454   7.944   2.552   7.978  0.0167  0.0125 -0.1968
  499THY    CP112455   7.986   2.586   7.838  0.7138 -0.1475 -0.4103
  499THY    HP112456   8.085   2.631   7.829  0.6861 -0.1910 -0.9222
  499THY    CP212457   7.995   2.463   7.751  0.5027  0.5346  0.1221
  499THY    HP212458   8.069   2.460   7.670  0.4300 -1.4288  0.0867
  499THY    HP312459   8.031   2.382   7.815  0.3459  0.3627 -0.0022
  499THY    HP412460   7.898   2.431   7.710  1.0797 -0.7514 -0.2837
  499THY    CP312461   7.885   2.683   7.762 -0.4480 -0.5074  0.1136
  499THY    HP512462   7.787   2.639   7.740 -1.2514  0.0988  2.2446
  499THY    HP612463   7.872   2.774   7.822  2.7293  0.9592 -1.1372
  499THY    HP712464   7.938   2.712   7.670  2.0303 -2.0739  0.9561
  499THY    CA312465   7.805   2.546   8.008 -0.3810 -0.2302  0.0704
  499THY    HA312466   7.722   2.560   7.939 -0.0335 -0.6028 -0.4344
  499THY    CA412467   7.766   2.503   8.136  0.6926 -0.2656  0.4306
  499THY    HA412468   7.659   2.509   8.155  0.0299 -2.6976 -1.8507
  499THY    CA512469   7.862   2.467   8.233  0.0564 -0.2316  0.2938
  499THY    CM112470   7.823   2.424   8.370  0.2205  0.4437 -0.8416
  499THY    HM112471   7.890   2.353   8.420 -0.8725 -0.6505 -0.8746
  499THY    HM212472   7.811   2.512   8.435  0.9649 -1.4606  2.0658
  499THY    HM312473   7.730   2.365   8.373  0.8736 -0.6607  2.9694
  499THY    CA612474   7.999   2.465   8.196  1.1332 -0.5000 -1.0336
  499THY    HA612475   8.070   2.442   8.274  0.6392 -1.4063 -0.8448
  500THY      O12476   0.715   2.722   5.739  0.3361  0.1289  0.3017
  500THY     HO12477   0.676   2.727   5.828 -0.8745 -1.1199 -0.1313
  500THY    CA112478   0.628   2.788   5.650 -0.5901 -1.0378 -0.9707
  500THY    CA212479   0.666   2.813   5.520 -0.0510  0.1944  0.3612
  500THY    CP112480   0.811   2.795   5.469 -0.1986 -0.5197  0.2362
  500THY    HP112481   0.880   2.747   5.540  0.8454 -0.3018 -0.6139
  500THY    CP212482   0.819   2.695   5.353 -0.3198  0.1024 -0.4241
  500THY    HP212483   0.774   2.731   5.260 -1.0155  0.2670 -0.0318
  500THY    HP312484   0.925   2.681   5.331 -0.1684 -0.2449  0.5013
  500THY    HP412485   0.772   2.600   5.381 -1.4417  1.0183  0.9036
  500THY    CP312486   0.874   2.932   5.425  0.5627  0.1303 -0.8759
  500THY    HP512487   0.804   2.982   5.357 -1.2531 -2.0652 -0.7305
  500THY    HP612488   0.910   2.993   5.509  1.8125  0.4309 -1.6063
  500THY    HP712489   0.958   2.912   5.358  0.0475 -0.5460 -1.3290
  500THY    CA312490   0.569   2.859   5.423 -0.2441  0.0830  0.4239
  500THY    HA312491   0.606   2.902   5.330 -1.6834  1.5345  0.4780
  500THY    CA412492   0.436   2.880   5.467  0.1712  0.7651  0.2265
  500THY    HA412493   0.369   2.926   5.395 -0.2063  0.0744  0.1314
  500THY    CA512494   0.405   2.860   5.602  0.2933  0.5413 -0.4568
  500THY    CM112495   0.265   2.892   5.641 -0.0952 -0.2861  0.3258
  500THY    HM112496   0.188   2.824   5.602 -0.7891 -0.7327  2.3339
  500THY    HM212497   0.251   2.886   5.750 -1.3155 -0.5427  0.1674
  500THY    HM312498   0.227   2.987   5.602  2.3548  0.3680 -0.6485
  500THY    CA612499   0.495   2.812   5.695 -0.9203  0.0127  0.1723
  500THY    HA612500   0.463   2.786   5.795  2.3272 -3.1218  0.6167
  501THY      O12501   8.613   3.707   3.070 -0.0080  0.7853  0.4332
  501THY     HO12502   8.667   3.629   3.049 -0.4129  0.5954  0.0856
  501THY    CA112503   8.560   3.658   3.184  0.6199  0.1696 -0.3420
  501THY    CA212504   8.470   3.735   3.257  0.7756  0.1347  0.3779
  501THY    CP112505   8.425   3.872   3.216 -0.2864  0.1615  0.0675
  501THY    HP112506   8.426   3.871   3.107  0.3721 -0.6437  0.0707
  501THY    CP212507   8.286   3.906   3.255  0.0224 -0.7755 -0.1842
  501THY    HP212508   8.291   3.946   3.357 -1.3816  1.1865 -0.8202
  501THY    HP312509   8.249   3.991   3.197  1.7183  0.8714  1.0360
  501THY    HP412510   8.215   3.822   3.246  0.4594 -1.1893  0.2106
  501THY    CP312511   8.524   3.973   3.282  0.7634 -0.7763  0.3685
  501THY    HP512512   8.631   3.950   3.270  1.7818  3.0222  1.0093
  501THY    HP612513   8.495   4.070   3.239 -2.4995 -1.4898  0.7083
  501THY    HP712514   8.501   3.969   3.389 -1.6447 -2.0312 -0.1365
  501THY    CA312515   8.429   3.687   3.378  0.1788 -0.0262 -0.0487
  501THY    HA312516   8.362   3.734   3.450  1.2086  0.1211  0.8363
  501THY    CA412517   8.476   3.566   3.424  0.5899  0.6645  0.8792
  501THY    HA412518   8.439   3.527   3.519 -0.0085 -0.1916  0.3129
  501THY    CA512519   8.556   3.483   3.347  0.1342  0.0291 -0.2489
  501THY    CM112520   8.591   3.347   3.407 -0.2695  0.3614 -0.5042
  501THY    HM112521   8.497   3.296   3.430 -0.0147  0.0544 -0.1411
  501THY    HM212522   8.652   3.293   3.334 -1.1733 -1.3167 -0.0609
  501THY    HM312523   8.648   3.356   3.500 -2.1447 -0.0000  0.7248
  501THY    CA612524   8.603   3.530   3.219 -0.5852 -0.2741  0.1011
  501THY    HA612525   8.662   3.471   3.150 -0.5294 -0.6586  0.4687
  502THY      O12526   9.657   5.711   6.048 -0.3763 -0.2036  0.0693
  502THY     HO12527   9.562   5.713   6.067 -0.3027  1.7763  0.4103
  502THY    CA112528   9.684   5.608   5.970 -0.5791  0.4440 -0.0407
  502THY    CA212529   9.813   5.558   5.957  0.7163  1.2866  0.1938
  502THY    CP112530   9.930   5.631   6.014  0.5834 -0.2462  0.3171
  502THY    HP112531   9.910   5.737   6.035  0.4773  0.4662 -2.8889
  502THY    CP212532   9.984   5.566   6.139 -0.1004 -0.0887  0.1642
  502THY    HP212533  10.091   5.587   6.156  0.0439 -0.2216 -0.5335
  502THY    HP312534   9.937   5.599   6.232 -0.5032  3.3557 -1.1091
  502THY    HP412535   9.984   5.457   6.126  1.2355 -0.1674  0.6169
  502THY    CP312536  10.051   5.658   5.916  0.2984  0.1414  0.3494
  502THY    HP512537  10.019   5.713   5.827  2.6911  0.8805 -0.1394
  502THY    HP612538  10.120   5.730   5.962  0.6726  1.0081 -1.4987
  502THY    HP712539  10.103   5.564   5.893  0.9621  0.7575 -0.7479
  502THY    CA312540   9.835   5.438   5.886  0.5215  1.6715  0.1930
  502THY    HA312541   9.934   5.400   5.859  0.1405  1.2575 -0.6547
  502THY    CA412542   9.727   5.371   5.835  0.9329 -0.0688 -0.5771
  502THY    HA412543   9.748   5.284   5.773  1.6343 -0.5547  0.3134
  502THY    CA512544   9.598   5.422   5.855 -0.1319  0.1890  0.1940
  502THY    CM112545   9.480   5.344   5.792  0.0595  0.0030  0.1032
  502THY    HM112546   9.388   5.403   5.794  0.9430  1.5821 -1.7367
  502THY    HM212547   9.500   5.319   5.687 -0.5376  0.5929 -0.1536
  502THY    HM312548   9.449   5.252   5.842  3.4888  0.1962  3.0629
  502THY    CA612549   9.580   5.542   5.927 -0.5044 -0.5433  0.2358
  502THY    HA612550   9.479   5.575   5.952 -0.3761  1.6327 -1.8309
  503THY      O12551   0.239   5.769   4.013  0.3830 -0.6598  0.3584
  503THY     HO12552   0.281   5.856   4.025 -2.1437  0.5241  1.3103
  503THY    CA112553   0.308   5.680   4.087 -0.7217  0.0746 -0.0423
  503THY    CA212554   0.275   5.544   4.102  0.4806  0.3505  0.1134
  503THY    CP112555   0.160   5.489   4.020  1.0557 -0.3834 -0.1537
  503THY    HP112556   0.110   5.572   3.968  1.4673  0.4046  0.6811
  503THY    CP212557   0.207   5.393   3.916  0.2011 -0.1426 -0.4718
  503THY    HP212558   0.124   5.334   3.874  1.5837 -1.7604 -1.0410
  503THY    HP312559   0.269   5.444   3.842  1.7075 -1.2336 -0.0074
  503THY    HP412560   0.270   5.315   3.960  1.6489  0.4339 -1.4561
  503THY    CP312561   0.054   5.419   4.107  0.0270 -0.1192 -0.1002
  503THY    HP512562   0.022   5.497   4.178 -1.8650 -0.0828 -0.9290
  503THY    HP612563  -0.035   5.385   4.055 -0.6318 -1.8982  2.0446
  503THY    HP712564   0.085   5.334   4.169  1.2793  0.1087 -0.3708
  503THY    CA312565   0.358   5.460   4.169  0.4096 -0.1609 -0.6124
  503THY    HA312566   0.325   5.356   4.178 -1.5341  0.5211  0.8726
  503THY    CA412567   0.475   5.509   4.229  0.3160 -0.3343  0.6231
  503THY    HA412568   0.544   5.446   4.284  0.6037  0.9732  1.8248
  503THY    CA512569   0.499   5.647   4.229 -0.0332 -0.2261  0.5840
  503THY    CM112570   0.621   5.705   4.302  0.2609  0.5100  0.9702
  503THY    HM112571   0.651   5.793   4.243 -0.2277  0.3020  0.3981
  503THY    HM212572   0.586   5.746   4.397 -0.8471  0.4422  0.6096
  503THY    HM312573   0.695   5.625   4.315  0.2183  0.1516 -0.8045
  503THY    CA612574   0.420   5.732   4.158  0.6778 -0.9592  0.1445
  503THY    HA612575   0.449   5.836   4.156 -0.9425 -0.3839  2.5205
  504THY      O12576   5.379   2.805   0.365 -0.1431  0.0930 -0.0183
  504THY     HO12577   5.457   2.849   0.328 -0.3202 -1.2418 -2.1025
  504THY    CA112578   5.295   2.765   0.268 -0.1467  0.3043  0.0488
  504THY    CA212579   5.187   2.686   0.293  0.5066  0.2570 -0.3095
  504THY    CP112580   5.169   2.633   0.435  0.2366  0.0655 -0.1417
  504THY    HP112581   5.231   2.687   0.508  1.0680 -0.6587 -0.3048
  504THY    CP212582   5.022   2.655   0.480 -0.6495 -0.6055  0.5956
  504THY    HP212583   5.009   2.635   0.587 -0.3274  0.1536  0.7780
  504THY    HP312584   4.977   2.751   0.454 -0.0429 -0.2815  0.7354
  504THY    HP412585   4.952   2.584   0.434 -2.9681  1.1216  1.2790
  504THY    CP312586   5.212   2.484   0.439 -0.6701 -1.1167 -0.6067
  504THY    HP512587   5.322   2.488   0.443 -0.7212 -0.2888  0.4907
  504THY    HP612588   5.184   2.438   0.535  1.4718  0.9931  1.1736
  504THY    HP712589   5.180   2.420   0.357  0.6433 -2.7073  0.0688
  504THY    CA312590   5.100   2.649   0.186  0.4305  0.4163  0.2515
  504THY    HA312591   5.016   2.584   0.208  1.1225 -0.4500  0.4025
  504THY    CA412592   5.119   2.696   0.055  0.5163  0.5561 -0.1080
  504THY    HA412593   5.051   2.684  -0.029 -2.0407 -0.7232  1.9985
  504THY    CA512594   5.227   2.784   0.029 -0.0555  0.7968 -0.3611
  504THY    CM112595   5.245   2.820  -0.113 -0.1417  0.1213  0.1451
  504THY    HM112596   5.187   2.911  -0.131 -0.2179  0.5940  2.4706
  504THY    HM212597   5.348   2.850  -0.137 -0.4399  1.0445 -0.0055
  504THY    HM312598   5.199   2.751  -0.184  1.3262 -0.0018 -0.7368
  504THY    CA612599   5.313   2.819   0.137 -0.6253 -0.0037  0.2466
  504THY    HA612600   5.399   2.883   0.119  0.7733 -1.6281  0.8840
  505THY      O12601   6.295   8.400   2.302  0.0948  0.0039  0.2977
  505THY     HO12602   6.332   8.445   2.380  0.1860 -0.8806  0.7902
  505THY    CA112603   6.191   8.477   2.265  0.7441  0.7377  0.4806
  505THY    CA212604   6.070   8.424   2.227  0.0993  0.2113  0.0172
  505THY    CP112605   6.059   8.274   2.209 -0.0352 -0.2163  0.4074
  505THY    HP112606   6.146   8.232   2.156 -1.9967 -2.5489 -1.1709
  505THY    CP212607   6.067   8.193   2.335 -0.4091  0.3095 -0.0607
  505THY    HP212608   5.976   8.202   2.396 -1.5785  0.7072 -1.8008
  505THY    HP312609   6.082   8.088   2.306  0.2329  0.1553  0.7758
  505THY    HP412610   6.157   8.213   2.394  1.0662 -0.5856 -1.8993
  505THY    CP312611   5.928   8.222   2.132 -0.4085 -0.9135  0.3281
  505THY    HP512612   5.901   8.291   2.051  1.3443  0.7273  1.0738
  505THY    HP612613   5.946   8.120   2.096  3.1899 -0.0379 -0.7932
  505THY    HP712614   5.837   8.222   2.192 -0.5000  0.9911  0.2321
  505THY    CA312615   5.955   8.506   2.193 -0.0812  0.4023  0.5920
  505THY    HA312616   5.857   8.463   2.176  0.0979  0.3140 -0.2393
  505THY    CA412617   5.978   8.649   2.192  0.1775  0.1709  0.5516
  505THY    HA412618   5.899   8.714   2.156  0.1674 -0.2656 -0.2372
  505THY    CA512619   6.098   8.702   2.227  0.1519  0.1920  0.6994
  505THY    CM112620   6.117   8.848   2.225  0.2133 -0.5982 -0.3001
  505THY    HM112621   6.128   8.891   2.325 -2.0973  0.7420 -0.5552
  505THY    HM212622   6.212   8.869   2.175  1.2872 -0.8357  1.5437
  505THY    HM312623   6.032   8.900   2.180  0.1313  0.9964  1.5812
  505THY    CA612624   6.202   8.618   2.272 -1.1060  0.4122 -0.4312
  505THY    HA612625   6.297   8.649   2.315 -2.2405 -1.1563  3.6048
  506THY      O12626   9.274   5.132   5.343  0.2977 -0.3230 -0.1540
  506THY     HO12627   9.192   5.080   5.335  0.7099 -0.8638 -0.9842
  506THY    CA112628   9.316   5.141   5.216  1.0448 -0.3731 -0.0766
  506THY    CA212629   9.442   5.195   5.186  0.3169 -1.2680 -0.4875
  506THY    CP112630   9.508   5.285   5.293  0.9529  0.1872  0.1283
  506THY    HP112631   9.442   5.310   5.377 -0.0689 -0.1470 -0.5634
  506THY    CP212632   9.633   5.208   5.345  0.0350  0.4104  0.2486
  506THY    HP212633   9.680   5.279   5.414  1.1115  1.3192 -1.3436
  506THY    HP312634   9.614   5.116   5.401 -0.6406  1.6142  2.0911
  506THY    HP412635   9.706   5.190   5.265 -0.3831 -0.9260  0.1493
  506THY    CP312636   9.557   5.424   5.241 -0.1919  0.3459  0.1526
  506THY    HP512637   9.614   5.401   5.150 -0.5643 -2.0587  0.4434
  506THY    HP612638   9.466   5.483   5.232  0.1973  0.9614  0.2366
  506THY    HP712639   9.631   5.470   5.307  0.3255  0.1017 -0.2447
  506THY    CA312640   9.494   5.178   5.056 -0.2621 -0.2424  0.2217
  506THY    HA312641   9.594   5.219   5.038  0.2968 -1.0300  1.4567
  506THY    CA412642   9.422   5.103   4.957  0.1752  0.1806 -0.0392
  506THY    HA412643   9.467   5.090   4.859 -0.4047  1.3439 -0.4726
  506THY    CA512644   9.288   5.068   4.983 -0.3702  0.6162 -0.2754
  506THY    CM112645   9.212   4.986   4.878 -0.0999  0.2170 -0.5625
  506THY    HM112646   9.104   5.004   4.881 -0.1821 -0.2668 -0.6357
  506THY    HM212647   9.250   5.016   4.779  1.2128 -1.4217 -0.6022
  506THY    HM312648   9.238   4.881   4.894  0.8502  0.6796  1.2427
  506THY    CA612649   9.239   5.078   5.117 -0.2425  0.1122  0.2652
  506THY    HA612650   9.150   5.020   5.136  0.0807  0.1253  1.9988
  507THY      O12651   2.063   7.103   2.512 -0.0449  0.0194 -0.0219
  507THY     HO12652   2.038   7.015   2.544  0.3213 -0.3588 -0.7565
  507THY    CA112653   2.062   7.091   2.377  0.2542 -0.0346  0.1447
  507THY    CA212654   2.098   7.197   2.288  0.2582  0.1360 -0.8537
  507THY    CP112655   2.131   7.340   2.343  0.2541 -0.3559 -0.3705
  507THY    HP112656   2.113   7.345   2.451 -2.9088 -0.3451 -0.8116
  507THY    CP212657   2.277   7.374   2.321  0.5700 -0.0719  0.3703
  507THY    HP212658   2.351   7.294   2.336  1.1579  0.7543  2.2286
  507THY    HP312659   2.298   7.394   2.216 -1.4418 -1.2695 -0.3058
  507THY    HP412660   2.306   7.449   2.396  0.4424  0.1659  0.1818
  507THY    CP312661   2.042   7.446   2.294 -0.5237 -0.1153  0.5653
  507THY    HP512662   2.072   7.459   2.189  1.2687 -1.6357  0.8399
  507THY    HP612663   1.938   7.418   2.312 -0.9143 -0.0941 -1.3783
  507THY    HP712664   2.074   7.533   2.352 -0.6516 -0.1774  0.7275
  507THY    CA312665   2.100   7.171   2.152  0.5140  0.2067 -0.1915
  507THY    HA312666   2.128   7.255   2.089  2.7543  1.4280  2.2568
  507THY    CA412667   2.044   7.047   2.102 -0.8819  0.0239  0.7406
  507THY    HA412668   2.035   7.031   1.995  1.3353  0.6236  0.4339
  507THY    CA512669   2.004   6.940   2.194  0.1507 -0.6270  0.6061
  507THY    CM112670   1.953   6.806   2.147  0.2532 -0.7604 -0.5603
  507THY    HM112671   1.864   6.818   2.083  1.0384  0.2431 -1.5048
  507THY    HM212672   2.019   6.736   2.094 -0.9277 -3.7475  1.6358
  507THY    HM312673   1.907   6.752   2.230  0.3586  1.5361  1.0680
  507THY    CA612674   2.021   6.967   2.331 -0.3020  0.1769 -0.3661
  507THY    HA612675   1.994   6.890   2.403 -1.2903  0.3863 -0.5072
  508THY      O12676   5.085   2.215   6.505 -0.1383  0.0951 -0.4932
  508THY     HO12677   5.152   2.233   6.436  1.7817  1.4458  1.5981
  508THY    CA112678   4.960   2.239   6.458  0.3636 -0.0060 -0.2340
  508THY    CA212679   4.859   2.261   6.556 -1.0232  0.2939  0.0330
  508THY    CP112680   4.887   2.265   6.705  0.1819 -0.6776  0.0822
  508THY    HP112681   4.987   2.239   6.739  1.2109  1.8257 -0.8164
  508THY    CP212682   4.873   2.409   6.748 -0.1817  0.2078 -0.3969
  508THY    HP212683   4.960   2.462   6.707  0.2276 -0.8283 -0.9081
  508THY    HP312684   4.776   2.449   6.718 -0.6563  1.2891  2.2887
  508THY    HP412685   4.876   2.424   6.857  0.9995 -0.1677 -0.3515
  508THY    CP312686   4.795   2.175   6.791  0.2798 -0.5139 -0.5565
  508THY    HP512687   4.809   2.189   6.898 -0.3883 -2.0887 -0.2253
  508THY    HP612688   4.687   2.194   6.780  0.3377  1.7530  1.8373
  508THY    HP712689   4.814   2.067   6.779 -1.1797 -0.7910 -0.6265
  508THY    CA312690   4.729   2.290   6.513  0.1567  0.1765  0.2410
  508THY    HA312691   4.645   2.302   6.581 -1.0615 -0.6166 -1.0569
  508THY    CA412692   4.702   2.289   6.376 -0.0115  0.0293 -0.2354
  508THY    HA412693   4.600   2.307   6.342 -0.4958  0.1996  1.2477
  508THY    CA512694   4.804   2.277   6.284  0.6959  0.5546  0.0911
  508THY    CM112695   4.773   2.285   6.137 -0.5023 -0.9438  0.4644
  508THY    HM112696   4.698   2.210   6.110 -1.5169  0.1615  0.1158
  508THY    HM212697   4.747   2.389   6.112  0.8286 -0.8919 -0.8026
  508THY    HM312698   4.861   2.268   6.075 -1.0638  0.8222 -0.8950
  508THY    CA612699   4.933   2.245   6.327  0.0064  0.5774  0.2652
  508THY    HA612700   5.013   2.252   6.254 -0.7333  3.1584 -0.4150
  509THY      O12701   1.040   7.642   0.621 -0.6355 -0.1881 -0.1800
  509THY     HO12702   1.101   7.571   0.646 -0.1895  0.3494  0.2795
  509THY    CA112703   0.987   7.677   0.737  0.6878 -0.5536  0.5419
  509THY    CA212704   0.913   7.797   0.752 -1.2928 -0.3832 -0.2193
  509THY    CP112705   0.919   7.905   0.636 -0.3529 -0.4402 -0.5356
  509THY    HP112706   1.000   7.884   0.566  0.1991  3.5609 -1.3008
  509THY    CP212707   0.791   7.937   0.565 -0.5372  0.0459 -0.3234
  509THY    HP212708   0.740   7.843   0.541  0.6015 -0.6933  0.0807
  509THY    HP312709   0.722   7.987   0.633  1.1491  0.3389  1.2278
  509THY    HP412710   0.806   7.996   0.474  0.9005  1.1752  0.6101
  509THY    CP312711   0.968   8.032   0.714 -0.0132  0.4939  0.0839
  509THY    HP512712   0.895   8.050   0.793 -2.3477  1.1771 -2.0887
  509THY    HP612713   1.056   8.009   0.775 -0.5380 -0.8511  0.3748
  509THY    HP712714   0.976   8.120   0.649 -2.0181 -0.5908 -1.7559
  509THY    CA312715   0.848   7.819   0.876 -0.0269  0.2631  0.0881
  509THY    HA312716   0.788   7.906   0.901  0.0806  0.2370  0.4308
  509THY    CA412717   0.854   7.722   0.972  0.1328 -0.6287  0.6389
  509THY    HA412718   0.796   7.731   1.063 -1.6821 -0.2268 -0.5032
  509THY    CA512719   0.931   7.610   0.951  0.3868  0.1468  0.4265
  509THY    CM112720   0.937   7.516   1.056  0.2198  0.4385  0.1241
  509THY    HM112721   1.031   7.463   1.072 -0.5237 -0.2858  2.4521
  509THY    HM212722   0.900   7.561   1.148 -0.5565 -1.6784  0.9225
  509THY    HM312723   0.865   7.437   1.030  0.4876 -0.1966  1.2539
  509THY    CA612724   0.995   7.584   0.832 -0.2321 -0.8491  0.2330
  509THY    HA612725   1.037   7.486   0.815  0.5189 -0.5354  0.2478
  510THY      O12726   4.355   8.400   7.063  0.6212 -0.1277 -0.3276
  510THY     HO12727   4.414   8.323   7.063  0.0028 -0.6443  0.9089
  510THY    CA112728   4.427   8.509   7.062  0.4264  0.1536 -0.2653
  510THY    CA212729   4.360   8.636   7.059 -0.1865 -0.0907 -0.0457
  510THY    CP112730   4.204   8.642   7.060  0.2239 -0.2093  0.0365
  510THY    HP112731   4.149   8.547   7.062  0.4352 -0.3509  2.0910
  510THY    CP212732   4.164   8.702   7.198 -0.4315 -0.0192  0.3920
  510THY    HP212733   4.068   8.753   7.193  1.0683  2.8983 -0.5602
  510THY    HP312734   4.162   8.624   7.275  0.6374  0.7772  1.2645
  510THY    HP412735   4.230   8.780   7.237 -0.5211  0.5462 -0.5472
  510THY    CP312736   4.147   8.731   6.940  0.1028 -0.0138 -0.3738
  510THY    HP512737   4.039   8.740   6.957  0.1875 -1.0986  0.9198
  510THY    HP612738   4.191   8.831   6.948  0.9055 -0.1485 -2.4151
  510THY    HP712739   4.178   8.680   6.848 -1.9315 -2.2769  0.1013
  510THY    CA312740   4.430   8.757   7.034  0.2812 -0.2921  0.3419
  510THY    HA312741   4.373   8.848   7.020 -1.1249 -1.0159  1.2424
  510THY    CA412742   4.573   8.748   7.035  0.1602  0.3120 -0.1084
  510THY    HA412743   4.638   8.834   7.023  0.8464 -0.3682 -1.6514
  510THY    CA512744   4.629   8.623   7.059 -0.0350  0.0350  0.0085
  510THY    CM112745   4.781   8.627   7.087  0.4412  0.1872  0.3574
  510THY    HM112746   4.811   8.529   7.125  0.3515 -0.0703 -0.2142
  510THY    HM212747   4.836   8.641   6.993  0.8514 -0.4624  0.4899
  510THY    HM312748   4.797   8.715   7.149  0.2486  1.1363 -0.8941
  510THY    CA612749   4.563   8.503   7.063  0.4675 -0.0220  0.0528
  510THY    HA612750   4.616   8.408   7.068 -0.7743 -0.6591  1.9515
  511THY      O12751   5.299   6.443   4.373  0.1812 -0.1612  0.1678
  511THY     HO12752   5.313   6.349   4.394 -0.1208 -0.1084  0.6032
  511THY    CA112753   5.163   6.455   4.351 -0.6357 -0.4387  0.5848
  511THY    CA212754   5.109   6.561   4.273  0.2313  0.4190 -0.5779
  511THY    CP112755   5.205   6.664   4.228 -0.9565  0.2843  0.7659
  511THY    HP112756   5.297   6.664   4.288  0.5568 -1.3736 -1.4019
  511THY    CP212757   5.256   6.623   4.087  0.7623  0.6285  0.3166
  511THY    HP212758   5.338   6.688   4.055  0.0106  0.6407 -1.7911
  511THY    HP312759   5.302   6.524   4.098  1.3191  0.8776  0.2520
  511THY    HP412760   5.179   6.617   4.009  0.1748  2.1818  0.7426
  511THY    CP312761   5.156   6.806   4.232  0.5611  0.0930  0.4692
  511THY    HP512762   5.124   6.832   4.333 -4.3568 -1.0144 -0.5570
  511THY    HP612763   5.229   6.884   4.206  0.8402  0.1450  1.3931
  511THY    HP712764   5.068   6.817   4.168  1.1740 -0.3860 -0.4832
  511THY    CA312765   4.973   6.563   4.237  0.0583  0.6436 -0.2331
  511THY    HA312766   4.927   6.635   4.170 -1.2150  0.3828  0.3233
  511THY    CA412767   4.887   6.468   4.297 -0.0838 -0.0195  0.0002
  511THY    HA412768   4.781   6.461   4.276  0.0755 -1.6979 -0.3760
  511THY    CA512769   4.940   6.368   4.384 -0.0567  0.0961 -0.1026
  511THY    CM112770   4.843   6.268   4.437  0.4572 -0.2003  0.5892
  511THY    HM112771   4.795   6.226   4.348  0.9913 -1.9048  1.0661
  511THY    HM212772   4.885   6.183   4.493  0.3897  0.7835  2.1722
  511THY    HM312773   4.770   6.313   4.505  0.1743 -0.3804  0.4049
  511THY    CA612774   5.077   6.357   4.403  0.1399 -0.3034 -0.3298
  511THY    HA612775   5.112   6.268   4.454 -0.1864 -0.7468 -0.8670
  512THY      O12776   2.920   2.950   9.321  0.7110  0.7590  0.2932
  512THY     HO12777   3.003   3.000   9.314  1.7121 -0.5444  1.9307
  512THY    CA112778   2.934   2.840   9.235 -0.3306 -0.1772 -0.0143
  512THY    CA212779   2.830   2.764   9.181 -0.6387  0.1432  0.3010
  512THY    CP112780   2.689   2.808   9.203  0.2578  0.2338  0.1042
  512THY    HP112781   2.695   2.901   9.261  2.4776  0.3476 -0.2213
  512THY    CP212782   2.620   2.838   9.070  0.4311 -0.3100  0.1552
  512THY    HP212783   2.586   2.755   9.007 -1.0528 -0.0456  0.5579
  512THY    HP312784   2.536   2.909   9.081 -0.0269  0.3749 -5.0640
  512THY    HP412785   2.689   2.894   9.005  0.0412  0.1465  0.1246
  512THY    CP312786   2.607   2.706   9.287  1.3226  0.4633 -0.2150
  512THY    HP512787   2.621   2.600   9.260  1.2045  0.4868 -0.3714
  512THY    HP612788   2.641   2.724   9.389 -0.4736  2.1562  0.1459
  512THY    HP712789   2.501   2.733   9.291  1.2099  0.9414 -3.2808
  512THY    CA312790   2.858   2.654   9.092 -0.0719 -1.1506 -0.1319
  512THY    HA312791   2.775   2.596   9.053  0.3737 -0.3556 -2.4253
  512THY    CA412792   2.993   2.626   9.067 -0.3542  0.4249  0.2473
  512THY    HA412793   3.015   2.541   9.002 -1.7343 -1.5140  2.1603
  512THY    CA512794   3.101   2.708   9.116  0.0794 -1.2276  0.4258
  512THY    CM112795   3.239   2.692   9.076 -0.3714  0.0331 -0.0753
  512THY    HM112796   3.298   2.630   9.144 -0.0831  0.6731  0.2687
  512THY    HM212797   3.246   2.639   8.981 -2.0280  0.9042 -0.7334
  512THY    HM312798   3.282   2.792   9.059 -2.7122  1.0798 -0.3135
  512THY    CA612799   3.063   2.812   9.204 -0.2965 -0.2004 -0.1768
  512THY    HA612800   3.143   2.873   9.245 -1.0347  0.2151  0.6742
  513THY      O12801   6.630   3.094   0.379  0.6650  0.6037  0.2929
  513THY     HO12802   6.568   3.164   0.407 -0.0105  0.1131  0.0525
  513THY    CA112803   6.712   3.163   0.291  0.1129  0.4520 -0.0367
  513THY    CA212804   6.834   3.113   0.251 -0.5935  0.6182  0.1492
  513THY    CP112805   6.886   2.989   0.323  0.2309 -0.3469 -0.2119
  513THY    HP112806   6.806   2.920   0.351 -1.1635  0.6383 -1.5881
  513THY    CP212807   6.963   2.889   0.241  0.3271  0.1268  0.0453
  513THY    HP212808   6.994   2.803   0.301 -0.7226  0.0891  0.5537
  513THY    HP312809   6.899   2.847   0.163  1.4588  0.5767 -1.1632
  513THY    HP412810   7.052   2.932   0.193  2.1063 -1.2767  1.8478
  513THY    CP312811   6.958   3.028   0.454  0.6586  0.5895 -0.6236
  513THY    HP512812   7.014   2.942   0.494 -0.0936  0.9206  1.2598
  513THY    HP612813   7.023   3.113   0.431  1.6963 -0.3431 -1.2685
  513THY    HP712814   6.878   3.049   0.526  1.0256  0.8682 -0.2867
  513THY    CA312815   6.926   3.186   0.172  0.3408 -0.0507  0.0630
  513THY    HA312816   7.017   3.137   0.139 -0.0786  0.2633 -1.6227
  513THY    CA412817   6.887   3.311   0.116  0.1940  0.5647  0.2179
  513THY    HA412818   6.945   3.369   0.045  0.1575 -0.6547 -0.8483
  513THY    CA512819   6.752   3.356   0.145  0.0934  0.3206 -0.6106
  513THY    CM112820   6.696   3.472   0.083  0.3243 -0.2796  0.6974
  513THY    HM112821   6.621   3.524   0.144  1.1919  1.0087  0.6843
  513THY    HM212822   6.775   3.540   0.050  1.3795 -0.8471  1.9407
  513THY    HM312823   6.651   3.445  -0.013 -0.1350 -1.1787  1.1501
  513THY    CA612824   6.665   3.279   0.230  0.2271 -0.2439  0.3435
  513THY    HA612825   6.564   3.316   0.243  1.3768  2.1499  4.3882
  514THY      O12826   6.326   4.847   2.056 -0.1229  0.1940  0.1504
  514THY     HO12827   6.381   4.861   1.977 -0.5662  0.6882 -0.0810
  514THY    CA112828   6.210   4.907   2.027  0.6229  0.4733  0.0969
  514THY    CA212829   6.093   4.856   2.092 -0.0881  0.2041 -0.0665
  514THY    CP112830   6.095   4.743   2.200  0.2253 -0.0567 -0.5764
  514THY    HP112831   6.178   4.676   2.177  1.3676  1.7366 -1.9896
  514THY    CP212832   6.101   4.798   2.343  0.1445 -0.2151 -0.1159
  514THY    HP212833   6.192   4.859   2.354 -0.6553  1.0553 -0.3945
  514THY    HP312834   6.016   4.864   2.365 -0.3124 -0.7353 -0.3158
  514THY    HP412835   6.087   4.717   2.416 -0.1891  0.9687  1.1758
  514THY    CP312836   5.967   4.654   2.186 -0.1270 -0.3622 -0.2163
  514THY    HP512837   5.991   4.558   2.233  0.1536 -0.7873 -1.2058
  514THY    HP612838   5.889   4.714   2.235 -1.9848  0.6812 -4.0737
  514THY    HP712839   5.947   4.627   2.082  3.0733  0.9230 -1.2961
  514THY    CA312840   5.975   4.921   2.055  0.1018 -0.4441  0.0565
  514THY    HA312841   5.875   4.891   2.087 -1.7045  1.7418 -2.9339
  514THY    CA412842   5.971   5.028   1.960 -0.4691 -0.1179  0.3953
  514THY    HA412843   5.883   5.085   1.932  1.3095  2.7562  0.2372
  514THY    CA512844   6.082   5.056   1.884 -0.1109  0.3295 -0.4114
  514THY    CM112845   6.077   5.158   1.773 -0.7661 -0.0069  0.1059
  514THY    HM112846   6.175   5.185   1.733  1.1165 -3.3279  2.0510
  514THY    HM212847   6.022   5.123   1.685 -1.4490  0.4415  0.3410
  514THY    HM312848   6.010   5.242   1.798 -0.7700 -0.0537  0.2545
  514THY    CA612849   6.203   5.002   1.922 -0.8231  0.2876 -0.6336
  514THY    HA612850   6.296   5.030   1.875 -0.0317 -0.1038  0.6347
  515THY      O12851   4.282   5.664   4.633 -0.0067  0.1681 -0.3504
  515THY     HO12852   4.332   5.648   4.715 -0.9704  0.1634  0.2484
  515THY    CA112853   4.199   5.768   4.663  0.5464  0.3808  0.3869
  515THY    CA212854   4.139   5.850   4.564  0.3669 -0.2058 -0.6646
  515THY    CP112855   4.156   5.822   4.413 -0.4427 -0.8190  0.2460
  515THY    HP112856   4.224   5.740   4.386 -1.9243 -1.3771 -2.0745
  515THY    CP212857   4.015   5.792   4.371 -0.1160 -0.4681 -0.6009
  515THY    HP212858   4.016   5.774   4.263 -1.3443 -2.8988 -0.2779
  515THY    HP312859   4.000   5.693   4.415 -1.1200  0.7653  2.0215
  515THY    HP412860   3.937   5.860   4.407  0.7754 -0.8435  2.2980
  515THY    CP312861   4.204   5.945   4.350 -0.2414 -1.0925  0.1659
  515THY    HP512862   4.237   5.941   4.245  0.3646  1.5344  0.1870
  515THY    HP612863   4.143   6.035   4.361  1.4871  0.0489  0.7444
  515THY    HP712864   4.288   5.985   4.407 -1.1979  2.0290 -0.4137
  515THY    CA312865   4.056   5.954   4.620 -0.5593  0.0224 -0.2140
  515THY    HA312866   4.013   6.027   4.552  0.3787 -0.3047 -1.1922
  515THY    CA412867   4.034   5.968   4.751  1.0983 -0.7791 -0.9843
  515THY    HA412868   3.973   6.049   4.791  0.6581 -1.0462 -1.1102
  515THY    CA512869   4.083   5.878   4.845 -0.3528  0.1287  0.0398
  515THY    CM112870   4.058   5.878   4.990 -0.5622 -0.0258 -0.3595
  515THY    HM112871   4.145   5.936   5.021 -0.1439 -1.3006  0.9722
  515THY    HM212872   3.962   5.929   5.007 -1.5700 -2.0810  0.5296
  515THY    HM312873   4.058   5.780   5.039  0.2299  0.3942  0.5166
  515THY    CA612874   4.170   5.782   4.800  0.8360  0.0590  0.2235
  515THY    HA612875   4.212   5.708   4.868 -0.0377 -0.0202  0.6939
  516THY      O12876   7.507   1.556   7.329  0.0551  0.1246  0.7295
  516THY     HO12877   7.483   1.489   7.396 -1.5364 -0.1789 -0.0961
  516THY    CA112878   7.630   1.602   7.348  0.4842  0.1027 -0.6706
  516THY    CA212879   7.728   1.600   7.251 -0.0843  0.4440  0.8985
  516THY    CP112880   7.695   1.570   7.100 -0.1229 -0.7435  0.7783
  516THY    HP112881   7.588   1.567   7.078 -0.2748 -0.4842  1.4520
  516THY    CP212882   7.748   1.679   7.007  0.5424 -0.8877  0.1170
  516THY    HP212883   7.856   1.700   7.006  0.5714 -1.0527 -0.3222
  516THY    HP312884   7.700   1.684   6.909  0.9190  0.1011 -0.0339
  516THY    HP412885   7.709   1.776   7.042 -2.7829 -1.2307 -2.1407
  516THY    CP312886   7.740   1.433   7.058 -0.2831 -0.2049 -0.0959
  516THY    HP512887   7.848   1.422   7.049 -0.1915 -0.6333  1.3291
  516THY    HP612888   7.706   1.355   7.127 -1.6541 -1.0427 -1.6439
  516THY    HP712889   7.693   1.406   6.963  1.1674 -2.4161 -0.2323
  516THY    CA312890   7.858   1.630   7.285  0.3946 -0.3341  0.3294
  516THY    HA312891   7.944   1.609   7.221 -1.7202 -4.3844 -1.5789
  516THY    CA412892   7.887   1.669   7.419  0.0786  0.3750 -0.4907
  516THY    HA412893   7.991   1.692   7.440 -0.0738  2.5026 -1.7625
  516THY    CA512894   7.792   1.668   7.517 -0.5257 -0.0069 -0.0366
  516THY    CM112895   7.827   1.696   7.669 -0.6789  0.4731 -0.2338
  516THY    HM112896   7.746   1.710   7.741 -0.0486 -2.6792  1.2710
  516THY    HM212897   7.861   1.603   7.715  0.2292  0.7206 -0.3743
  516THY    HM312898   7.913   1.763   7.683  1.7824 -2.6121  0.6803
  516THY    CA612899   7.661   1.632   7.485  0.6080 -0.0139 -0.1313
  516THY    HA612900   7.591   1.617   7.567  0.2401 -2.8286 -0.8434
  517THY      O12901   0.170   3.870   0.010 -0.4643 -0.5222  0.1451
  517THY     HO12902   0.130   3.876   0.098  0.5757 -1.5655  0.7117
  517THY    CA112903   0.138   3.747  -0.034  0.1197 -0.1388  0.2452
  517THY    CA212904   0.188   3.684  -0.153  0.0173 -0.3377 -0.2971
  517THY    CP112905   0.276   3.772  -0.249 -0.1654  0.7848 -1.0114
  517THY    HP112906   0.310   3.865  -0.203  2.7504 -0.2988 -0.7681
  517THY    CP212907   0.407   3.697  -0.269 -0.6384  0.0832  0.2260
  517THY    HP212908   0.468   3.758  -0.336 -0.1380 -1.1421 -0.4614
  517THY    HP312909   0.455   3.689  -0.171  0.5247  1.2980 -0.2100
  517THY    HP412910   0.386   3.597  -0.309  0.0044 -0.4144  1.1042
  517THY    CP312911   0.197   3.807  -0.376  0.0198 -0.3142  0.3432
  517THY    HP512912   0.134   3.896  -0.361  1.7153  0.9509  0.2532
  517THY    HP612913   0.268   3.831  -0.456 -0.6176  0.7431  0.0776
  517THY    HP712914   0.141   3.723  -0.418  0.4417  0.9046 -2.9524
  517THY    CA312915   0.147   3.555  -0.183 -0.0988  0.4041 -0.7242
  517THY    HA312916   0.168   3.513  -0.281 -2.1352  0.0567 -1.0523
  517THY    CA412917   0.070   3.478  -0.088  0.7412 -0.3005  0.0276
  517THY    HA412918   0.037   3.379  -0.120  1.5341 -0.8123  0.7548
  517THY    CA512919   0.020   3.539   0.029 -0.8076  0.3962  0.2058
  517THY    CM112920  -0.053   3.460   0.123 -0.3079 -0.5217  0.3191
  517THY    HM112921   0.016   3.384   0.161  0.9652  0.9989  1.1552
  517THY    HM212922  -0.075   3.521   0.211  2.5312 -1.0222  1.4887
  517THY    HM312923  -0.151   3.428   0.083 -0.3087 -1.6774  1.2079
  517THY    CA612924   0.060   3.674   0.062  0.2348 -0.1601  0.2098
  517THY    HA612925   0.031   3.720   0.156  1.0875  0.9943 -0.0650
  518THY      O12926   3.030   3.961   9.650  0.7359 -0.0364 -0.1324
  518THY     HO12927   3.023   3.978   9.745 -1.0695 -1.5239  0.0575
  518THY    CA112928   2.943   4.041   9.591  0.7765  0.3903  0.0704
  518THY    CA212929   2.947   4.059   9.449  0.2695  0.4191 -0.5823
  518THY    CP112930   3.049   3.982   9.355  0.4227 -0.2434 -0.4238
  518THY    HP112931   3.090   3.897   9.411 -0.0997 -0.1186  0.1572
  518THY    CP212932   2.965   3.924   9.244  0.0899  0.6546  0.3867
  518THY    HP212933   2.924   4.002   9.178 -0.6087  1.3235  1.5793
  518THY    HP312934   3.019   3.856   9.176 -2.8371 -0.7845 -0.6535
  518THY    HP412935   2.884   3.859   9.278 -1.8531  2.0652 -1.2587
  518THY    CP312936   3.162   4.072   9.294 -0.0224  0.0239  0.1149
  518THY    HP512937   3.128   4.169   9.254 -0.3513 -0.3161 -0.4418
  518THY    HP612938   3.250   4.091   9.357  1.8061  0.1761 -2.3003
  518THY    HP712939   3.202   4.025   9.204 -0.7580 -1.0040  0.3099
  518THY    CA312940   2.855   4.150   9.389  0.1566 -0.0325  0.2065
  518THY    HA312941   2.867   4.169   9.283 -0.1496 -2.2594 -0.2784
  518THY    CA412942   2.771   4.228   9.470  0.3200  0.2474  0.2181
  518THY    HA412943   2.705   4.299   9.421  1.2230 -0.1743 -1.7172
  518THY    CA512944   2.768   4.210   9.608  0.3100  0.7235 -0.5866
  518THY    CM112945   2.674   4.283   9.698 -0.7555 -0.7936  0.4924
  518THY    HM112946   2.588   4.215   9.698 -0.7119 -0.8508  0.1980
  518THY    HM212947   2.717   4.296   9.798  0.4554 -0.6775 -0.0257
  518THY    HM312948   2.643   4.381   9.659  0.2847  0.0176  1.6226
  518THY    CA612949   2.859   4.119   9.670  0.0510 -0.4983 -0.5947
  518THY    HA612950   2.844   4.097   9.775  0.3076  2.7318  0.2040
  519THY      O12951   8.937   0.986   4.862  0.1035  0.4990 -0.1769
  519THY     HO12952   8.930   0.895   4.828 -1.6015  0.2353  0.7883
  519THY    CA112953   9.035   0.966   4.947 -0.8014 -0.1097 -0.5491
  519THY    CA212954   9.051   1.041   5.071 -0.0724 -0.2874  0.3817
  519THY    CP112955   8.944   1.149   5.115 -0.0276  0.2304 -0.0257
  519THY    HP112956   8.897   1.196   5.029  0.8434  0.8270 -0.1925
  519THY    CP212957   8.834   1.086   5.203  0.9268  0.8209  0.6282
  519THY    HP212958   8.798   0.994   5.155  1.2622  0.3715  1.2246
  519THY    HP312959   8.865   1.055   5.304  0.2999  1.6410  1.0938
  519THY    HP412960   8.748   1.153   5.216 -2.0038 -2.7756  1.6652
  519THY    CP312961   9.006   1.276   5.185  0.1744  0.0250  0.0878
  519THY    HP512962   9.087   1.315   5.122 -0.2070  0.6363 -0.0339
  519THY    HP612963   8.927   1.351   5.199  1.5287  2.1461 -2.6821
  519THY    HP712964   9.039   1.262   5.289  3.7756  0.0717 -0.9313
  519THY    CA312965   9.165   1.011   5.148 -0.3057 -0.6623  0.4074
  519THY    HA312966   9.190   1.081   5.228  1.7485 -1.0507  0.1553
  519THY    CA412967   9.264   0.927   5.097  0.3006  0.4022  0.1884
  519THY    HA412968   9.355   0.906   5.152  0.0515 -2.7506 -0.3715
  519THY    CA512969   9.248   0.847   4.982  0.1214  0.6241  0.0724
  519THY    CM112970   9.353   0.752   4.928  0.7711 -0.5321 -0.4869
  519THY    HM112971   9.451   0.802   4.929  1.1447 -1.1408  3.0958
  519THY    HM212972   9.351   0.664   4.993  1.0948 -0.3947 -0.2891
  519THY    HM312973   9.317   0.714   4.831 -2.2176 -0.1032  0.3574
  519THY    CA612974   9.130   0.865   4.905  0.1677  0.7035 -0.7524
  519THY    HA612975   9.123   0.806   4.814  0.1228 -0.0884 -0.2502
  520THY      O12976   6.340   8.774   4.994  0.5847 -0.3505  0.3385
  520THY     HO12977   6.348   8.683   4.960 -0.6439 -0.2296 -0.3218
  520THY    CA112978   6.376   8.772   5.121 -0.4592 -0.4703 -0.2119
  520THY    CA212979   6.466   8.866   5.171 -0.4609 -0.4407 -0.1593
  520THY    CP112980   6.545   8.958   5.075  0.2740 -0.7061 -0.0011
  520THY    HP112981   6.532   8.932   4.969  2.8044  2.9158 -1.4231
  520THY    CP212982   6.497   9.102   5.095  0.1414 -0.6524 -0.0113
  520THY    HP212983   6.556   9.173   5.035  0.1210 -1.3901 -0.9068
  520THY    HP312984   6.389   9.110   5.081  0.2241 -0.1900 -0.4282
  520THY    HP412985   6.519   9.124   5.201 -0.9658 -1.4447  0.3897
  520THY    CP312986   6.704   8.955   5.101  0.5053  0.3967  0.4890
  520THY    HP512987   6.742   8.861   5.059 -0.3748  0.6773 -1.0199
  520THY    HP612988   6.747   9.035   5.040  0.8333 -0.4134 -0.3607
  520THY    HP712989   6.735   8.980   5.203  1.2445  1.1556  0.0839
  520THY    CA312990   6.483   8.873   5.309 -0.3783 -0.3838  0.2391
  520THY    HA312991   6.543   8.947   5.360 -2.1622 -1.2022  3.8202
  520THY    CA412992   6.401   8.788   5.390 -0.2656 -0.7665 -0.1345
  520THY    HA412993   6.413   8.805   5.497 -0.5821 -0.0252 -0.2137
  520THY    CA512994   6.314   8.695   5.342 -0.9924 -0.1881  0.5769
  520THY    CM112995   6.242   8.601   5.436 -0.2255  0.4930 -0.2244
  520THY    HM112996   6.217   8.637   5.537  0.3315 -1.4848  0.6667
  520THY    HM212997   6.152   8.562   5.387  0.5384 -0.3566 -0.9807
  520THY    HM312998   6.305   8.513   5.453 -1.9262 -0.6359  0.4612
  520THY    CA612999   6.299   8.693   5.203  0.8981 -0.0536  0.3703
  520THY    HA613000   6.210   8.646   5.163 -0.9074  1.5787  2.2069
  521THY      O13001   7.929   4.386   8.517 -0.6616  0.3812 -0.0019
  521THY     HO13002   7.986   4.347   8.585  1.0043  1.6848 -0.5862
  521THY    CA113003   7.953   4.520   8.508  0.0556 -0.8112 -0.2080
  521THY    CA213004   7.859   4.610   8.459  0.1420  0.2445 -0.2908
  521THY    CP113005   7.729   4.547   8.398 -0.3128 -0.0276 -0.0746
  521THY    HP113006   7.746   4.443   8.368  1.6705  0.0888  0.4981
  521THY    CP213007   7.611   4.566   8.488 -0.4666 -0.2139 -0.7282
  521THY    HP213008   7.636   4.521   8.585  2.2913  1.7480 -0.4029
  521THY    HP313009   7.589   4.673   8.499  1.0357  0.1272 -0.7859
  521THY    HP413010   7.524   4.513   8.449 -1.9134  1.4876  0.0164
  521THY    CP313011   7.706   4.610   8.264  0.1355 -0.2415  0.2675
  521THY    HP513012   7.786   4.585   8.193  0.5227 -2.2521  1.3472
  521THY    HP613013   7.608   4.587   8.220  0.4589 -2.6507  0.6708
  521THY    HP713014   7.713   4.719   8.276  1.2614 -0.4648  1.9475
  521THY    CA313015   7.875   4.747   8.485 -0.3208 -0.0238 -0.5274
  521THY    HA313016   7.801   4.821   8.454  2.0339  1.9943 -1.6922
  521THY    CA413017   7.989   4.799   8.553 -0.1877  0.5656 -0.7210
  521THY    HA413018   8.012   4.904   8.562  0.3597  0.3684  0.3545
  521THY    CA513019   8.085   4.712   8.593 -0.5698  0.3660 -0.5294
  521THY    CM113020   8.213   4.771   8.648 -0.1632 -0.4098 -0.0895
  521THY    HM113021   8.217   4.812   8.749  2.4193  0.7201 -0.5605
  521THY    HM213022   8.293   4.697   8.639  1.1124  0.7436  1.1555
  521THY    HM313023   8.244   4.861   8.592 -1.7677  0.4387  0.3193
  521THY    CA613024   8.070   4.572   8.574  0.1255 -0.0504 -0.4407
  521THY    HA613025   8.147   4.508   8.614  1.3045  0.3660 -1.9222
  522THY      O13026   8.644   6.151   8.429  1.0793  0.6672  0.1188
  522THY     HO13027   8.586   6.126   8.503 -1.7701  0.8625 -1.8667
  522THY    CA113028   8.767   6.092   8.441 -0.4337 -0.5684  0.4171
  522THY    CA213029   8.850   6.090   8.327 -0.5085  0.6033 -0.4430
  522THY    CP113030   8.816   6.163   8.203  0.5951  0.1027 -0.6607
  522THY    HP113031   8.768   6.256   8.234 -0.7807 -0.4478 -1.0778
  522THY    CP213032   8.929   6.236   8.125  0.5448  0.0292 -0.4856
  522THY    HP213033   8.890   6.303   8.048 -0.4556 -0.3445 -0.3079
  522THY    HP313034   8.988   6.294   8.197 -1.7870  2.2297 -0.2083
  522THY    HP413035   8.992   6.164   8.070  2.9363  1.6790 -0.0796
  522THY    CP313036   8.737   6.078   8.105  0.1245 -0.3316  0.7112
  522THY    HP513037   8.649   6.034   8.154  0.0437  0.4145  1.2439
  522THY    HP613038   8.697   6.128   8.016  0.1038 -1.6706 -0.0510
  522THY    HP713039   8.813   6.003   8.080  2.3097  1.3784  1.9134
  522THY    CA313040   8.980   6.016   8.339  0.2799 -0.7268  0.2236
  522THY    HA313041   9.043   6.006   8.251  0.4794  1.3046  0.0944
  522THY    CA413042   9.020   5.968   8.464 -0.1051 -0.3323  0.5287
  522THY    HA413043   9.116   5.918   8.467  0.7947  1.3162  0.1710
  522THY    CA513044   8.930   5.963   8.569 -0.1012 -0.2858 -0.1353
  522THY    CM113045   8.963   5.895   8.703  0.1896 -0.1741  0.5642
  522THY    HM113046   9.070   5.878   8.717  0.7543  1.9778 -0.6678
  522THY    HM213047   8.936   5.969   8.779 -0.4518  1.3630 -1.0886
  522THY    HM313048   8.917   5.795   8.700 -0.3802  0.1140 -0.7862
  522THY    CA613049   8.801   6.031   8.558  0.2477  0.5302 -0.0017
  522THY    HA613050   8.727   6.035   8.636 -0.7418  1.0084 -0.9400
  523THY      O13051   8.719   9.121   0.665 -0.2035 -0.4223  0.0873
  523THY     HO13052   8.799   9.109   0.719  0.5298  0.9878 -0.6414
  523THY    CA113053   8.625   9.168   0.750 -0.4453 -0.9003 -0.3696
  523THY    CA213054   8.492   9.186   0.714  0.0456 -0.0470 -0.6507
  523THY    CP113055   8.448   9.149   0.574 -0.4532  0.9327  0.6990
  523THY    HP113056   8.536   9.126   0.513 -0.8930 -0.4529  0.5537
  523THY    CP213057   8.386   9.005   0.578 -0.2667  0.1570  0.3237
  523THY    HP213058   8.453   8.928   0.618 -2.4592 -1.1652  1.7040
  523THY    HP313059   8.299   9.005   0.645  1.2988 -0.5293  2.4412
  523THY    HP413060   8.353   8.977   0.477 -1.2787 -1.0240  0.9456
  523THY    CP313061   8.330   9.238   0.513  0.0799  0.0063  0.0161
  523THY    HP513062   8.237   9.224   0.570 -0.3112 -3.3012 -1.2024
  523THY    HP613063   8.365   9.339   0.534 -1.5824  0.1812  2.4447
  523THY    HP713064   8.302   9.217   0.409  0.6503  0.3344 -0.2049
  523THY    CA313065   8.402   9.245   0.804  0.8204 -0.3474 -0.5644
  523THY    HA313066   8.296   9.258   0.783  0.8353  4.0593  1.0841
  523THY    CA413067   8.445   9.290   0.931  1.3787  0.2386  0.0651
  523THY    HA413068   8.377   9.342   0.998  0.0984  1.2584 -1.9474
  523THY    CA513069   8.575   9.272   0.972 -0.1097  0.9799 -0.1147
  523THY    CM113070   8.623   9.306   1.109 -0.0747 -0.2311 -0.1707
  523THY    HM113071   8.598   9.407   1.143  0.7416 -0.1680  0.2553
  523THY    HM213072   8.587   9.235   1.186 -2.8174  1.2843  0.0725
  523THY    HM313073   8.732   9.310   1.117 -0.1729  0.7277  0.9354
  523THY    CA613074   8.663   9.202   0.882  0.2356 -0.4004  0.1867
  523THY    HA613075   8.763   9.188   0.921  0.5146  0.9798 -0.0106
  524THY      O13076   0.769   8.042   9.010 -0.7479  0.1056 -0.0395
  524THY     HO13077   0.784   8.084   9.096 -0.4942 -2.0415  1.0311
  524THY    CA113078   0.638   8.009   8.997 -0.6631 -0.6081 -0.3863
  524THY    CA213079   0.606   7.884   8.939  0.2318  0.5475 -0.3848
  524THY    CP113080   0.709   7.782   8.899 -1.0918  0.5099  0.0196
  524THY    HP113081   0.804   7.830   8.873  0.2336 -1.2518  1.3689
  524THY    CP213082   0.742   7.684   9.018  0.5275 -0.4233  0.0763
  524THY    HP213083   0.833   7.627   8.995 -0.1320 -1.7158  0.5887
  524THY    HP313084   0.785   7.746   9.097  4.1573 -1.3399 -0.9796
  524THY    HP413085   0.660   7.615   9.040  0.7543 -0.8752 -0.4525
  524THY    CP313086   0.668   7.699   8.777 -0.0392 -0.0251 -0.0351
  524THY    HP513087   0.580   7.633   8.783 -0.5703  0.7908  1.7032
  524THY    HP613088   0.658   7.767   8.693  0.3150 -1.6327 -1.4298
  524THY    HP713089   0.750   7.631   8.753  0.3683  0.2754  0.4848
  524THY    CA313090   0.470   7.846   8.950  0.3999  0.3139 -0.7767
  524THY    HA313091   0.451   7.743   8.922  0.9362  0.4103 -1.5558
  524THY    CA413092   0.371   7.929   9.005 -0.0086 -0.0745  0.0065
  524THY    HA413093   0.268   7.903   9.027 -0.1690  1.1552  0.8210
  524THY    CA513094   0.408   8.050   9.053  0.2399 -0.5308  0.0474
  524THY    CM113095   0.304   8.132   9.115 -0.2146 -0.1158 -0.0060
  524THY    HM113096   0.345   8.229   9.147  1.5426 -1.0930  0.8835
  524THY    HM213097   0.219   8.155   9.050 -1.7869 -0.7169  1.7324
  524THY    HM313098   0.263   8.087   9.206  2.0089  0.5226  1.4174
  524THY    CA613099   0.545   8.088   9.057  0.2582  0.1507 -0.4388
  524THY    HA613100   0.568   8.177   9.114  0.5486 -0.5122  0.5074
  525THY      O13101   1.898   5.206   0.590 -0.1524  0.1300  0.2757
  525THY     HO13102   1.876   5.126   0.640  0.9625  0.0985  0.7590
  525THY    CA113103   1.782   5.277   0.576  0.0900 -0.6085 -0.2218
  525THY    CA213104   1.779   5.385   0.479  1.1823 -0.1469 -0.0997
  525THY    CP113105   1.903   5.420   0.401 -0.5008 -0.4379 -0.2647
  525THY    HP113106   1.971   5.335   0.400  0.1010 -0.0433  1.7905
  525THY    CP213107   1.867   5.439   0.244  0.4072 -0.0652 -0.5924
  525THY    HP213108   1.795   5.365   0.209 -1.3399  1.6040 -0.6799
  525THY    HP313109   1.832   5.542   0.228  2.2930  0.4944 -1.4839
  525THY    HP413110   1.963   5.435   0.191  0.5973  0.9188 -0.3512
  525THY    CP313111   1.972   5.549   0.450 -0.3561  0.1973  0.1103
  525THY    HP513112   1.892   5.623   0.463 -1.6663 -1.3497  1.2022
  525THY    HP613113   2.029   5.528   0.541  1.9812  1.1958 -1.0415
  525THY    HP713114   2.046   5.587   0.378  0.0888 -2.2874 -0.8574
  525THY    CA313115   1.660   5.457   0.456  0.5074 -0.0700 -1.0454
  525THY    HA313116   1.656   5.540   0.387 -2.3259  0.1055 -0.7995
  525THY    CA413117   1.544   5.416   0.530 -0.5915 -0.3961  0.0292
  525THY    HA413118   1.452   5.470   0.514 -0.7870 -0.6646  0.2585
  525THY    CA513119   1.549   5.310   0.628 -0.2068 -0.5486 -0.2087
  525THY    CM113120   1.428   5.285   0.708  0.5911  0.2959 -0.5576
  525THY    HM113121   1.440   5.201   0.778 -0.7686 -0.8655 -1.6671
  525THY    HM213122   1.395   5.375   0.760  1.5318  0.0187  0.5655
  525THY    HM313123   1.350   5.265   0.634  1.4809 -0.5827 -1.3064
  525THY    CA613124   1.666   5.244   0.648 -0.4171 -0.2601 -0.1724
  525THY    HA613125   1.675   5.163   0.720  1.2068  0.2336  0.2267
  526THY      O13126   0.167   8.448   5.902 -0.6110 -0.7087  0.3987
  526THY     HO13127   0.253   8.409   5.879 -0.2096 -1.0336  2.2909
  526THY    CA113128   0.108   8.476   5.788  0.7389  0.1208  0.2732
  526THY    CA213129  -0.019   8.551   5.785  0.2558  0.2187 -0.8264
  526THY    CP113130  -0.063   8.632   5.908  0.5647  0.9777 -0.4867
  526THY    HP113131   0.012   8.632   5.987 -1.0577  2.2210  1.1238
  526THY    CP213132  -0.096   8.780   5.887  0.0257  0.5265  0.0552
  526THY    HP213133  -0.004   8.827   5.851  0.7849 -0.3820  0.7695
  526THY    HP313134  -0.178   8.794   5.815 -0.0505 -0.9314 -0.1810
  526THY    HP413135  -0.123   8.822   5.984 -0.0792 -0.2781  0.3831
  526THY    CP313136  -0.184   8.548   5.973 -0.9083 -0.2772 -0.5310
  526THY    HP513137  -0.170   8.439   5.975 -1.3255 -0.3207  0.5739
  526THY    HP613138  -0.194   8.568   6.081 -1.2141  0.8221 -0.7462
  526THY    HP713139  -0.276   8.562   5.915 -1.7603  0.4305  0.9453
  526THY    CA313140  -0.079   8.585   5.662  0.2942  0.4339  0.8541
  526THY    HA313141  -0.162   8.655   5.656 -0.6756 -0.8322 -2.1858
  526THY    CA413142  -0.026   8.522   5.547  0.2546  0.7170 -0.0494
  526THY    HA413143  -0.070   8.534   5.448  1.1546 -0.8401 -0.6850
  526THY    CA513144   0.094   8.446   5.557 -0.3483  0.6274  0.3465
  526THY    CM113145   0.159   8.394   5.424 -0.2447 -0.4356  0.0140
  526THY    HM113146   0.077   8.372   5.354 -2.1497  0.0505  1.9675
  526THY    HM213147   0.228   8.470   5.385 -1.3541  0.6167  0.0437
  526THY    HM313148   0.208   8.299   5.447  2.0889  0.0628 -2.4328
  526THY    CA613149   0.156   8.428   5.673 -0.2282  0.0527  0.3869
  526THY    HA613150   0.249   8.371   5.680  0.0555  0.4909  0.2495
  527THY      O13151   3.704   9.311   8.143 -0.0262 -0.5057  0.2321
  527THY     HO13152   3.743   9.396   8.168  0.5716  0.0939 -2.4186
  527THY    CA113153   3.813   9.231   8.118  0.5924 -0.2773 -0.3269
  527THY    CA213154   3.804   9.119   8.036  0.2534  0.4024  1.2824
  527THY    CP113155   3.665   9.068   7.980 -0.1254  0.1809 -0.1561
  527THY    HP113156   3.587   9.114   8.042 -0.7811 -1.9550  0.7117
  527THY    CP213157   3.652   9.119   7.834 -0.3915 -0.4544  0.2267
  527THY    HP213158   3.732   9.073   7.776  0.3204  0.7985  0.1701
  527THY    HP313159   3.559   9.079   7.794  0.8807 -0.5104 -2.9467
  527THY    HP413160   3.666   9.228   7.834  0.0939 -0.4459  2.6714
  527THY    CP313161   3.664   8.917   7.983  0.0518  0.1466  0.6068
  527THY    HP513162   3.716   8.871   7.898  1.0592 -0.4471  1.5186
  527THY    HP613163   3.700   8.870   8.075 -0.5937 -2.4689 -0.3705
  527THY    HP713164   3.560   8.883   7.975  0.4879 -1.0607 -0.3250
  527THY    CA313165   3.923   9.055   7.998  0.2902 -0.8638  0.1231
  527THY    HA313166   3.920   8.973   7.927 -1.0358 -1.5639  0.9463
  527THY    CA413167   4.039   9.093   8.064 -0.2738 -0.6133  0.2340
  527THY    HA413168   4.134   9.044   8.045  0.0808 -0.4591  1.5097
  527THY    CA513169   4.048   9.184   8.164  0.4866  0.1254  0.7740
  527THY    CM113170   4.174   9.222   8.228  0.0200 -0.7490 -0.1518
  527THY    HM113171   4.201   9.327   8.207  0.6934 -1.2982 -2.2654
  527THY    HM213172   4.167   9.228   8.337  0.5950 -0.2352 -0.1320
  527THY    HM313173   4.255   9.156   8.195  0.1538 -0.5197 -0.2864
  527THY    CA613174   3.933   9.264   8.181 -0.0802  0.4857  0.0700
  527THY    HA613175   3.931   9.331   8.266  0.6717 -1.4741  1.6949
  528THY      O13176   1.532   2.491   4.511 -0.4898  0.0685  0.0659
  528THY     HO13177   1.605   2.511   4.450 -0.6800 -1.0574 -0.5765
  528THY    CA113178   1.494   2.363   4.483 -0.0387  0.5754 -0.2387
  528THY    CA213179   1.428   2.295   4.584  0.0653  0.4422  0.0183
  528THY    CP113180   1.408   2.354   4.726 -0.3447  0.2746 -0.1585
  528THY    HP113181   1.437   2.460   4.735  2.4353 -0.4964  1.0004
  528THY    CP213182   1.272   2.331   4.779  0.5537  0.6667 -0.8290
  528THY    HP213183   1.200   2.356   4.700 -0.2208  2.1101  0.2871
  528THY    HP313184   1.267   2.224   4.803  0.3045  0.5887 -1.2140
  528THY    HP413185   1.242   2.402   4.857  0.1054 -0.9039  0.4821
  528THY    CP313186   1.511   2.280   4.817  0.6275  0.1996 -0.0590
  528THY    HP513187   1.614   2.312   4.795  0.3368 -0.3568 -2.5224
  528THY    HP613188   1.481   2.301   4.921  1.3088  0.3799  0.1065
  528THY    HP713189   1.489   2.173   4.811 -0.8238  0.5557 -2.3779
  528THY    CA313190   1.390   2.156   4.554  0.2086 -0.2562 -0.6892
  528THY    HA313191   1.354   2.089   4.633  0.6897 -0.3297 -0.5329
  528THY    CA413192   1.408   2.105   4.418 -1.2308  0.2027 -0.0339
  528THY    HA413193   1.398   1.998   4.404  1.8198 -0.2286  0.4131
  528THY    CA513194   1.471   2.190   4.327 -0.1112 -0.3200  0.3254
  528THY    CM113195   1.505   2.142   4.193  0.1398 -0.9082  0.8849
  528THY    HM113196   1.503   2.220   4.117  0.8986 -1.7881 -0.0693
  528THY    HM213197   1.609   2.107   4.197  0.0517 -1.4719 -0.8564
  528THY    HM313198   1.433   2.065   4.164 -0.0271 -0.3559 -0.2002
  528THY    CA613199   1.508   2.322   4.357  0.6331  0.2481 -0.4821
  528THY    HA613200   1.547   2.391   4.283 -1.7097  1.8646 -0.3155
  529THY      O13201   1.846   4.358   8.552  0.5704  1.2365  0.1558
  529THY     HO13202   1.904   4.368   8.475 -0.4842  0.7179 -0.7266
  529THY    CA113203   1.743   4.285   8.500  0.1278  0.2399 -0.4667
  529THY    CA213204   1.614   4.308   8.536 -0.4982  0.6968 -0.1343
  529THY    CP113205   1.570   4.405   8.644 -0.1631  0.7046  1.0764
  529THY    HP113206   1.652   4.473   8.672  0.0147  0.6181  0.7656
  529THY    CP213207   1.464   4.500   8.602 -0.3935  0.2610 -0.4827
  529THY    HP213208   1.377   4.434   8.608 -0.4338  0.3857  0.4513
  529THY    HP313209   1.456   4.584   8.673  0.9876 -0.5287  0.6608
  529THY    HP413210   1.487   4.542   8.504 -1.7236 -1.9797 -1.8380
  529THY    CP313211   1.529   4.332   8.771  0.1823 -0.3921 -0.4398
  529THY    HP513212   1.455   4.254   8.752  1.7167 -1.9200 -0.3673
  529THY    HP613213   1.610   4.270   8.812  0.2795 -1.0324 -1.5659
  529THY    HP713214   1.491   4.407   8.842  0.8770  1.6345 -2.1127
  529THY    CA313215   1.510   4.233   8.479  0.2864  0.2585  0.3288
  529THY    HA313216   1.405   4.247   8.505 -0.0316 -1.4552  0.0782
  529THY    CA413217   1.540   4.136   8.382  0.8535  0.2213 -0.3128
  529THY    HA413218   1.463   4.078   8.331  0.9180  1.7295 -2.2294
  529THY    CA513219   1.669   4.113   8.347 -0.0567  0.0684  0.8402
  529THY    CM113220   1.700   3.989   8.263 -1.0415 -0.0624 -0.1402
  529THY    HM113221   1.639   3.898   8.273  2.4791 -2.5512  0.6672
  529THY    HM213222   1.704   4.024   8.159  1.3842 -0.2964 -0.1872
  529THY    HM313223   1.802   3.959   8.291 -1.7460 -0.7662  1.7871
  529THY    CA613224   1.770   4.188   8.406 -0.0012 -0.0569 -0.1739
  529THY    HA613225   1.874   4.163   8.385  0.1347 -0.5057  0.9758
  530THY      O13226   3.968   8.406   8.389 -0.0915  0.4809 -0.2142
  530THY     HO13227   3.919   8.416   8.306  0.1885  0.9866 -0.3212
  530THY    CA113228   4.093   8.355   8.364  0.3824 -0.2024 -0.3111
  530THY    CA213229   4.206   8.359   8.453  0.0289  0.2628  0.7450
  530THY    CP113230   4.193   8.435   8.588  0.1348  1.0604  0.9791
  530THY    HP113231   4.088   8.460   8.606 -0.1945  0.6975 -0.3295
  530THY    CP213232   4.240   8.349   8.713  0.1863 -0.3489 -0.0226
  530THY    HP213233   4.265   8.410   8.800  1.1930 -1.7634  0.7115
  530THY    HP313234   4.157   8.284   8.742 -0.3675  0.3889  0.0863
  530THY    HP413235   4.332   8.297   8.683  1.1336  0.7628  0.8960
  530THY    CP313236   4.287   8.560   8.582  0.8300 -0.2381 -0.5351
  530THY    HP513237   4.264   8.619   8.671  0.5758 -1.1679  0.0305
  530THY    HP613238   4.390   8.526   8.593  0.8678 -0.3172 -1.1102
  530THY    HP713239   4.265   8.621   8.493  1.3438  0.6759 -0.0387
  530THY    CA313240   4.329   8.303   8.420 -0.2325 -0.0253  0.8918
  530THY    HA313241   4.416   8.304   8.486  0.0775  3.2280  0.6012
  530THY    CA413242   4.341   8.243   8.289  0.3804  0.2309  0.0231
  530THY    HA413243   4.436   8.197   8.263  0.7944  0.4822  1.0198
  530THY    CA513244   4.232   8.240   8.198 -0.6588 -0.0326  0.1731
  530THY    CM113245   4.255   8.185   8.063  0.4426  0.4830 -1.0220
  530THY    HM113246   4.338   8.242   8.019  1.2871 -1.3905 -1.9699
  530THY    HM213247   4.275   8.077   8.064  0.4118  0.4530 -2.0254
  530THY    HM313248   4.163   8.203   8.006 -0.4703 -0.4471  0.1232
  530THY    CA613249   4.108   8.288   8.238 -0.0959 -0.2425  0.1075
  530THY    HA613250   4.021   8.282   8.173  1.1120 -0.7484 -1.5300
  531THY      O13251   0.204   8.177   3.044  0.0408  0.1037 -0.3085
  531THY     HO13252   0.160   8.236   3.108 -2.5680 -0.0196 -1.8230
  531THY    CA113253   0.297   8.106   3.114 -0.8633 -0.5013  0.0925
  531THY    CA213254   0.422   8.068   3.053 -0.1641  0.0016  0.1059
  531THY    CP113255   0.445   8.120   2.912 -0.5647 -0.2026 -0.3284
  531THY    HP113256   0.355   8.152   2.857  1.8854  0.7121 -4.1925
  531THY    CP213257   0.532   8.247   2.935 -0.0592  0.4177  0.0895
  531THY    HP213258   0.616   8.223   3.001 -0.6066 -2.3976 -0.0943
  531THY    HP313259   0.567   8.275   2.835  0.5825 -0.0736  0.1621
  531THY    HP413260   0.465   8.323   2.976  1.6792  1.0919  1.8555
  531THY    CP313261   0.513   8.011   2.825  0.2753  0.4022  0.2509
  531THY    HP513262   0.454   7.919   2.818 -0.5111  0.9769 -1.0215
  531THY    HP613263   0.535   8.052   2.725 -0.1196  0.2777  0.1092
  531THY    HP713264   0.600   7.974   2.881 -0.7425 -1.9501  0.4223
  531THY    CA313265   0.517   7.998   3.133  0.0276 -0.8955  0.5125
  531THY    HA313266   0.613   7.978   3.088 -0.0292 -1.5821  0.6898
  531THY    CA413267   0.494   7.967   3.270  0.0404  0.0557 -0.0381
  531THY    HA413268   0.563   7.913   3.334 -1.7795 -4.0177 -1.1935
  531THY    CA513269   0.368   8.000   3.327  0.7575 -0.5888  0.0912
  531THY    CM113270   0.332   7.965   3.467 -0.5085  0.1639 -0.5003
  531THY    HM113271   0.277   8.044   3.519 -3.6942  0.0510 -3.3595
  531THY    HM213272   0.271   7.875   3.475 -2.2831  1.4750  1.9539
  531THY    HM313273   0.430   7.949   3.515 -0.8464  2.7888  1.2873
  531THY    CA613274   0.270   8.066   3.247 -0.5342 -0.3413 -0.9584
  531THY    HA613275   0.174   8.099   3.283  0.0031  0.6410 -0.3753
  532THY      O13276   1.805   2.844   5.376 -0.0756 -0.6036 -0.0964
  532THY     HO13277   1.816   2.763   5.430  1.9733  1.7104  3.3638
  532THY    CA113278   1.930   2.902   5.383  0.8332  0.2294 -0.1084
  532THY    CA213279   1.950   3.034   5.417  0.7653 -0.4068 -0.6347
  532THY    CP113280   1.826   3.120   5.457 -0.2571  0.5543  0.4339
  532THY    HP113281   1.757   3.060   5.518 -1.7948  0.4626 -1.3191
  532THY    CP213282   1.858   3.230   5.549  0.2105 -0.6346 -0.7949
  532THY    HP213283   1.763   3.270   5.586  0.3735  2.0024 -2.8869
  532THY    HP313284   1.915   3.194   5.635  0.7646  0.0437 -0.8627
  532THY    HP413285   1.910   3.313   5.498 -1.5588  0.7288 -0.4691
  532THY    CP313286   1.753   3.171   5.331  0.0383  0.4607 -0.4594
  532THY    HP513287   1.680   3.249   5.355  0.2728  1.0967 -1.7506
  532THY    HP613288   1.815   3.229   5.262 -1.5077  1.8976 -0.7118
  532THY    HP713289   1.703   3.095   5.270 -1.0408  1.3740 -0.7365
  532THY    CA313290   2.079   3.081   5.420  0.1828  0.3577 -0.6705
  532THY    HA313291   2.099   3.184   5.449  0.1235  0.1796  0.0162
  532THY    CA413292   2.188   2.995   5.400  0.4049  0.4039  0.2300
  532THY    HA413293   2.290   3.031   5.408  0.3752  1.5568 -3.0671
  532THY    CA513294   2.158   2.860   5.367  0.0824 -0.0665 -0.2380
  532THY    CM113295   2.283   2.775   5.334  0.9743  0.1221  0.1316
  532THY    HM113296   2.373   2.833   5.357  1.2207 -0.1186 -0.2144
  532THY    HM213297   2.278   2.681   5.391  0.2683  0.1481  0.1200
  532THY    HM313298   2.291   2.756   5.227  0.5515  0.6524  0.0054
  532THY    CA613299   2.028   2.815   5.351  0.1302 -0.1722 -0.1398
  532THY    HA613300   2.004   2.713   5.324  0.5791  0.4767 -3.3663
  533THY      O13301   5.080   7.623   2.331  0.5100 -0.5643 -0.8342
  533THY     HO13302   5.078   7.670   2.416  2.1346 -1.0865 -0.4737
  533THY    CA113303   5.209   7.592   2.313  0.3055 -0.2435 -0.6139
  533THY    CA213304   5.264   7.522   2.204  0.2390  0.1101 -0.2949
  533THY    CP113305   5.185   7.463   2.089 -0.2560 -0.1289 -0.4100
  533THY    HP113306   5.080   7.487   2.106 -0.6503 -2.7598  1.4660
  533THY    CP213307   5.228   7.514   1.953 -0.5070 -0.5018  0.4694
  533THY    HP213308   5.155   7.483   1.878  1.5945 -1.1352 -1.4347
  533THY    HP313309   5.220   7.623   1.943 -3.8356 -0.7729 -1.1485
  533THY    HP413310   5.325   7.479   1.917  0.7271  4.1412 -1.3848
  533THY    CP313311   5.201   7.309   2.090  0.3224 -0.0766  0.4325
  533THY    HP513312   5.152   7.261   2.004 -0.4789  2.8053 -0.8394
  533THY    HP613313   5.308   7.291   2.082  0.4077 -0.2510  1.7014
  533THY    HP713314   5.155   7.278   2.185 -0.3804 -0.7249 -0.1049
  533THY    CA313315   5.405   7.507   2.198 -0.4966  0.2257 -0.4611
  533THY    HA313316   5.456   7.452   2.120 -0.6291 -0.9721  0.2758
  533THY    CA413317   5.481   7.556   2.307 -0.3325  0.3584  0.6168
  533THY    HA413318   5.589   7.547   2.299 -0.3322 -0.3190  1.3677
  533THY    CA513319   5.420   7.620   2.414 -0.0131 -0.2465  0.1426
  533THY    CM113320   5.492   7.689   2.523 -1.0487  0.5378  0.1949
  533THY    HM113321   5.595   7.652   2.534 -1.0078  0.8639  0.9191
  533THY    HM213322   5.477   7.794   2.494 -2.0449 -0.2440 -2.4383
  533THY    HM313323   5.453   7.658   2.620  1.2309 -0.3700  0.8916
  533THY    CA613324   5.289   7.647   2.415  0.4443 -0.0492  0.0294
  533THY    HA613325   5.231   7.705   2.487  0.2255 -1.2940  0.8836
  534THY      O13326   2.316   5.148   6.880  0.0597 -0.0410 -0.1480
  534THY     HO13327   2.266   5.209   6.824 -1.8644  0.4696  1.9730
  534THY    CA113328   2.407   5.217   6.954  0.8341 -0.7152  0.0097
  534THY    CA213329   2.525   5.155   6.991  0.1895  0.2863 -1.0054
  534THY    CP113330   2.558   5.007   6.937  0.2603 -0.8441  0.1997
  534THY    HP113331   2.481   4.960   6.875  1.8447 -3.7061  0.2133
  534THY    CP213332   2.684   4.988   6.847  0.1151  0.2128 -0.7723
  534THY    HP213333   2.695   4.882   6.821 -1.2040  0.2387 -1.5294
  534THY    HP313334   2.672   5.029   6.746  2.9750  0.5183 -1.0616
  534THY    HP413335   2.769   5.031   6.900 -0.2509  0.4753 -0.3920
  534THY    CP313336   2.566   4.917   7.063  0.2193  0.0686 -0.4714
  534THY    HP513337   2.494   4.955   7.137  1.3555  0.1163  0.6316
  534THY    HP613338   2.539   4.815   7.035 -0.7167  0.3660 -0.7087
  534THY    HP713339   2.666   4.927   7.106 -0.0883 -3.5353  1.4318
  534THY    CA313340   2.608   5.223   7.086 -0.4791 -0.0340  0.2156
  534THY    HA313341   2.708   5.187   7.112 -1.1389 -0.3309  2.5582
  534THY    CA413342   2.574   5.351   7.125  0.5204 -0.0874  0.6268
  534THY    HA413343   2.633   5.416   7.188 -0.3644  1.4495 -0.0732
  534THY    CA513344   2.455   5.419   7.078 -0.4460  0.7500  0.3303
  534THY    CM113345   2.418   5.550   7.129 -0.0452 -0.0247  0.2975
  534THY    HM113346   2.407   5.617   7.043 -1.8219  0.2976  0.7379
  534THY    HM213347   2.324   5.544   7.186  0.2503  1.7082  1.0132
  534THY    HM313348   2.488   5.599   7.198 -1.5881  0.3775  1.6421
  534THY    CA613349   2.376   5.356   6.983  0.7776  1.4861  0.3477
  534THY    HA613350   2.282   5.403   6.956  0.4120  0.5136 -0.1260
  535THY      O13351   6.095   2.221   5.413 -0.0397 -0.4099 -0.4184
  535THY     HO13352   6.067   2.218   5.506  1.3876  0.5598  0.0731
  535THY    CA113353   6.232   2.229   5.412 -1.0261 -0.0374 -0.6481
  535THY    CA213354   6.302   2.307   5.316  0.0548  0.6841  0.0753
  535THY    CP113355   6.221   2.397   5.224  0.3345  0.0219 -0.0825
  535THY    HP113356   6.117   2.364   5.210  0.5580  0.4055 -3.6463
  535THY    CP213357   6.204   2.534   5.274  0.2130 -0.0269 -1.1226
  535THY    HP213358   6.301   2.585   5.264 -0.9561  2.7106  0.2736
  535THY    HP313359   6.125   2.586   5.217  0.7146 -0.5880 -2.3613
  535THY    HP413360   6.170   2.523   5.378 -0.2252  3.0540 -0.8402
  535THY    CP313361   6.275   2.380   5.078  0.3894  0.0302  0.0788
  535THY    HP513362   6.212   2.439   5.011 -2.4613  0.4444  2.8803
  535THY    HP613363   6.383   2.392   5.075  0.3015  0.7329 -0.8854
  535THY    HP713364   6.263   2.275   5.049  0.7891 -0.1591  0.5911
  535THY    CA313365   6.442   2.313   5.318  0.0901  0.5282  0.2148
  535THY    HA313366   6.492   2.381   5.249  0.7398 -0.2656 -0.1037
  535THY    CA413367   6.515   2.226   5.403 -0.0484 -0.1074  0.0520
  535THY    HA413368   6.623   2.219   5.399  0.0456 -0.5650  2.4166
  535THY    CA513369   6.447   2.149   5.498  0.3504 -0.3935  0.8472
  535THY    CM113370   6.515   2.066   5.602 -0.3899  0.0434 -0.5979
  535THY    HM113371   6.513   2.110   5.702  3.9117 -0.0615 -0.3132
  535THY    HM213372   6.466   1.968   5.601 -2.2204  0.9056 -0.7033
  535THY    HM313373   6.620   2.047   5.578 -0.4169  1.8833 -2.4714
  535THY    CA613374   6.305   2.153   5.506  0.0868  0.2395  0.1436
  535THY    HA613375   6.258   2.091   5.582  2.0269  1.9007  2.8792
  536THY      O13376   4.303   6.710   4.985  0.1227  0.0381 -0.2264
  536THY     HO13377   4.211   6.725   4.959 -1.2408 -0.7594  3.4121
  536THY    CA113378   4.376   6.819   4.961  0.4068 -0.2850 -0.1813
  536THY    CA213379   4.516   6.823   4.970  0.1354 -0.5437  0.8896
  536THY    CP113380   4.599   6.708   5.021 -0.2894  0.7277 -0.3517
  536THY    HP113381   4.536   6.628   5.062 -1.4600  1.9198  0.2618
  536THY    CP213382   4.675   6.638   4.911 -0.3881  0.2763 -0.4544
  536THY    HP213383   4.733   6.555   4.955 -0.3726  0.2807 -0.4668
  536THY    HP313384   4.609   6.590   4.839  1.4174 -0.7881 -1.4801
  536THY    HP413385   4.744   6.713   4.871 -1.6195  2.0004  0.5464
  536THY    CP313386   4.696   6.737   5.138  0.6088 -0.1832 -0.3040
  536THY    HP513387   4.765   6.821   5.120 -0.6961  0.8317 -0.6768
  536THY    HP613388   4.633   6.757   5.225  0.6368  2.8265 -0.8691
  536THY    HP713389   4.752   6.647   5.167 -0.5321 -0.3288  1.6402
  536THY    CA313390   4.582   6.940   4.921 -0.3255 -0.1438 -0.0508
  536THY    HA313391   4.690   6.950   4.927 -0.3266 -0.2492  0.1723
  536THY    CA413392   4.516   7.046   4.869  0.3843 -0.6019 -0.3370
  536THY    HA413393   4.579   7.130   4.841  0.7369 -1.7672 -3.4902
  536THY    CA513394   4.377   7.051   4.878  0.5528  0.5538 -0.0132
  536THY    CM113395   4.296   7.163   4.810 -0.0212  0.4457 -1.1361
  536THY    HM113396   4.192   7.168   4.845  0.4995 -0.4432  0.6912
  536THY    HM213397   4.336   7.265   4.814  0.3907  0.2631 -0.0426
  536THY    HM313398   4.283   7.142   4.704 -1.6947  0.4872 -0.9598
  536THY    CA613399   4.310   6.930   4.919 -0.2840  0.4830  0.3598
  536THY    HA613400   4.202   6.933   4.911 -0.3564 -0.6181  0.8242
  537THY      O13401   5.167   4.231   0.081 -0.1135 -0.2373 -0.1447
  537THY     HO13402   5.117   4.295   0.028 -0.6112 -2.1385 -2.1262
  537THY    CA113403   5.132   4.110   0.030  1.1556 -0.6634 -0.0650
  537THY    CA213404   5.219   4.000   0.050 -1.0854 -0.2428  0.1197
  537THY    CP113405   5.356   4.013   0.128 -0.2694 -0.1240  0.2050
  537THY    HP113406   5.348   4.096   0.200  1.3550  0.4995 -0.2942
  537THY    CP213407   5.392   3.892   0.216  0.1495 -0.3445 -0.0829
  537THY    HP213408   5.312   3.870   0.287  0.4759  0.0657  0.4182
  537THY    HP313409   5.408   3.801   0.157  1.3032 -0.6072  0.6003
  537THY    HP413410   5.486   3.893   0.273 -0.4328  0.6537  0.8872
  537THY    CP313411   5.467   4.030   0.028 -0.5245 -0.2679 -0.2791
  537THY    HP513412   5.557   4.034   0.090 -2.1253 -1.3031  2.3237
  537THY    HP613413   5.480   3.949  -0.044 -0.1021 -1.1749  0.7809
  537THY    HP713414   5.467   4.125  -0.026 -0.0664 -0.4607 -0.6240
  537THY    CA313415   5.174   3.877  -0.001 -0.1621 -0.0648 -1.0266
  537THY    HA313416   5.231   3.787   0.019 -2.0085 -1.1343 -0.2881
  537THY    CA413417   5.048   3.865  -0.067 -1.0129 -0.2259 -0.1448
  537THY    HA413418   5.011   3.774  -0.114 -2.0581 -1.1916  2.3980
  537THY    CA513419   4.964   3.967  -0.077  0.2359 -0.6368  0.3096
  537THY    CM113420   4.833   3.963  -0.155  0.4084 -0.2432  0.4390
  537THY    HM113421   4.755   4.026  -0.112  1.4731  2.1384 -0.9164
  537THY    HM213422   4.849   3.993  -0.260 -1.2483  0.6626  0.4253
  537THY    HM313423   4.794   3.861  -0.164 -2.4161  0.8391 -0.6327
  537THY    CA613424   5.004   4.087  -0.021  0.0270  0.3674 -0.3638
  537THY    HA613425   4.931   4.168  -0.019 -1.2944 -0.7403  2.8096
  538THY      O13426   9.146   3.889   9.728  0.1635  0.4513 -0.0445
  538THY     HO13427   9.240   3.912   9.722  0.3536 -0.0966  0.6860
  538THY    CA113428   9.139   3.767   9.672 -0.7497  0.1056 -0.5892
  538THY    CA213429   9.017   3.699   9.658  0.4030 -0.5086 -0.2543
  538THY    CP113430   8.889   3.758   9.726  0.1797 -0.4977 -0.4247
  538THY    HP113431   8.898   3.867   9.718  3.6569 -0.5752  0.4776
  538THY    CP213432   8.769   3.729   9.654  0.9413 -0.5031  0.2243
  538THY    HP213433   8.780   3.744   9.546 -1.1109 -2.5670 -0.3556
  538THY    HP313434   8.740   3.624   9.665 -1.7884  0.2674  1.3175
  538THY    HP413435   8.687   3.795   9.684  1.0193  0.2242 -1.0959
  538THY    CP313436   8.890   3.732   9.878  0.1830  0.4245  0.4927
  538THY    HP513437   8.976   3.782   9.924  0.9828  0.0086 -0.5060
  538THY    HP613438   8.798   3.774   9.920 -1.6557 -1.5495 -1.3071
  538THY    HP713439   8.907   3.625   9.894  0.9050  0.8759  3.2663
  538THY    CA313440   9.014   3.574   9.594  0.0095 -0.2507  0.2871
  538THY    HA313441   8.923   3.514   9.588 -0.6898  0.7979  0.3062
  538THY    CA413442   9.136   3.530   9.538 -0.2289  0.1908  0.2230
  538THY    HA413443   9.136   3.432   9.491  1.2234  0.2321  0.0952
  538THY    CA513444   9.255   3.605   9.541  0.0494 -0.2613 -0.2611
  538THY    CM113445   9.387   3.561   9.483  0.1201  0.6701 -0.0761
  538THY    HM113446   9.444   3.500   9.554 -0.7046 -1.4245 -1.1298
  538THY    HM213447   9.369   3.472   9.422  0.1844  0.8222 -0.3170
  538THY    HM313448   9.444   3.640   9.433  1.2269  0.2944  0.5566
  538THY    CA613449   9.255   3.731   9.607  0.3447 -0.2157  0.8894
  538THY    HA613450   9.346   3.790   9.605  0.4314 -0.3531 -0.9180
  539THY      O13451   0.511   8.023   4.785  0.0694 -0.0659 -1.0376
  539THY     HO13452   0.448   7.949   4.789  0.3458 -0.2437  1.9707
  539THY    CA113453   0.632   7.962   4.764 -0.1789 -0.0445 -0.2604
  539THY    CA213454   0.745   8.042   4.746  0.2623  0.0512 -0.1366
  539THY    CP113455   0.743   8.193   4.752  0.2571 -0.1213 -0.4739
  539THY    HP113456   0.652   8.232   4.799  0.9585 -1.3041  2.0344
  539THY    CP213457   0.854   8.241   4.846 -0.0544 -0.4402  0.4340
  539THY    HP213458   0.842   8.346   4.876 -0.1038 -0.3709  0.1745
  539THY    HP313459   0.842   8.178   4.935 -0.3009 -0.0824  0.6574
  539THY    HP413460   0.952   8.236   4.798 -0.4530 -2.7910 -0.2973
  539THY    CP313461   0.756   8.255   4.616 -0.5860  0.3043  1.0498
  539THY    HP513462   0.710   8.354   4.605 -0.3486  0.1632 -2.1097
  539THY    HP613463   0.860   8.261   4.581 -0.1732 -1.9781  1.7748
  539THY    HP713464   0.710   8.193   4.539 -0.4871  1.9301 -0.3694
  539THY    CA313465   0.873   7.988   4.711 -0.2003  0.2465  0.8471
  539THY    HA313466   0.963   8.048   4.703 -1.1240  1.4513 -1.4134
  539THY    CA413467   0.876   7.840   4.695 -0.1117 -0.4229  0.4458
  539THY    HA413468   0.961   7.788   4.653  0.2165  1.5097 -1.4364
  539THY    CA513469   0.764   7.769   4.729  0.2593  0.2648 -0.0189
  539THY    CM113470   0.770   7.620   4.727  0.1840  0.8628  0.8085
  539THY    HM113471   0.870   7.577   4.741  0.1389  0.8430  1.0669
  539THY    HM213472   0.712   7.574   4.808  1.8689 -2.0079  0.5258
  539THY    HM313473   0.732   7.581   4.632  3.3435  1.2348 -0.7441
  539THY    CA613474   0.644   7.828   4.764 -0.1447 -0.0555  0.1496
  539THY    HA613475   0.556   7.768   4.783 -0.4791  0.3256 -0.1598
  540THY      O13476   2.026   0.917   0.447  0.0619  0.5141 -0.9420
  540THY     HO13477   2.005   0.989   0.386 -1.4156 -0.1522 -1.2617
  540THY    CA113478   2.137   0.849   0.393 -0.7360 -0.2516 -0.7481
  540THY    CA213479   2.149   0.711   0.397 -0.0723  0.6716 -0.8115
  540THY    CP113480   2.037   0.617   0.456  0.0950 -0.2819  0.4008
  540THY    HP113481   1.939   0.666   0.468 -0.5492 -1.6269  0.9251
  540THY    CP213482   2.014   0.517   0.340  0.2874  0.6189 -0.4254
  540THY    HP213483   1.983   0.555   0.242 -1.3472 -0.5801 -0.4230
  540THY    HP313484   2.106   0.461   0.321  0.9510  1.9044 -1.1282
  540THY    HP413485   1.940   0.443   0.374 -0.5332  0.2113 -2.8524
  540THY    CP313486   2.095   0.538   0.580  0.1624  0.2931  0.1529
  540THY    HP513487   2.111   0.593   0.674 -1.2523 -1.4394  1.4792
  540THY    HP613488   2.033   0.453   0.613  1.0010 -0.7881 -0.9898
  540THY    HP713489   2.191   0.496   0.550  0.0351  0.2478 -0.1923
  540THY    CA313490   2.272   0.657   0.342  0.4042 -0.2100  0.1535
  540THY    HA313491   2.289   0.550   0.336  1.8237  0.0629 -1.6694
  540THY    CA413492   2.366   0.749   0.285  0.3908 -0.5270  0.5742
  540THY    HA413493   2.448   0.705   0.229 -0.6068 -0.1334 -1.2665
  540THY    CA513494   2.345   0.888   0.275 -0.0894  0.6048  0.1486
  540THY    CM113495   2.429   0.973   0.183  0.1072 -0.2834 -0.0084
  540THY    HM113496   2.482   1.057   0.231  2.6237 -2.0712  0.5424
  540THY    HM213497   2.510   0.911   0.144  0.9221 -0.0430  1.2216
  540THY    HM313498   2.368   1.002   0.097  1.4562 -2.0550 -1.6467
  540THY    CA613499   2.230   0.940   0.336 -0.1278  0.1796  0.2214
  540THY    HA613500   2.207   1.046   0.339 -0.3963  0.1684 -0.9458
  541THY      O13501   4.627   2.011   5.674 -0.1936  0.2443  0.2737
  541THY     HO13502   4.651   1.949   5.745  2.4981 -1.4749 -1.9386
  541THY    CA113503   4.492   2.011   5.666  0.0708  0.2196  0.1392
  541THY    CA213504   4.421   2.059   5.548 -0.1487 -0.1642 -0.0603
  541THY    CP113505   4.510   2.100   5.428  0.0803 -0.5363  0.5475
  541THY    HP113506   4.607   2.145   5.453  0.1603  0.4661 -1.3274
  541THY    CP213507   4.537   1.976   5.340  0.6615 -0.1149  0.0259
  541THY    HP213508   4.554   2.006   5.236 -4.0320  0.4584 -0.8054
  541THY    HP313509   4.626   1.924   5.375  0.2542 -0.7822  0.0979
  541THY    HP413510   4.447   1.913   5.351  2.2277 -2.3992  0.5779
  541THY    CP313511   4.439   2.204   5.339 -0.1414 -0.8137  0.5126
  541THY    HP513512   4.498   2.244   5.255 -0.2989 -2.4727 -0.4376
  541THY    HP613513   4.349   2.160   5.293  0.5366  0.2333 -1.9956
  541THY    HP713514   4.407   2.295   5.391 -0.6174 -1.1275  0.7840
  541THY    CA313515   4.277   2.062   5.554  0.4978  0.0787  0.3332
  541THY    HA313516   4.219   2.104   5.472 -2.0498 -0.7060  1.6180
  541THY    CA413517   4.213   2.024   5.668  0.0926  0.3907 -0.1073
  541THY    HA413518   4.105   2.023   5.678  0.0758  1.7442 -0.0041
  541THY    CA513519   4.282   1.974   5.776  0.1808  0.2736 -0.2614
  541THY    CM113520   4.210   1.926   5.900 -0.0708 -0.2022 -0.1469
  541THY    HM113521   4.262   1.975   5.983  0.9641  0.4049 -1.1102
  541THY    HM213522   4.105   1.958   5.899  0.3117  1.1164 -0.1893
  541THY    HM313523   4.213   1.817   5.908 -2.8928 -0.5903 -2.8143
  541THY    CA613524   4.424   1.962   5.775 -0.2220  0.3827 -0.2304
  541THY    HA613525   4.471   1.927   5.866 -0.1682  0.2896 -0.2942
  542THY      O13526   8.079   6.056   6.962 -0.5277  0.4213  0.1760
  542THY     HO13527   8.076   6.094   7.052 -0.6135  0.1899  0.2726
  542THY    CA113528   7.945   6.057   6.932 -0.3002 -0.2612  0.2938
  542THY    CA213529   7.897   5.993   6.815  0.6701  0.0264  0.7085
  542THY    CP113530   7.985   5.919   6.718 -0.7956  0.3690 -0.3058
  542THY    HP113531   7.920   5.883   6.637  0.4816  0.6876 -1.5256
  542THY    CP213532   8.095   6.009   6.653  0.3786  0.4390  0.0179
  542THY    HP213533   8.178   6.026   6.723  2.0522 -0.8929 -1.5126
  542THY    HP313534   8.138   5.943   6.577  4.2267  4.0926 -1.3441
  542THY    HP413535   8.047   6.090   6.597 -0.8678 -0.5538 -0.4079
  542THY    CP313536   8.051   5.786   6.774  0.2557 -0.2645  0.6986
  542THY    HP513537   7.970   5.719   6.807 -2.3345  1.8780 -0.8749
  542THY    HP613538   8.107   5.742   6.691 -0.0966  1.5486 -0.5580
  542THY    HP713539   8.131   5.811   6.844  1.6146 -2.0200 -0.1520
  542THY    CA313540   7.755   5.999   6.787 -0.7571 -0.0789 -0.4039
  542THY    HA313541   7.717   5.965   6.691  1.4093  1.6019 -1.9516
  542THY    CA413542   7.675   6.064   6.878 -0.2807  0.0108  0.0151
  542THY    HA413543   7.571   6.079   6.850 -0.9590 -3.2958  0.2977
  542THY    CA513544   7.718   6.119   6.993  0.5364 -0.7139  0.2310
  542THY    CM113545   7.618   6.202   7.072 -0.3857 -0.2690 -0.3270
  542THY    HM113546   7.530   6.139   7.093 -1.4289  1.3652  0.3821
  542THY    HM213547   7.665   6.247   7.160 -0.6126  1.3228 -0.9777
  542THY    HM313548   7.573   6.286   7.018 -0.5194  1.7326  2.7086
  542THY    CA613549   7.852   6.118   7.022 -0.6997 -0.7588 -0.1515
  542THY    HA613550   7.882   6.167   7.115 -0.2931  1.1795 -1.2387
  543THY      O13551   4.249   9.784   0.063 -0.3562  0.0791 -0.5159
  543THY     HO13552   4.331   9.764   0.110 -0.1182  2.0722  0.0321
  543THY    CA113553   4.218   9.683  -0.019 -0.3706  0.1208  0.0406
  543THY    CA213554   4.091   9.678  -0.070 -0.6818 -0.9332 -0.0674
  543THY    CP113555   3.984   9.783  -0.033  0.5892 -0.2978  0.1423
  543THY    HP113556   4.023   9.865   0.029 -1.6369  1.7112 -0.9429
  543THY    CP213557   3.918   9.856  -0.152  0.8309 -0.1906 -1.0734
  543THY    HP213558   3.857   9.783  -0.206 -0.1371 -0.3505  0.1890
  543THY    HP313559   3.854   9.935  -0.111  0.8152 -0.2069 -1.0670
  543THY    HP413560   3.990   9.896  -0.224  0.8998 -0.8485 -1.3737
  543THY    CP313561   3.877   9.704   0.041 -0.2730 -0.3260 -0.0647
  543THY    HP513562   3.918   9.633   0.114  1.9184  0.8776 -0.0467
  543THY    HP613563   3.829   9.786   0.096  2.0738  1.7321 -0.8808
  543THY    HP713564   3.809   9.657  -0.031 -2.1997  1.1849  0.6810
  543THY    CA313565   4.063   9.587  -0.168 -0.3695  0.6118  0.3882
  543THY    HA313566   3.973   9.590  -0.228  1.1646 -0.0038 -2.0709
  543THY    CA413567   4.150   9.487  -0.201  0.0704  0.4104  0.6512
  543THY    HA413568   4.129   9.427  -0.289  0.4070 -0.5266  1.1939
  543THY    CA513569   4.280   9.488  -0.143  0.4417  0.2496  0.5762
  543THY    CM113570   4.375   9.382  -0.180 -0.2727  0.1954 -0.1658
  543THY    HM113571   4.401   9.319  -0.093 -2.7161 -2.1491 -1.0075
  543THY    HM213572   4.322   9.315  -0.249  1.9490  0.2686 -2.0652
  543THY    HM313573   4.462   9.421  -0.233 -0.1443 -0.5167 -0.4934
  543THY    CA613574   4.310   9.588  -0.054 -0.1977  0.0128 -0.2719
  543THY    HA613575   4.407   9.596  -0.006 -1.3197 -0.4959  2.2254
  544THY      O13576   8.416   5.898   8.161  0.4867  0.3298 -0.0716
  544THY     HO13577   8.430   5.988   8.127 -0.0765  0.3089 -0.3734
  544THY    CA113578   8.296   5.860   8.111  0.8474  0.9339 -0.6748
  544THY    CA213579   8.256   5.724   8.106 -0.2922  0.3666 -0.1413
  544THY    CP113580   8.362   5.617   8.133 -0.4019  0.1093 -0.9758
  544THY    HP113581   8.464   5.655   8.145  0.3813 -2.1798  0.3472
  544THY    CP213582   8.328   5.536   8.269  0.1974  0.2514  0.3107
  544THY    HP213583   8.330   5.603   8.355 -0.2958  0.8179 -0.1107
  544THY    HP313584   8.227   5.495   8.265  0.6058 -0.7552 -2.7233
  544THY    HP413585   8.399   5.455   8.289 -0.9231 -1.3480 -1.7764
  544THY    CP313586   8.385   5.521   8.005 -0.2281  0.1436 -0.3916
  544THY    HP513587   8.402   5.589   7.921 -1.9245  2.7166  1.1916
  544THY    HP613588   8.467   5.449   8.010 -1.2911 -1.0549  0.7543
  544THY    HP713589   8.292   5.468   7.982 -2.2384  3.3591 -0.3172
  544THY    CA313590   8.123   5.692   8.074  0.1338 -0.3831 -0.2685
  544THY    HA313591   8.092   5.588   8.072 -0.6038 -0.2025  0.7849
  544THY    CA413592   8.036   5.791   8.030  0.3099 -0.0900  0.0267
  544THY    HA413593   7.933   5.762   8.009  0.3744 -0.6482  0.4527
  544THY    CA513594   8.081   5.929   8.032  0.5454  0.9007 -0.2370
  544THY    CM113595   7.987   6.045   8.005  0.1579  0.3101 -0.4213
  544THY    HM113596   7.968   6.065   7.899 -2.0262  0.1404 -0.1149
  544THY    HM213597   7.892   6.019   8.053  0.2329  0.0773 -0.3972
  544THY    HM313598   8.026   6.139   8.046 -0.6470  0.7146 -0.5493
  544THY    CA613599   8.211   5.959   8.075  0.7607  0.1164  0.0923
  544THY    HA613600   8.235   6.064   8.081 -0.7532  0.3964  3.3457
  545THY      O13601   4.906   3.981   2.899  0.5834  0.3681 -0.0203
  545THY     HO13602   4.998   3.988   2.867  0.8135  2.5160  0.9498
  545THY    CA113603   4.899   3.891   2.993 -0.2045  0.0972 -0.7732
  545THY    CA213604   4.780   3.862   3.064  0.0392  0.5641 -0.2516
  545THY    CP113605   4.647   3.939   3.037 -0.3070 -0.6551 -0.4660
  545THY    HP113606   4.677   4.036   2.996  4.3390 -1.6407  0.0544
  545THY    CP213607   4.559   3.869   2.937 -0.0445  0.4661 -0.3352
  545THY    HP213608   4.481   3.940   2.911 -0.4686  0.1591  0.0757
  545THY    HP313609   4.604   3.842   2.840 -0.1179 -2.0902  0.2568
  545THY    HP413610   4.507   3.778   2.970 -0.4992  1.3125  1.3757
  545THY    CP313611   4.567   3.963   3.165  0.2381 -0.1018  0.8821
  545THY    HP513612   4.516   3.872   3.198  0.8724  0.0972  2.5381
  545THY    HP613613   4.622   4.003   3.252  0.2645  0.2968  0.6861
  545THY    HP713614   4.486   4.029   3.132  0.4859 -0.0359  0.3996
  545THY    CA313615   4.779   3.743   3.138 -0.5169  0.7311 -0.1312
  545THY    HA313616   4.691   3.712   3.194  0.8411 -0.3176  1.5500
  545THY    CA413617   4.896   3.662   3.158 -0.4960 -0.3892 -0.8820
  545THY    HA413618   4.893   3.581   3.231  1.7904 -0.0713 -0.3543
  545THY    CA513619   5.013   3.713   3.111 -0.2387  0.2314 -0.1577
  545THY    CM113620   5.147   3.632   3.129  0.4142 -0.8373 -0.3423
  545THY    HM113621   5.139   3.596   3.232 -0.2967  0.1286 -0.0459
  545THY    HM213622   5.143   3.552   3.054 -0.5699  1.6664 -3.1356
  545THY    HM313623   5.239   3.690   3.115 -0.3141 -0.3719 -4.5739
  545THY    CA613624   5.016   3.827   3.024  0.1502  0.6935 -0.0932
  545THY    HA613625   5.109   3.855   2.975  0.1592  0.8515  0.0122
  546THY      O13626   8.970   7.985   4.234 -0.6241  0.4023  0.2453
  546THY     HO13627   9.009   7.935   4.160 -0.4407  0.1151  0.5324
  546THY    CA113628   9.082   8.046   4.284 -0.6660 -0.0745  0.3549
  546THY    CA213629   9.079   8.176   4.330 -0.0013  0.2801 -0.2563
  546THY    CP113630   8.951   8.250   4.351  0.5107 -1.1906  0.1262
  546THY    HP113631   8.862   8.193   4.321  0.4073  0.0978 -2.2519
  546THY    CP213632   8.928   8.285   4.500 -0.2928  0.6187 -0.0327
  546THY    HP213633   9.012   8.350   4.529  0.9565 -0.8346 -0.2400
  546THY    HP313634   8.836   8.341   4.519  0.4774  1.2392  2.1550
  546THY    HP413635   8.937   8.197   4.565  0.0550 -0.4814 -1.5253
  546THY    CP313636   8.930   8.383   4.269  0.4712  0.1617 -0.0314
  546THY    HP513637   8.975   8.362   4.171  1.4242  0.2164  0.3818
  546THY    HP613638   8.826   8.417   4.263  0.4040 -0.1938 -1.2295
  546THY    HP713639   8.982   8.465   4.319 -1.4787  0.5853  1.4249
  546THY    CA313640   9.202   8.238   4.360  0.2665  0.5989 -0.6690
  546THY    HA313641   9.199   8.342   4.392  0.9572  0.3958  0.0987
  546THY    CA413642   9.321   8.172   4.344  0.4060 -0.4075  0.1914
  546THY    HA413643   9.416   8.217   4.370  1.4694 -2.1946 -0.4161
  546THY    CA513644   9.319   8.045   4.289 -0.6923 -0.3321  0.2912
  546THY    CM113645   9.461   7.976   4.269 -0.7066 -0.0387  0.5931
  546THY    HM113646   9.505   7.972   4.370 -1.8024 -0.1440  1.0791
  546THY    HM213647   9.452   7.873   4.233  1.6398 -0.3230  0.6550
  546THY    HM313648   9.527   8.030   4.200 -0.6791 -3.1023 -2.0274
  546THY    CA613649   9.203   7.979   4.267 -0.7370 -0.0765  0.5511
  546THY    HA613650   9.206   7.878   4.226 -0.1556 -0.4874  1.5703
  547THY      O13651   6.286   1.883   2.046  0.3194  0.3276 -0.1602
  547THY     HO13652   6.215   1.879   1.980  1.8392 -1.4913 -1.8385
  547THY    CA113653   6.246   1.791   2.140  0.1024 -0.2990 -0.2766
  547THY    CA213654   6.290   1.797   2.270  0.7211  0.4153 -0.3905
  547THY    CP113655   6.366   1.920   2.320 -0.0110  0.1444 -0.1161
  547THY    HP113656   6.384   1.995   2.243 -2.2878  2.3020  1.3209
  547THY    CP213657   6.289   1.997   2.427 -0.2976  0.2987 -0.4916
  547THY    HP213658   6.359   2.076   2.458  1.5310 -1.7530  0.9015
  547THY    HP313659   6.200   2.051   2.393 -0.5911  0.9652  1.2505
  547THY    HP413660   6.270   1.929   2.510  0.1279 -0.1412 -0.7469
  547THY    CP313661   6.502   1.874   2.386 -0.2272  0.6122  0.2906
  547THY    HP513662   6.577   1.840   2.314 -0.0590  1.4048  0.0836
  547THY    HP613663   6.550   1.958   2.436  1.0185 -1.3496  2.6175
  547THY    HP713664   6.482   1.800   2.464 -0.2999  0.6571  0.3147
  547THY    CA313665   6.266   1.679   2.354 -1.5744 -0.6036  1.0128
  547THY    HA313666   6.311   1.678   2.452 -0.1846  2.3125  0.5112
  547THY    CA413667   6.201   1.567   2.300 -0.2996 -0.7528  0.3649
  547THY    HA413668   6.193   1.480   2.364 -0.7150  0.3106  1.8170
  547THY    CA513669   6.146   1.569   2.168  0.0270 -0.3404 -0.2241
  547THY    CM113670   6.072   1.455   2.114 -0.3592  0.4982 -0.7171
  547THY    HM113671   5.971   1.434   2.152  0.2760 -0.8453  0.3051
  547THY    HM213672   6.048   1.467   2.008 -1.0960  1.7752 -0.4284
  547THY    HM313673   6.143   1.373   2.128  1.8556  2.5183  0.6310
  547THY    CA613674   6.167   1.681   2.092 -0.1517  0.5966  0.4739
  547THY    HA613675   6.131   1.671   1.990 -0.4970  0.9720  0.5607
  548THY      O13676   1.557   6.217   9.037 -0.3105  0.6421  0.0722
  548THY     HO13677   1.641   6.171   9.019 -2.1809 -3.7671  1.0728
  548THY    CA113678   1.546   6.314   8.954 -0.1000 -0.2516  0.3540
  548THY    CA213679   1.462   6.424   8.989  0.5513 -0.1598  0.2154
  548THY    CP113680   1.388   6.426   9.121 -0.2546 -0.3668  0.0874
  548THY    HP113681   1.434   6.348   9.183  1.0399  0.0541 -0.3169
  548THY    CP213682   1.417   6.562   9.186 -0.3427 -0.6065 -0.3391
  548THY    HP213683   1.404   6.656   9.130 -0.1103  0.1840  0.8938
  548THY    HP313684   1.360   6.572   9.280  1.3505 -0.0073  0.6605
  548THY    HP413685   1.525   6.570   9.200 -0.4421 -1.7523  1.4340
  548THY    CP313686   1.238   6.396   9.118 -0.2896  0.3343 -0.2108
  548THY    HP513687   1.190   6.401   9.216 -2.0641 -0.4620 -0.9865
  548THY    HP613688   1.184   6.469   9.056  0.0559 -0.7640 -1.8741
  548THY    HP713689   1.205   6.299   9.078  0.8845 -0.5529  0.8967
  548THY    CA313690   1.437   6.525   8.888 -0.2303 -0.7163 -0.0149
  548THY    HA313691   1.366   6.606   8.901 -2.2422 -1.9846 -2.2891
  548THY    CA413692   1.500   6.510   8.764 -0.0784 -0.5476 -0.2455
  548THY    HA413693   1.481   6.589   8.693  0.7567 -0.4750 -0.4063
  548THY    CA513694   1.587   6.401   8.737  0.4024 -0.1991 -0.7628
  548THY    CM113695   1.646   6.390   8.600  0.1902  0.0635 -0.0476
  548THY    HM113696   1.696   6.294   8.584  0.1740 -0.1204  0.9604
  548THY    HM213697   1.568   6.389   8.523 -0.1707 -0.4547  0.3196
  548THY    HM313698   1.717   6.471   8.580 -1.3271  1.0741 -1.6157
  548THY    CA613699   1.610   6.305   8.832 -0.3123 -0.1719 -0.4426
  548THY    HA613700   1.671   6.218   8.809 -1.1741 -1.1691  0.9166
  549THY      O13701   6.848   5.785   8.671  0.5404 -0.3372 -0.2594
  549THY     HO13702   6.853   5.867   8.723 -1.6874  0.6500 -1.4671
  549THY    CA113703   6.823   5.680   8.747  0.9124 -0.0052  0.0975
  549THY    CA213704   6.778   5.554   8.695 -0.1791  0.5409  0.9288
  549THY    CP113705   6.756   5.537   8.539  0.4571  0.7832  0.1368
  549THY    HP113706   6.824   5.597   8.478 -1.0641  0.3300 -2.1407
  549THY    CP213707   6.789   5.381   8.505 -0.2089  0.2163  0.3770
  549THY    HP213708   6.696   5.326   8.519  0.0183 -0.3946 -0.4574
  549THY    HP313709   6.825   5.371   8.402 -3.5883  1.1779 -1.0419
  549THY    HP413710   6.867   5.338   8.568  2.5638  0.7345 -2.4626
  549THY    CP313711   6.610   5.582   8.499  0.7051  0.4972  0.2185
  549THY    HP513712   6.591   5.579   8.391  1.5150 -0.4188  0.0819
  549THY    HP613713   6.547   5.506   8.546  0.2335  0.0016 -1.1687
  549THY    HP713714   6.597   5.683   8.539  0.5495 -0.3637  2.4872
  549THY    CA313715   6.737   5.461   8.793  0.3249 -0.5604  0.9483
  549THY    HA313716   6.694   5.365   8.765 -1.6262  0.0144  1.7817
  549THY    CA413717   6.739   5.488   8.928 -0.0872  0.5082  0.7407
  549THY    HA413718   6.704   5.407   8.992 -2.1233 -0.7441 -1.7619
  549THY    CA513719   6.775   5.614   8.980 -0.5600  0.4403  0.2638
  549THY    CM113720   6.777   5.637   9.132 -0.0051  0.3208 -0.3221
  549THY    HM113721   6.879   5.671   9.153  0.0805  0.7028 -1.2726
  549THY    HM213722   6.703   5.714   9.155 -0.7643 -1.0017  2.0315
  549THY    HM313723   6.755   5.549   9.193 -0.7095 -0.3380 -1.4739
  549THY    CA613724   6.813   5.711   8.887  0.2118  0.0827  0.8678
  549THY    HA613725   6.828   5.811   8.926 -0.7333  1.5430 -2.2014
  550THY      O13726   4.628   0.768   2.284  0.0435  0.4359 -0.4749
  550THY     HO13727   4.721   0.797   2.277  0.2760  0.6329  2.2123
  550THY    CA113728   4.579   0.774   2.151 -0.4978  0.5881 -0.7114
  550THY    CA213729   4.440   0.778   2.111 -0.3814 -0.8176  0.1356
  550THY    CP113730   4.335   0.782   2.222  0.2769  0.1074  0.1640
  550THY    HP113731   4.377   0.833   2.309  0.4481  1.4181 -0.6718
  550THY    CP213732   4.217   0.868   2.181 -0.4934 -0.3307  0.0772
  550THY    HP213733   4.263   0.958   2.139 -1.4771  0.8525  1.4601
  550THY    HP313734   4.157   0.812   2.109  1.4102 -1.2270 -0.9015
  550THY    HP413735   4.171   0.905   2.273  0.5959  2.0586 -0.2733
  550THY    CP313736   4.288   0.640   2.263 -0.3469 -0.1790  0.2922
  550THY    HP513737   4.362   0.604   2.336  0.0108 -2.3900 -1.0650
  550THY    HP613738   4.197   0.642   2.324 -0.8332  0.9398 -0.4438
  550THY    HP713739   4.259   0.577   2.178  0.2373 -0.9389  0.6410
  550THY    CA313740   4.409   0.786   1.970  0.3572 -0.2750  0.2426
  550THY    HA313741   4.307   0.789   1.933  0.5562  0.0336 -0.2940
  550THY    CA413742   4.513   0.778   1.868  0.3377 -0.2087 -0.0924
  550THY    HA413743   4.489   0.775   1.762 -0.3810 -3.8410  0.0425
  550THY    CA513744   4.646   0.762   1.918  0.3808 -0.2298 -0.4104
  550THY    CM113745   4.763   0.767   1.819 -0.1099  0.3620 -0.7699
  550THY    HM113746   4.747   0.832   1.732  3.1094  0.5239 -1.3545
  550THY    HM213747   4.845   0.810   1.878  0.0775 -0.9056 -0.0636
  550THY    HM313748   4.794   0.667   1.786  0.5267  0.0389  0.7471
  550THY    CA613749   4.673   0.755   2.060  0.1690  0.1976  0.2066
  550THY    HA613750   4.779   0.738   2.079  0.3704 -2.3151 -2.4321
  551THY      O13751   7.922   6.002   5.314  0.2068 -0.0994  0.4009
  551THY     HO13752   7.838   6.034   5.277 -0.6339 -2.4383  0.1031
  551THY    CA113753   7.911   5.876   5.333  0.0330 -0.1305 -0.5973
  551THY    CA213754   8.018   5.797   5.371  0.4605 -0.1298  0.2370
  551THY    CP113755   8.155   5.853   5.404 -0.1034  0.5989  0.5084
  551THY    HP113756   8.140   5.948   5.457 -0.7453  0.2261  1.0022
  551THY    CP213757   8.238   5.771   5.494 -0.6463  0.3010 -0.1061
  551THY    HP213758   8.190   5.777   5.593 -2.0975 -1.3077 -0.6591
  551THY    HP313759   8.273   5.673   5.458  2.0152  0.3198  2.0662
  551THY    HP413760   8.326   5.836   5.504  0.1683 -0.4751 -1.8534
  551THY    CP313761   8.228   5.898   5.275 -0.3898  0.3024  0.0390
  551THY    HP513762   8.263   5.812   5.217 -3.1103 -0.9840  0.1644
  551THY    HP613763   8.162   5.963   5.216 -0.1433 -0.9493 -1.6959
  551THY    HP713764   8.317   5.952   5.310 -1.1453  1.6117  0.0126
  551THY    CA313765   8.003   5.660   5.377 -0.1435  0.1941 -0.1638
  551THY    HA313766   8.087   5.592   5.391 -1.2567 -1.2117 -0.1594
  551THY    CA413767   7.886   5.605   5.319  0.4639  0.4889  0.1805
  551THY    HA413768   7.873   5.498   5.306  0.9420  0.4895 -0.3489
  551THY    CA513769   7.780   5.686   5.276  0.0209  0.4695 -0.1961
  551THY    CM113770   7.653   5.619   5.240 -0.0135 -0.1884  0.4791
  551THY    HM113771   7.639   5.646   5.134 -1.2898 -0.0567  0.6658
  551THY    HM213772   7.660   5.512   5.260  0.4646 -0.4851 -1.1142
  551THY    HM313773   7.576   5.664   5.304  0.0373 -1.7236  1.6643
  551THY    CA613774   7.790   5.823   5.292  0.3761 -0.4249 -0.4670
  551THY    HA613775   7.699   5.880   5.284  0.0911 -0.2777  2.6559
  552THY      O13776   0.351   5.008   1.140 -0.2348 -0.0805 -0.0932
  552THY     HO13777   0.397   5.041   1.060  0.6752  0.0337  0.4630
  552THY    CA113778   0.217   4.984   1.119 -0.3927 -0.4633 -0.4173
  552THY    CA213779   0.127   4.970   1.229 -0.3711 -0.4712  0.5899
  552THY    CP113780   0.173   4.985   1.372 -0.6096  0.1113 -0.0795
  552THY    HP113781   0.280   5.009   1.377 -0.7030  0.5388 -0.0687
  552THY    CP213782   0.097   5.092   1.442  0.0597 -0.5697 -0.5277
  552THY    HP213783  -0.005   5.063   1.468 -0.0529 -1.8437 -2.2249
  552THY    HP313784   0.153   5.101   1.536  1.2770 -1.9768 -1.0774
  552THY    HP413785   0.108   5.188   1.391  2.2917  0.6249  1.9262
  552THY    CP313786   0.163   4.848   1.431  0.1691 -0.0016 -0.5595
  552THY    HP513787   0.196   4.763   1.370  4.2927  2.0482 -1.5500
  552THY    HP613788   0.231   4.832   1.517  1.2275 -3.9374 -1.9031
  552THY    HP713789   0.062   4.835   1.470  0.2382  2.4624  0.6093
  552THY    CA313790  -0.005   4.950   1.193 -0.1364 -0.6596 -0.3764
  552THY    HA313791  -0.069   4.934   1.280  2.4866  0.6257  1.9317
  552THY    CA413792  -0.055   4.949   1.063 -0.5172  0.2281  0.9856
  552THY    HA413793  -0.159   4.924   1.041 -0.3787  0.6306 -0.2150
  552THY    CA513794   0.041   4.973   0.957  0.1376 -0.4825  0.5187
  552THY    CM113795   0.001   4.969   0.818 -0.0165  0.0686  0.0990
  552THY    HM113796  -0.024   5.069   0.778  1.3318  0.7983  1.0132
  552THY    HM213797   0.093   4.938   0.767 -0.1422 -1.7391  0.9202
  552THY    HM313798  -0.073   4.889   0.808  1.2945 -0.9795 -1.7063
  552THY    CA613799   0.176   4.999   0.987 -0.2651  0.2818 -0.2429
  552THY    HA613800   0.247   5.003   0.905  0.2002  1.4814  0.2010
  553THY      O13801   4.284   0.754   5.072  0.0748  0.2895  0.5575
  553THY     HO13802   4.262   0.661   5.089  3.7881 -1.0310 -0.7423
  553THY    CA113803   4.263   0.767   4.937 -0.8673  1.1944  1.0342
  553THY    CA213804   4.296   0.880   4.859  0.4003  0.5908 -0.7072
  553THY    CP113805   4.335   1.008   4.927  0.2441 -0.1138 -0.1578
  553THY    HP113806   4.365   0.995   5.031  4.0133  0.4822 -1.0387
  553THY    CP213807   4.450   1.079   4.846 -0.4618  0.7484  0.3490
  553THY    HP213808   4.525   1.015   4.798  1.8523  1.5768  2.6696
  553THY    HP313809   4.417   1.133   4.756  1.4960 -1.2391 -1.7165
  553THY    HP413810   4.508   1.144   4.912  0.3183  0.0889  0.3267
  553THY    CP313811   4.214   1.107   4.934  0.0843 -0.2155 -0.0445
  553THY    HP513812   4.247   1.195   4.990  1.4936 -0.7591  0.0088
  553THY    HP613813   4.194   1.144   4.833  0.6258 -2.3519 -1.0032
  553THY    HP713814   4.124   1.060   4.977 -1.0040  0.0471 -1.9095
  553THY    CA313815   4.286   0.871   4.720 -0.2792 -0.1303  0.1527
  553THY    HA313816   4.298   0.959   4.657 -2.1288  0.0842  0.0391
  553THY    CA413817   4.257   0.749   4.660  0.8817  0.0679  0.7523
  553THY    HA413818   4.265   0.738   4.552  0.3741 -0.3768  0.7565
  553THY    CA513819   4.218   0.638   4.733 -0.1511 -0.1777  0.1644
  553THY    CM113820   4.193   0.502   4.668 -0.4198  0.4310 -0.2305
  553THY    HM113821   4.143   0.437   4.740  0.0140  2.4444  2.0323
  553THY    HM213822   4.128   0.506   4.580  1.5382 -0.3875 -1.8020
  553THY    HM313823   4.284   0.458   4.624 -0.3652  0.3168 -0.0033
  553THY    CA613824   4.222   0.647   4.872  0.1681 -0.4686  0.1336
  553THY    HA613825   4.202   0.555   4.926  0.9955  0.1538  1.5193
  554THY      O13826   6.762   3.830   9.177  0.1172 -0.7732 -0.4635
  554THY     HO13827   6.678   3.786   9.199  0.7455 -0.6521  2.6651
  554THY    CA113828   6.849   3.782   9.266  0.3479 -0.5726  0.6675
  554THY    CA213829   6.949   3.871   9.310  0.3168  0.7996 -0.0731
  554THY    CP113830   6.948   4.025   9.270  0.2930  0.7365 -0.5826
  554THY    HP113831   6.899   4.039   9.172 -1.0752  0.1116 -0.0227
  554THY    CP213832   6.861   4.109   9.363 -0.6118  0.1347 -0.6098
  554THY    HP213833   6.853   4.214   9.332 -0.3923 -0.2933 -2.2030
  554THY    HP313834   6.755   4.081   9.357 -0.1700 -1.6584 -0.7499
  554THY    HP413835   6.893   4.105   9.468  0.9967  0.2559 -1.0592
  554THY    CP313836   7.085   4.075   9.262 -0.6486 -0.1609  0.3047
  554THY    HP513837   7.087   4.176   9.219 -1.2892  0.1203  0.9106
  554THY    HP613838   7.135   4.095   9.357 -0.7012  3.8798 -0.3557
  554THY    HP713839   7.144   4.000   9.208 -1.1028  0.6693 -1.4047
  554THY    CA313840   7.032   3.815   9.409 -0.1471  0.5748 -0.6774
  554THY    HA313841   7.115   3.873   9.448 -1.4060  0.2431  2.7855
  554THY    CA413842   7.012   3.684   9.456 -0.4125 -0.4173 -0.1822
  554THY    HA413843   7.084   3.648   9.528 -0.6601 -0.7331 -0.0890
  554THY    CA513844   6.912   3.606   9.413 -0.6550 -0.2921 -0.6807
  554THY    CM113845   6.871   3.475   9.483  0.0578  0.0474  0.7300
  554THY    HM113846   6.953   3.430   9.540  2.3589  1.3150 -1.3524
  554THY    HM213847   6.782   3.491   9.544 -0.9621  1.8347 -1.0936
  554THY    HM313848   6.851   3.398   9.407 -0.1979  2.3468 -1.7125
  554THY    CA613849   6.829   3.653   9.321  0.0068 -0.1696 -0.0536
  554THY    HA613850   6.742   3.594   9.291 -0.8507  0.5123  1.0092
  555THY      O13851   1.072   8.969   1.700 -0.2426 -0.1755  0.1652
  555THY     HO13852   1.064   8.880   1.738 -2.1623  0.5088  1.5007
  555THY    CA113853   1.112   8.954   1.573 -0.1669  0.1723 -0.4255
  555THY    CA213854   1.175   9.060   1.506 -0.4456  0.0247 -0.1202
  555THY    CP113855   1.178   9.207   1.563 -0.5983  0.1821 -0.1555
  555THY    HP113856   1.151   9.207   1.669  2.1288 -1.0999  0.6514
  555THY    CP213857   1.318   9.258   1.533 -0.4095 -0.4881  0.2191
  555THY    HP213858   1.337   9.351   1.588  0.0426  1.0509 -2.4011
  555THY    HP313859   1.397   9.189   1.566  0.5324  0.1177 -0.7600
  555THY    HP413860   1.328   9.268   1.425 -0.6169 -2.0875  0.0217
  555THY    CP313861   1.073   9.289   1.488  0.1677  0.7946 -0.4908
  555THY    HP513862   1.092   9.397   1.496  2.4686  0.3570  0.7745
  555THY    HP613863   1.066   9.257   1.384  2.3362 -1.0883 -0.1350
  555THY    HP713864   0.976   9.268   1.535  1.0206  0.1086  1.0549
  555THY    CA313865   1.209   9.028   1.370 -0.0475  0.0428 -0.8103
  555THY    HA313866   1.261   9.096   1.304  1.8140 -2.3377 -1.9304
  555THY    CA413867   1.174   8.909   1.302 -0.0435  0.2921 -0.6379
  555THY    HA413868   1.201   8.893   1.198  2.0833  0.7214 -0.2009
  555THY    CA513869   1.106   8.812   1.381  0.3213  0.4517 -0.7759
  555THY    CM113870   1.068   8.677   1.326  0.0621 -0.0011 -0.0818
  555THY    HM113871   1.098   8.665   1.221  0.0418 -0.7585 -0.0064
  555THY    HM213872   1.125   8.603   1.383  1.0137  0.2070 -0.7252
  555THY    HM313873   0.962   8.652   1.328  0.0436 -0.0199 -0.9638
  555THY    CA613874   1.080   8.836   1.512  0.6923  0.0342  0.0623
  555THY    HA613875   1.032   8.758   1.571 -0.9434  0.6999 -0.3448
  556THY      O13876   6.083   0.733   4.412  0.2465  0.2340 -0.3180
  556THY     HO13877   6.066   0.829   4.405 -0.0290  0.3487  1.3808
  556THY    CA113878   6.006   0.665   4.321 -0.7664 -0.2402  0.2191
  556THY    CA213879   6.030   0.534   4.290  0.1761 -0.4925 -0.2560
  556THY    CP113880   6.155   0.467   4.353 -0.0271 -0.7006 -0.2061
  556THY    HP113881   6.222   0.536   4.405  1.5901 -1.3312 -1.3636
  556THY    CP213882   6.109   0.360   4.454  0.2074 -0.7035 -0.2483
  556THY    HP213883   6.055   0.394   4.543 -1.3351 -3.3498 -0.0630
  556THY    HP313884   6.038   0.285   4.417  1.3883 -2.0414  0.1161
  556THY    HP413885   6.197   0.318   4.503  0.9657  1.3506  0.2438
  556THY    CP313886   6.255   0.405   4.254 -0.0258 -0.6107  0.1965
  556THY    HP513887   6.270   0.480   4.175 -0.3557 -2.3022 -1.5314
  556THY    HP613888   6.348   0.380   4.307 -0.2101  0.9179  1.3237
  556THY    HP713889   6.221   0.312   4.207  1.1010 -2.2074  2.3452
  556THY    CA313890   5.948   0.459   4.204 -0.0047 -0.8870 -0.2762
  556THY    HA313891   5.964   0.357   4.172 -1.0489 -1.1516  0.0078
  556THY    CA413892   5.836   0.529   4.152 -0.1448 -0.6845  0.7606
  556THY    HA413893   5.768   0.472   4.089  0.6828 -0.3664 -0.4577
  556THY    CA513894   5.818   0.664   4.181  0.2627 -0.0796  0.1813
  556THY    CM113895   5.698   0.733   4.112  1.0687 -0.1003  0.1849
  556THY    HM113896   5.612   0.718   4.179  1.4020 -0.6556  0.5046
  556THY    HM213897   5.705   0.842   4.108  0.7356 -0.0427  0.9942
  556THY    HM313898   5.673   0.691   4.014 -0.4864  2.7503 -0.7406
  556THY    CA613899   5.898   0.731   4.259 -0.2234 -0.3102  0.0306
  556THY    HA613900   5.876   0.836   4.275  1.1451  0.2426 -1.4031
  557THY      O13901   5.534   3.273   5.343  0.0309 -1.1338  0.5058
  557THY     HO13902   5.438   3.282   5.334  0.3204  0.0513 -3.2284
  557THY    CA113903   5.572   3.226   5.464 -0.2659 -0.3585 -0.7286
  557THY    CA213904   5.673   3.290   5.535  0.3881  0.0891  0.0006
  557THY    CP113905   5.743   3.422   5.490  0.0600 -0.4655  0.4022
  557THY    HP113906   5.749   3.406   5.381  1.4825  0.3677  0.3255
  557THY    CP213907   5.670   3.548   5.517  0.4123 -0.4266 -0.1069
  557THY    HP213908   5.687   3.630   5.446 -0.2991  0.9116  1.2066
  557THY    HP313909   5.563   3.523   5.516  0.3592 -0.1976 -0.2360
  557THY    HP413910   5.690   3.582   5.620  3.0482  1.0202 -0.9898
  557THY    CP313911   5.890   3.434   5.542  0.2323 -1.1695 -0.5863
  557THY    HP513912   5.905   3.450   5.649  0.3984  4.7249 -1.1670
  557THY    HP613913   5.929   3.334   5.520 -2.4231 -2.2251 -0.8420
  557THY    HP713914   5.935   3.527   5.506 -3.2810  1.3739  1.0392
  557THY    CA313915   5.707   3.230   5.656  0.1719 -1.5991 -0.4785
  557THY    HA313916   5.784   3.267   5.722 -0.4185 -1.7537  0.3087
  557THY    CA413917   5.647   3.115   5.702  0.5897  0.2108  0.1558
  557THY    HA413918   5.671   3.062   5.793 -0.5778 -0.1279  0.2866
  557THY    CA513919   5.540   3.057   5.631  0.0528  0.1955 -0.5214
  557THY    CM113920   5.467   2.937   5.683 -0.5788  0.4204  0.4147
  557THY    HM113921   5.387   2.969   5.750  0.4188  0.1707  1.7819
  557THY    HM213922   5.432   2.866   5.607 -0.7789 -2.6736  3.1616
  557THY    HM313923   5.534   2.870   5.740  2.3042  1.6877 -1.2331
  557THY    CA613924   5.502   3.117   5.512  0.2680  0.2808 -0.1405
  557THY    HA613925   5.430   3.069   5.446  1.2243 -0.7356 -0.4793
  558THY      O13926   0.985   6.178   5.449 -0.2610 -0.6439  0.2894
  558THY     HO13927   0.942   6.131   5.374  0.9494  0.3065 -1.0506
  558THY    CA113928   0.905   6.151   5.556 -0.0696 -0.3775  0.6175
  558THY    CA213929   0.933   6.211   5.687  0.2210  0.2070  0.0760
  558THY    CP113930   1.058   6.300   5.697  0.2758 -0.5864 -0.8780
  558THY    HP113931   1.121   6.292   5.608 -0.6791 -2.1961 -1.4555
  558THY    CP213932   1.013   6.450   5.696  0.4169 -0.0317 -0.0638
  558THY    HP213933   1.110   6.499   5.714  1.4575 -0.7212 -3.1468
  558THY    HP313934   0.963   6.493   5.609  0.8705  1.7871  0.5185
  558THY    HP413935   0.943   6.468   5.779  0.4727  2.1841 -0.4411
  558THY    CP313936   1.135   6.257   5.827 -1.0465 -0.3268 -0.2269
  558THY    HP513937   1.180   6.159   5.805  1.6979  0.7146  0.3254
  558THY    HP613938   1.226   6.316   5.844 -0.8944 -0.0515 -1.8521
  558THY    HP713939   1.075   6.255   5.919 -1.9184 -0.0474 -0.7840
  558THY    CA313940   0.840   6.195   5.793 -0.8507 -0.2951 -0.7303
  558THY    HA313941   0.856   6.236   5.892  0.1047  1.1054 -1.4358
  558THY    CA413942   0.723   6.120   5.778  0.5193  0.4722  0.0659
  558THY    HA413943   0.660   6.090   5.860 -1.0135  0.1092 -1.2018
  558THY    CA513944   0.694   6.062   5.652  0.1712 -0.3292 -0.2864
  558THY    CM113945   0.575   5.989   5.638 -0.3254  0.1226  0.1870
  558THY    HM113946   0.517   5.967   5.729 -1.8743 -0.1038 -0.8248
  558THY    HM213947   0.501   6.046   5.581 -0.5320  0.5389  0.8665
  558THY    HM313948   0.595   5.900   5.577  0.4231  0.7753 -0.5431
  558THY    CA613949   0.783   6.085   5.540 -0.0065 -0.4580  0.8662
  558THY    HA613950   0.760   6.060   5.437  0.1064 -0.3993  0.8262
  559THY      O13951   8.497   1.379   1.992  0.6551  0.5848 -0.1565
  559THY     HO13952   8.586   1.390   1.954  0.7105  0.9775  0.0842
  559THY    CA113953   8.449   1.504   1.998  0.5649 -0.6697 -0.1786
  559THY    CA213954   8.315   1.514   2.043  0.9084  0.6185  0.1775
  559THY    CP113955   8.223   1.397   2.101  0.5252  0.6472 -0.0657
  559THY    HP113956   8.271   1.301   2.084 -0.4383  0.1684 -0.1399
  559THY    CP213957   8.201   1.407   2.254 -0.5762 -0.2791  0.4009
  559THY    HP213958   8.296   1.422   2.306 -0.2282 -0.7704 -0.0857
  559THY    HP313959   8.138   1.495   2.271 -0.6101 -0.1559 -0.3234
  559THY    HP413960   8.155   1.317   2.296  0.4834  0.5092  3.5087
  559THY    CP313961   8.081   1.394   2.030  0.5649  0.4328  0.1485
  559THY    HP513962   8.096   1.371   1.924 -0.4777  2.1566 -0.4149
  559THY    HP613963   8.014   1.319   2.074  0.0086  2.1471  2.4269
  559THY    HP713964   8.032   1.492   2.032 -3.1484 -1.2653  1.9486
  559THY    CA313965   8.269   1.649   2.035 -0.4316  0.2434  0.2445
  559THY    HA313966   8.170   1.668   2.077 -0.3350 -1.3502  1.2842
  559THY    CA413967   8.342   1.751   1.979  0.0725  0.0185 -0.1674
  559THY    HA413968   8.293   1.847   1.963  0.1649 -0.1849 -1.8645
  559THY    CA513969   8.474   1.733   1.947 -1.4532  0.1920  0.2768
  559THY    CM113970   8.548   1.847   1.885 -0.7315  0.8019  0.1733
  559THY    HM113971   8.656   1.829   1.891 -0.7066 -1.1319 -3.2565
  559THY    HM213972   8.515   1.850   1.780 -1.1240  1.4577  0.3122
  559THY    HM313973   8.533   1.945   1.931  2.5348  1.8607 -0.7106
  559THY    CA613974   8.527   1.608   1.951  0.0926  0.5309  0.8366
  559THY    HA613975   8.625   1.583   1.912 -0.2462 -0.7043  0.7437
  560THY      O13976   7.297   1.555   5.767 -0.1521  0.1881 -0.1326
  560THY     HO13977   7.200   1.547   5.778 -0.5595  0.0950 -2.9765
  560THY    CA113978   7.327   1.598   5.645 -0.2854  0.3851 -0.3019
  560THY    CA213979   7.430   1.697   5.624  0.0697  0.5308 -0.8453
  560THY    CP113980   7.505   1.763   5.737  0.2802  0.1133 -0.0338
  560THY    HP113981   7.492   1.710   5.832 -0.9435  0.0653 -0.2152
  560THY    CP213982   7.657   1.775   5.724 -0.0131  0.2617  0.3669
  560THY    HP213983   7.703   1.679   5.697 -1.4889 -0.3529 -0.0817
  560THY    HP313984   7.684   1.840   5.640  0.6941  0.6121  0.8629
  560THY    HP413985   7.702   1.815   5.815 -0.4263  1.4791  0.0595
  560THY    CP313986   7.447   1.893   5.774  0.1543 -0.1601 -0.5865
  560THY    HP513987   7.345   1.877   5.812  0.5621  0.8271  1.0587
  560THY    HP613988   7.502   1.957   5.844  2.6481 -0.5930 -2.0474
  560THY    HP713989   7.437   1.950   5.681 -1.5387 -1.2714 -1.1264
  560THY    CA313990   7.469   1.732   5.493  0.5880 -0.0064  0.2119
  560THY    HA313991   7.547   1.803   5.468 -0.5870  0.5177 -2.2682
  560THY    CA413992   7.403   1.660   5.386  0.0662 -1.1848 -0.1883
  560THY    HA413993   7.439   1.669   5.284  1.6151  1.5677  0.4984
  560THY    CA513994   7.302   1.562   5.414  0.5247  0.1713 -0.2438
  560THY    CM113995   7.226   1.511   5.298 -0.5142 -0.4472  0.3355
  560THY    HM113996   7.268   1.547   5.203  1.8395  0.2479  1.5473
  560THY    HM213997   7.226   1.401   5.299  0.5177 -0.4636  0.6846
  560THY    HM313998   7.124   1.548   5.285 -0.9446 -1.6978  0.0085
  560THY    CA613999   7.262   1.540   5.540 -0.1696  0.0505  0.5643
  560THY    HA614000   7.179   1.476   5.567 -0.5509  0.9989  1.7195
  561THY      O14001   5.345   5.232   3.488 -0.2818 -0.3331  0.1810
  561THY     HO14002   5.361   5.151   3.439 -0.5734  1.7758 -3.7831
  561THY    CA114003   5.362   5.332   3.399  0.3049  0.8014  0.0517
  561THY    CA214004   5.405   5.462   3.430 -0.0768  0.0699 -0.3871
  561THY    CP114005   5.432   5.483   3.584 -0.4147 -0.1225 -0.2668
  561THY    HP114006   5.355   5.427   3.638 -0.0153 -0.6241 -0.2152
  561THY    CP214007   5.569   5.420   3.614  0.9832 -0.1822 -0.1857
  561THY    HP214008   5.554   5.313   3.628  0.6088 -0.1346 -0.2067
  561THY    HP314009   5.651   5.435   3.543  3.6312  0.5930  2.7985
  561THY    HP414010   5.613   5.467   3.703  0.4158  0.6447 -0.3248
  561THY    CP314011   5.431   5.638   3.624  0.1298  0.0702  0.6545
  561THY    HP514012   5.508   5.689   3.565 -1.4342  0.5021 -1.1081
  561THY    HP614013   5.334   5.684   3.605  0.0473 -0.3384  0.0758
  561THY    HP714014   5.448   5.651   3.732  1.1772 -1.3370  0.6895
  561THY    CA314015   5.428   5.562   3.334 -0.3183  0.2713 -0.6323
  561THY    HA314016   5.448   5.665   3.363 -1.3351  0.3938 -0.3026
  561THY    CA414017   5.416   5.530   3.200  0.2656  0.4461 -0.4503
  561THY    HA414018   5.427   5.608   3.125  0.1983  0.5616 -0.3398
  561THY    CA514019   5.369   5.407   3.172  0.3246 -0.2499  0.7706
  561THY    CM114020   5.342   5.381   3.028  0.3551  0.1875 -0.0534
  561THY    HM114021   5.351   5.465   2.957  1.4768 -0.2352 -0.4215
  561THY    HM214022   5.416   5.310   2.991  1.3583  1.3185 -0.2902
  561THY    HM314023   5.245   5.330   3.017  1.2070 -1.2706 -1.1420
  561THY    CA614024   5.341   5.305   3.265  0.5247  0.2745  0.0238
  561THY    HA614025   5.289   5.215   3.235  1.6132 -0.9015  1.4947
  562THY      O14026   2.342   3.050   4.452 -0.4090  0.6105 -0.5716
  562THY     HO14027   2.418   3.079   4.399  1.2347 -0.8866  0.8481
  562THY    CA114028   2.350   2.916   4.443  0.4820 -0.5026  0.1930
  562THY    CA214029   2.262   2.835   4.516  0.1869 -0.4439  0.4834
  562THY    CP114030   2.158   2.900   4.607 -0.4107  0.4511  0.0662
  562THY    HP114031   2.169   3.008   4.615 -4.2547  0.9065  1.5991
  562THY    CP214032   2.016   2.885   4.545  0.3054  0.9371  1.1906
  562THY    HP214033   1.942   2.947   4.596 -0.5965  0.8660  0.0187
  562THY    HP314034   2.009   2.908   4.438  1.2393 -0.4730  0.8018
  562THY    HP414035   1.988   2.779   4.549 -0.4663  1.1455  1.3302
  562THY    CP314036   2.172   2.843   4.746  0.6806  0.7510 -0.3151
  562THY    HP514037   2.105   2.883   4.823 -2.8295 -0.4933 -2.4608
  562THY    HP614038   2.161   2.736   4.768  4.8801  0.5056  1.4946
  562THY    HP714039   2.277   2.854   4.774  0.6072  0.2716  0.1700
  562THY    CA314040   2.270   2.698   4.507 -0.5863  0.0934  0.3097
  562THY    HA314041   2.203   2.627   4.553  0.2654  0.7780  2.7221
  562THY    CA414042   2.362   2.638   4.415  0.5553 -0.1499  0.2662
  562THY    HA414043   2.361   2.532   4.389 -0.5501  0.6301 -3.3122
  562THY    CA514044   2.451   2.722   4.346  0.4781  0.1501 -0.1806
  562THY    CM114045   2.550   2.653   4.249 -1.0368 -0.7717  0.2560
  562THY    HM114046   2.640   2.607   4.292  0.3828 -0.3668 -2.0773
  562THY    HM214047   2.500   2.569   4.200 -0.2030 -0.2561 -1.5327
  562THY    HM314048   2.576   2.733   4.179 -0.8333  0.9457  2.1745
  562THY    CA614049   2.443   2.866   4.357 -0.2443 -0.0338  0.0247
  562THY    HA614050   2.517   2.928   4.307 -0.0107  0.0965  0.5281
  563THY      O14051   5.359   4.330   8.453  0.5780 -0.0491  0.0019
  563THY     HO14052   5.422   4.281   8.507  2.0543  0.6855 -1.0011
  563THY    CA114053   5.445   4.364   8.349  0.2808  0.4119 -0.4675
  563THY    CA214054   5.419   4.457   8.248 -0.1972  0.1691 -0.8886
  563THY    CP114055   5.289   4.532   8.263  0.8190  0.4304  0.4325
  563THY    HP114056   5.221   4.465   8.318 -0.5379  0.3763 -1.2127
  563THY    CP214057   5.314   4.673   8.320  0.6717  0.2503 -0.1779
  563THY    HP214058   5.357   4.667   8.421  1.5805 -3.6311 -0.6084
  563THY    HP314059   5.379   4.732   8.255  2.8064 -0.1085  1.5134
  563THY    HP414060   5.218   4.719   8.342  2.1773  3.1733  0.7885
  563THY    CP314061   5.228   4.555   8.124  0.5153  0.1722 -0.2135
  563THY    HP514062   5.290   4.622   8.064  2.1301 -1.3678 -0.3629
  563THY    HP614063   5.216   4.463   8.066 -1.8868 -0.7662  1.5933
  563THY    HP714064   5.134   4.609   8.142  0.7304  0.4058  0.2436
  563THY    CA314065   5.522   4.489   8.156 -0.1937 -0.0748 -0.1680
  563THY    HA314066   5.507   4.563   8.078 -2.2438  1.4314  1.5204
  563THY    CA414067   5.639   4.413   8.149  0.4702  0.0585  0.7168
  563THY    HA414068   5.714   4.430   8.072 -0.1398 -0.3115  0.0334
  563THY    CA514069   5.662   4.314   8.244  0.6082  0.4028 -0.8940
  563THY    CM114070   5.795   4.246   8.247  0.5174  0.4511  0.0445
  563THY    HM114071   5.824   4.206   8.149 -1.5256 -0.3723 -0.2773
  563THY    HM214072   5.872   4.319   8.274 -1.4538  2.7508 -0.1912
  563THY    HM314073   5.789   4.163   8.318 -1.0987  0.4400 -0.0712
  563THY    CA614074   5.563   4.287   8.334  0.0106 -0.0927 -0.1575
  563THY    HA614075   5.586   4.208   8.406 -0.6241 -0.2284 -0.0973
  564THY      O14076   3.595   1.999   9.670 -0.0397 -0.5237  0.7457
  564THY     HO14077   3.519   2.020   9.728  0.8687  3.1391  0.8103
  564THY    CA114078   3.649   2.120   9.626 -0.7187  0.3273 -0.4594
  564THY    CA214079   3.721   2.127   9.509  0.4754 -0.0469 -0.4737
  564THY    CP114080   3.746   2.013   9.423 -0.3484  0.3074 -0.3157
  564THY    HP114081   3.715   1.924   9.479 -0.7372  1.7669  1.9538
  564THY    CP214082   3.676   2.011   9.286 -0.1917 -0.3447  0.1617
  564THY    HP214083   3.736   2.076   9.221  0.1339 -1.3260 -0.5478
  564THY    HP314084   3.663   1.911   9.242 -1.7158  0.2212 -0.7113
  564THY    HP414085   3.574   2.050   9.294 -0.5987 -1.6616  2.0836
  564THY    CP314086   3.898   1.988   9.387 -0.5487  0.0672 -0.1787
  564THY    HP514087   3.950   1.944   9.473  2.6660  1.0653 -1.4315
  564THY    HP614088   3.912   1.906   9.314 -0.9838 -2.7270  2.6449
  564THY    HP714089   3.953   2.074   9.347 -1.4126  0.8565  0.2936
  564THY    CA314090   3.773   2.255   9.484  0.3045 -0.0914  0.4006
  564THY    HA314091   3.815   2.260   9.384  1.0360 -0.4312  0.6882
  564THY    CA414092   3.740   2.369   9.558  0.0571  0.4361 -0.0811
  564THY    HA414093   3.773   2.469   9.530  0.5400 -0.0291 -1.2101
  564THY    CA514094   3.683   2.343   9.685 -0.0077 -0.6015 -0.0913
  564THY    CM114095   3.663   2.445   9.800 -0.3281  0.2523 -0.1129
  564THY    HM114096   3.559   2.446   9.834  0.3810  0.3323  2.2300
  564THY    HM214097   3.716   2.409   9.889  1.7869 -1.7414 -2.0431
  564THY    HM314098   3.691   2.547   9.770  1.8678 -0.1701  0.2753
  564THY    CA614099   3.639   2.216   9.717 -0.3508  0.2338  0.1832
  564THY    HA614100   3.569   2.196   9.798  0.3363 -2.1894  0.2578
  565THY      O14101   7.674   4.980   9.347  0.1168  0.2956 -1.0532
  565THY     HO14102   7.726   4.918   9.401 -1.6233 -1.0952 -0.8706
  565THY    CA114103   7.748   5.094   9.354  0.1270  0.2816  0.5250
  565THY    CA214104   7.700   5.221   9.306  0.2856 -0.2484 -0.7154
  565THY    CP114105   7.568   5.233   9.227 -0.1585  0.0470 -0.0481
  565THY    HP114106   7.541   5.132   9.195 -2.3864  0.5852 -0.0616
  565THY    CP214107   7.457   5.286   9.324  0.3424 -0.2362 -0.2088
  565THY    HP214108   7.360   5.297   9.274  0.5787  0.2019 -0.5757
  565THY    HP314109   7.452   5.225   9.415 -0.5417  1.6637  1.0997
  565THY    HP414110   7.501   5.383   9.353  1.0660 -1.2065  2.2281
  565THY    CP314111   7.584   5.307   9.091  0.6052 -0.1378 -0.5402
  565THY    HP514112   7.497   5.296   9.024  1.4755 -0.5541 -1.6318
  565THY    HP614113   7.600   5.411   9.119 -1.2406  0.2617 -0.8342
  565THY    HP714114   7.670   5.282   9.028  1.4945  1.9546 -0.2430
  565THY    CA314115   7.782   5.330   9.336 -0.4681 -0.9700  0.3340
  565THY    HA314116   7.741   5.427   9.306 -1.6987 -1.0169  1.7173
  565THY    CA414117   7.909   5.317   9.400 -0.7309 -0.6665  1.2432
  565THY    HA414118   7.976   5.399   9.424  0.9676 -1.6595  0.0039
  565THY    CA514119   7.965   5.193   9.420  1.0555  0.2977  0.1923
  565THY    CM114120   8.099   5.176   9.484 -0.4198 -0.0478  0.0436
  565THY    HM114121   8.114   5.234   9.576  2.4329 -0.8791  0.1915
  565THY    HM214122   8.101   5.078   9.534 -2.1121  0.9398  2.2489
  565THY    HM314123   8.188   5.185   9.422 -1.2620 -0.7514 -1.3084
  565THY    CA614124   7.874   5.081   9.417 -0.0722  0.2929  0.3329
  565THY    HA614125   7.907   4.989   9.464 -1.5511  0.6620  2.2340
  566THY      O14126   7.092   1.826   7.939  0.2029  0.4766 -0.4089
  566THY     HO14127   7.171   1.845   7.993  0.4673 -0.5094 -0.4371
  566THY    CA114128   7.088   1.697   7.918  0.2555  0.8111  0.7528
  566THY    CA214129   6.967   1.633   7.881 -0.7837  0.3866  0.3733
  566THY    CP114130   6.844   1.708   7.854  0.1663 -0.2339  0.5501
  566THY    HP114131   6.856   1.814   7.881 -1.6117 -0.6724  3.3659
  566THY    CP214132   6.797   1.691   7.708  0.3665 -0.2373  0.4036
  566THY    HP214133   6.757   1.593   7.678  0.3251 -0.0939 -0.0174
  566THY    HP314134   6.716   1.763   7.686 -0.0561 -0.3741  1.4426
  566THY    HP414135   6.871   1.725   7.635 -1.4946  0.6095 -1.2086
  566THY    CP314136   6.728   1.658   7.948 -1.2004  0.2566 -0.2027
  566THY    HP514137   6.762   1.639   8.050  0.7401  0.7844 -0.7094
  566THY    HP614138   6.652   1.737   7.955 -1.5948  0.0320 -1.6005
  566THY    HP714139   6.685   1.566   7.906  0.8778  0.1560 -2.3039
  566THY    CA314140   6.968   1.491   7.863  0.6821 -0.1685 -0.0551
  566THY    HA314141   6.882   1.437   7.825 -1.1511  1.6969  1.2324
  566THY    CA414142   7.088   1.420   7.887 -0.1346  0.0659  0.4205
  566THY    HA414143   7.094   1.315   7.861  2.5133 -0.4939  2.7279
  566THY    CA514144   7.200   1.486   7.926 -0.6698  0.1519  0.1599
  566THY    CM114145   7.316   1.402   7.963 -0.0105 -0.3397  0.1331
  566THY    HM114146   7.388   1.469   8.010  0.6006 -1.1906  0.4349
  566THY    HM214147   7.283   1.333   8.042  0.1771 -1.5486 -0.8157
  566THY    HM314148   7.354   1.346   7.877  0.1365  1.1123 -0.7812
  566THY    CA614149   7.205   1.623   7.942 -0.6639  0.4694 -0.4061
  566THY    HA614150   7.300   1.667   7.972 -0.5962 -1.7790  3.2899
  567THY      O14151   1.171   8.343   3.581 -0.5889 -0.0365 -0.5895
  567THY     HO14152   1.192   8.376   3.492  1.9956  1.5097  0.4556
  567THY    CA114153   1.177   8.203   3.572  0.1526 -0.7012  0.1789
  567THY    CA214154   1.129   8.121   3.672 -0.8161 -0.4393  0.2552
  567THY    CP114155   1.058   8.187   3.794 -0.4478 -0.1794 -1.2457
  567THY    HP114156   1.009   8.282   3.770 -2.2588 -1.1110 -1.4076
  567THY    CP214157   0.939   8.103   3.843 -0.3450  0.3331  0.2153
  567THY    HP214158   0.964   8.014   3.902  1.0627 -0.1537 -1.0554
  567THY    HP314159   0.889   8.179   3.904 -2.5921  0.7586 -1.9708
  567THY    HP414160   0.872   8.068   3.763  0.5217  0.5265 -0.6191
  567THY    CP314161   1.151   8.225   3.909 -0.1931 -0.0546 -0.9136
  567THY    HP514162   1.168   8.139   3.975 -2.3634  1.6575  2.0924
  567THY    HP614163   1.243   8.270   3.872 -0.2885  0.6992 -0.2589
  567THY    HP714164   1.104   8.294   3.980 -2.1748 -3.3753  1.3040
  567THY    CA314165   1.133   7.983   3.656  0.0919  0.4827 -0.5137
  567THY    HA314166   1.107   7.907   3.729  1.3627 -0.4261 -0.9740
  567THY    CA414167   1.188   7.929   3.534  0.3194 -0.2945  0.4735
  567THY    HA414168   1.206   7.823   3.518  1.4457  0.2195 -2.5391
  567THY    CA514169   1.237   8.016   3.437  0.5773 -0.4434 -0.1289
  567THY    CM114170   1.310   7.953   3.322  0.1019  0.1894 -0.1342
  567THY    HM114171   1.412   7.991   3.305 -0.4709  0.6229 -3.0688
  567THY    HM214172   1.298   7.845   3.336 -1.7945  0.4536  0.5879
  567THY    HM314173   1.262   7.987   3.230  0.8405 -1.4866 -1.1778
  567THY    CA614174   1.223   8.151   3.450  0.1872  0.1294 -0.3146
  567THY    HA614175   1.261   8.218   3.373 -1.2104  2.1769  0.6854
  568THY      O14176   8.361   9.520   6.740 -0.1113 -0.3204 -0.0410
  568THY     HO14177   8.273   9.551   6.769  0.3757  0.4878  0.6293
  568THY    CA114178   8.370   9.529   6.604  0.7012  0.2874  0.5763
  568THY    CA214179   8.460   9.455   6.528 -0.4683  0.2880 -0.5357
  568THY    CP114180   8.559   9.365   6.601  0.1352  0.4693 -0.5826
  568THY    HP114181   8.578   9.404   6.701  0.9650  2.6509 -1.5370
  568THY    CP214182   8.497   9.231   6.646 -0.7951  0.5924  0.2440
  568THY    HP214183   8.414   9.255   6.713  1.4112  2.1392  2.6673
  568THY    HP314184   8.466   9.181   6.554  1.8679 -0.3132 -0.2722
  568THY    HP414185   8.566   9.169   6.705 -1.6566 -0.2235  0.4228
  568THY    CP314186   8.701   9.356   6.537  0.0492 -0.1001 -0.4827
  568THY    HP514187   8.689   9.309   6.439 -1.7088  0.1457 -0.4022
  568THY    HP614188   8.740   9.458   6.533  0.7932 -0.3856 -0.8986
  568THY    HP714189   8.770   9.299   6.601  1.0816  2.2353  0.5805
  568THY    CA314190   8.470   9.459   6.389 -1.2996 -0.6654 -0.1343
  568THY    HA314191   8.532   9.397   6.326  1.6635  1.1801  0.7844
  568THY    CA414192   8.392   9.557   6.327 -0.1734 -0.2462  0.3308
  568THY    HA414193   8.397   9.558   6.218  4.7425 -0.7765  0.3268
  568THY    CA514194   8.299   9.640   6.402 -0.5835  0.0677  0.4113
  568THY    CM114195   8.212   9.745   6.328  0.6896 -0.5079 -0.4606
  568THY    HM114196   8.177   9.823   6.397 -2.0978 -1.4091 -0.7198
  568THY    HM214197   8.270   9.811   6.263  0.6364  2.4498  2.2514
  568THY    HM314198   8.128   9.698   6.275  0.6340 -2.0818  0.9291
  568THY    CA614199   8.283   9.615   6.538 -0.2304  0.0436 -0.4846
  568THY    HA614200   8.212   9.678   6.590 -0.3531  0.6626 -1.3791
  569THY      O14201   5.364   8.945   1.274  0.4068  0.4095 -0.0594
  569THY     HO14202   5.304   9.019   1.295 -1.4915 -1.0097 -0.2052
  569THY    CA114203   5.340   8.870   1.385 -0.0094 -0.0001  0.2635
  569THY    CA214204   5.436   8.791   1.442  1.2894  0.8859  0.3002
  569THY    CP114205   5.569   8.771   1.366 -0.0911 -0.3503 -0.2985
  569THY    HP114206   5.586   8.842   1.284  0.0428  0.3931  0.3599
  569THY    CP214207   5.685   8.796   1.467  0.1543  0.4100  0.5132
  569THY    HP214208   5.681   8.904   1.486 -1.4137  0.3873  0.5010
  569THY    HP314209   5.683   8.729   1.553 -0.3797  1.9570  1.7552
  569THY    HP414210   5.773   8.784   1.403 -0.4908  2.0741 -0.7655
  569THY    CP314211   5.563   8.628   1.311  0.2272 -0.1083 -0.0829
  569THY    HP514212   5.630   8.615   1.225 -0.4652 -3.2319 -0.2466
  569THY    HP614213   5.584   8.563   1.397 -3.2355 -0.3230  0.7772
  569THY    HP714214   5.459   8.601   1.288 -0.0495  0.7726  0.1030
  569THY    CA314215   5.399   8.720   1.556 -0.7079 -0.4940  0.2004
  569THY    HA314216   5.458   8.641   1.603 -0.5670 -0.1922  0.5355
  569THY    CA414217   5.278   8.739   1.612  0.1864  0.4684  0.4773
  569THY    HA414218   5.261   8.674   1.697  1.3854  0.3896  0.6665
  569THY    CA514219   5.183   8.832   1.564 -0.2421 -0.5853  0.3025
  569THY    CM114220   5.058   8.876   1.631 -0.2717  0.6572  0.1606
  569THY    HM114221   5.053   8.831   1.731 -1.0463 -1.5741 -0.8174
  569THY    HM214222   5.053   8.986   1.637  2.5305  0.7989  1.4990
  569THY    HM314223   4.967   8.840   1.580 -0.6209 -0.2396  1.3677
  569THY    CA614224   5.219   8.906   1.452 -0.0126  0.0203 -0.5683
  569THY    HA614225   5.144   8.976   1.417  0.6501  0.0748 -1.9782
  570THY      O14226   4.641   6.109   9.566 -0.1621 -0.3622 -0.5687
  570THY     HO14227   4.697   6.163   9.509  0.1728 -2.1981 -2.0690
  570THY    CA114228   4.606   6.189   9.670  0.0780 -0.8227  0.4483
  570THY    CA214229   4.605   6.135   9.800  0.9659 -1.1929 -0.2998
  570THY    CP114230   4.647   5.987   9.828 -0.4312 -0.5622 -0.2898
  570THY    HP114231   4.734   5.968   9.764 -0.3435  0.9463 -0.6451
  570THY    CP214232   4.691   5.961   9.975 -0.0143 -0.1872 -0.3718
  570THY    HP214233   4.777   6.026   9.996 -0.1764  0.5594 -1.8752
  570THY    HP314234   4.602   5.984  10.035 -1.1270 -1.4696 -1.4612
  570THY    HP414235   4.727   5.859   9.993  0.7069 -0.1311 -1.4095
  570THY    CP314236   4.533   5.893   9.794  0.2078  0.3604  0.4774
  570THY    HP514237   4.553   5.786   9.802 -1.2610  0.1763  2.4693
  570THY    HP614238   4.445   5.914   9.856  0.4871  1.0371  0.6597
  570THY    HP714239   4.510   5.917   9.690 -1.1680  1.1251  0.9278
  570THY    CA314240   4.553   6.215   9.909 -0.1945  0.4324  0.2691
  570THY    HA314241   4.544   6.184  10.013  0.0158  1.0676  0.4794
  570THY    CA414242   4.527   6.352   9.879 -0.4660  0.0199  0.8160
  570THY    HA414243   4.486   6.411   9.961  0.4217  0.1558  1.1779
  570THY    CA514244   4.529   6.405   9.746  0.3647  0.9262 -0.2523
  570THY    CM114245   4.485   6.547   9.714 -0.4456  0.2652  0.1500
  570THY    HM114246   4.387   6.552   9.666 -0.6450 -2.3529  0.1554
  570THY    HM214247   4.492   6.613   9.801  1.3801 -0.9783  0.9970
  570THY    HM314248   4.559   6.592   9.647 -0.3381  1.1261  0.8260
  570THY    CA614249   4.574   6.320   9.643 -0.3802 -0.1326  0.1261
  570THY    HA614250   4.567   6.358   9.542  0.0957 -0.3493  0.0062
  571THY      O14251   2.481   0.259   7.302 -0.3163 -0.1373 -0.8694
  571THY     HO14252   2.535   0.182   7.329 -0.2423  0.3976  0.6156
  571THY    CA114253   2.570   0.371   7.290  0.2261 -0.1302 -0.0933
  571THY    CA214254   2.521   0.505   7.311 -0.5278  0.5029 -0.0874
  571THY    CP114255   2.372   0.518   7.351 -0.2844 -0.5160  0.0248
  571THY    HP114256   2.330   0.425   7.392 -0.5453 -0.4182 -0.0187
  571THY    CP214257   2.366   0.626   7.456 -0.3783 -0.2545  0.0808
  571THY    HP214258   2.415   0.600   7.550 -0.3704 -2.8375 -0.5570
  571THY    HP314259   2.408   0.722   7.421 -1.2886  0.2375  0.3098
  571THY    HP414260   2.266   0.658   7.486 -0.5587  0.3589 -1.1006
  571THY    CP314261   2.291   0.571   7.234  0.5067 -0.2009  1.0097
  571THY    HP514262   2.299   0.507   7.146 -1.6912  2.1844 -1.1034
  571THY    HP614263   2.186   0.569   7.264  1.2297 -4.9125  4.2266
  571THY    HP714264   2.330   0.665   7.192  0.5760 -1.0150 -0.8284
  571THY    CA314265   2.605   0.616   7.275 -0.1492 -0.2543  0.2379
  571THY    HA314266   2.572   0.720   7.269  1.1813  0.1375 -0.6394
  571THY    CA414267   2.732   0.584   7.227  0.1326  0.1671  0.8180
  571THY    HA414268   2.792   0.667   7.191  0.6175 -0.2895  0.5596
  571THY    CA514269   2.773   0.449   7.198  0.4314  0.2668 -0.3704
  571THY    CM114270   2.904   0.421   7.131 -0.1395  0.0262  0.3787
  571THY    HM114271   2.885   0.346   7.054  0.0313  0.3828 -0.0125
  571THY    HM214272   2.958   0.506   7.086  1.6046 -1.4299 -0.4132
  571THY    HM314273   2.972   0.383   7.209 -0.1164 -1.2159 -0.2285
  571THY    CA614274   2.695   0.343   7.236  0.5397  0.1406  0.1445
  571THY    HA614275   2.711   0.237   7.216 -2.1241  0.0298 -2.0102
  572THY      O14276   8.549   4.189   6.370 -0.7453 -0.0808  0.4511
  572THY     HO14277   8.551   4.110   6.313 -1.5067  0.2198 -0.0085
  572THY    CA114278   8.415   4.230   6.383  0.5402 -0.0514 -0.4777
  572THY    CA214279   8.370   4.297   6.498 -0.5455 -0.0554 -0.0890
  572THY    CP114280   8.457   4.297   6.620 -0.1992  0.2440 -0.4047
  572THY    HP114281   8.534   4.220   6.612  2.3251  2.8072 -3.2549
  572THY    CP214282   8.552   4.429   6.618  0.0827  0.3621 -0.1256
  572THY    HP214283   8.608   4.413   6.525 -0.9658 -0.4177 -0.6530
  572THY    HP314284   8.485   4.514   6.603  1.3878  1.6959  1.3234
  572THY    HP414285   8.612   4.444   6.709  0.6756  1.7852 -0.7214
  572THY    CP314286   8.381   4.291   6.748  0.7472 -0.0026 -0.4045
  572THY    HP514287   8.342   4.391   6.772  0.8224  0.2895 -1.4264
  572THY    HP614288   8.299   4.220   6.732  0.2316  0.8184 -1.6287
  572THY    HP714289   8.452   4.264   6.827  0.5177 -1.1900 -0.5848
  572THY    CA314290   8.235   4.328   6.501 -0.2075  0.9180 -0.1152
  572THY    HA314291   8.191   4.369   6.591 -0.4761  1.3429 -0.4365
  572THY    CA414292   8.152   4.307   6.390  0.3036  0.2023 -0.5429
  572THY    HA414293   8.051   4.344   6.401  1.0137  1.8488  1.2985
  572THY    CA514294   8.203   4.256   6.273 -0.3832  0.4284  0.2411
  572THY    CM114295   8.114   4.235   6.156 -0.2162  0.3550  0.0709
  572THY    HM114296   8.046   4.150   6.166  0.4014  0.0510  2.6475
  572THY    HM214297   8.060   4.327   6.132  1.1019  0.8522 -1.0978
  572THY    HM314298   8.184   4.220   6.073 -0.4981 -0.9910  0.0554
  572THY    CA614299   8.335   4.207   6.275  0.1894 -0.4186  0.2515
  572THY    HA614300   8.373   4.159   6.186  0.7223 -0.7734  0.6639
  573THY      O14301   6.603   9.287   4.329  0.2751 -0.0352  0.0429
  573THY     HO14302   6.699   9.276   4.319  0.0349 -2.3462 -0.3057
  573THY    CA114303   6.580   9.346   4.453 -0.4353  0.0968  0.3633
  573THY    CA214304   6.468   9.422   4.486 -0.1592 -0.6882 -0.0739
  573THY    CP114305   6.351   9.453   4.388 -0.4572 -0.1198  0.1276
  573THY    HP114306   6.379   9.395   4.300 -2.1854 -1.4739  0.4126
  573THY    CP214307   6.219   9.395   4.439 -0.0751  0.3539  0.0607
  573THY    HP214308   6.157   9.462   4.500  0.4190  0.0288  0.9425
  573THY    HP314309   6.165   9.369   4.348 -1.2110 -0.1987  0.8719
  573THY    HP414310   6.237   9.302   4.494  2.2012  0.4662 -0.3821
  573THY    CP314311   6.326   9.597   4.340  0.3429  0.3219  0.1423
  573THY    HP514312   6.403   9.635   4.272 -1.0650  1.4400 -0.9112
  573THY    HP614313   6.233   9.597   4.281  1.7997 -0.0900 -2.2738
  573THY    HP714314   6.305   9.668   4.421  0.0654  1.1908 -0.6603
  573THY    CA314315   6.462   9.482   4.615  0.3900  0.3396 -1.0623
  573THY    HA314316   6.384   9.555   4.634  1.1860  0.7524  0.8993
  573THY    CA414317   6.553   9.453   4.715 -0.1099 -0.1903  0.1139
  573THY    HA414318   6.550   9.500   4.813  0.4625 -0.0489  0.0663
  573THY    CA514319   6.656   9.364   4.688  0.3772 -0.0769  0.0726
  573THY    CM114320   6.741   9.315   4.801 -0.1087  0.4372  0.0344
  573THY    HM114321   6.693   9.315   4.900 -1.3116 -0.2417 -0.5150
  573THY    HM214322   6.785   9.216   4.785 -0.5781  0.1706  0.3711
  573THY    HM314323   6.834   9.373   4.798  1.1788 -1.5385 -2.2633
  573THY    CA614324   6.681   9.325   4.557  0.1021 -0.0922  0.0984
  573THY    HA614325   6.765   9.259   4.539 -0.4549 -1.0388  0.8842
  574THY      O14326   9.521   1.290   0.495 -0.0455  0.2220 -0.3493
  574THY     HO14327   9.487   1.366   0.445  0.6058  2.3705  2.2312
  574THY    CA114328   9.419   1.200   0.486 -0.5633  0.9686 -0.2741
  574THY    CA214329   9.312   1.196   0.576  1.0423 -0.9695 -0.6215
  574THY    CP114330   9.311   1.288   0.692 -0.0266  0.2073  0.0403
  574THY    HP114331   9.406   1.340   0.708 -0.1858  0.9732 -1.3569
  574THY    CP214332   9.205   1.398   0.682  0.1732  0.8454 -0.1392
  574THY    HP214333   9.102   1.360   0.688  1.2780 -2.1016  1.7862
  574THY    HP314334   9.219   1.471   0.762  1.0152 -0.1193  0.6176
  574THY    HP414335   9.217   1.461   0.593 -1.1054 -1.0787 -1.7784
  574THY    CP314336   9.295   1.206   0.820 -0.1315 -0.0245 -0.4711
  574THY    HP514337   9.360   1.118   0.833  1.3803  0.8726 -1.6788
  574THY    HP614338   9.299   1.269   0.910 -0.4107 -0.1227 -0.3883
  574THY    HP714339   9.191   1.171   0.825  0.0643 -0.5129  0.5780
  574THY    CA314340   9.201   1.116   0.545  0.1215 -0.3696 -0.5485
  574THY    HA314341   9.105   1.120   0.597  0.3319 -0.3098 -0.1588
  574THY    CA414342   9.217   1.027   0.437 -0.1779  0.7872 -0.1368
  574THY    HA414343   9.145   0.947   0.428  2.3770 -1.7641  0.6665
  574THY    CA514344   9.336   1.014   0.361  0.4988 -0.2293 -0.2657
  574THY    CM114345   9.346   0.903   0.261 -0.6185 -0.2023 -0.5225
  574THY    HM114346   9.322   0.953   0.166 -2.7037  0.3567  0.2338
  574THY    HM214347   9.450   0.875   0.240 -0.4186 -0.2685  0.5206
  574THY    HM314348   9.296   0.810   0.291  0.7768 -0.8115  0.0068
  574THY    CA614349   9.424   1.116   0.375 -0.1240 -0.4460 -0.3776
  574THY    HA614350   9.503   1.118   0.300  0.4216  3.2520  0.0722
  575THY      O14351   6.029   9.318   8.946 -0.0966 -0.2231 -0.0529
  575THY     HO14352   6.062   9.270   8.868  2.1632 -1.4946  1.5250
  575THY    CA114353   6.064   9.452   8.942  0.0341  0.1908  0.2976
  575THY    CA214354   5.995   9.552   9.021 -0.1283  0.4802  0.1756
  575THY    CP114355   5.887   9.516   9.126 -0.6686 -0.0529  0.2404
  575THY    HP114356   5.877   9.407   9.138  0.5913 -0.0425  1.6249
  575THY    CP214357   5.912   9.579   9.257  0.4414  0.5502  0.5181
  575THY    HP214358   6.004   9.543   9.306  0.1750 -1.7035 -0.5328
  575THY    HP314359   5.911   9.686   9.232  1.7788 -0.1354 -2.9512
  575THY    HP414360   5.838   9.561   9.336  1.1394 -0.9685  0.8539
  575THY    CP314361   5.746   9.573   9.083  0.2247 -0.4827  0.0045
  575THY    HP514362   5.670   9.522   9.143  0.1620  0.9327  1.1989
  575THY    HP614363   5.739   9.683   9.089  0.6246 -0.4336 -0.3916
  575THY    HP714364   5.723   9.561   8.977  1.8457 -1.7809 -0.2344
  575THY    CA314365   6.036   9.683   8.999  0.4385 -0.2936 -0.3343
  575THY    HA314366   5.986   9.766   9.048  0.2908 -0.1777 -0.6765
  575THY    CA414367   6.135   9.720   8.899 -0.4772 -0.7822 -0.1942
  575THY    HA414368   6.173   9.821   8.890  1.4572 -1.3972  0.5370
  575THY    CA514369   6.206   9.619   8.832  1.0846 -0.4482  0.1250
  575THY    CM114370   6.307   9.661   8.723 -0.6305  0.4290  0.7894
  575THY    HM114371   6.385   9.583   8.716  0.3166  1.3261  1.0979
  575THY    HM214372   6.261   9.687   8.627  1.9821 -1.3187 -1.0990
  575THY    HM314373   6.361   9.749   8.760  1.8382  0.0604 -1.5936
  575THY    CA614374   6.164   9.489   8.846  0.5690  0.0788  0.1699
  575THY    HA614375   6.221   9.411   8.794  1.6459  1.4923 -0.8591
  576THY      O14376   2.283   0.612   4.855  0.1643 -0.5753 -0.0527
  576THY     HO14377   2.321   0.522   4.851 -0.8757 -1.0582  0.3940
  576THY    CA114378   2.142   0.598   4.866  0.3561 -0.0979 -0.2746
  576THY    CA214379   2.048   0.697   4.842 -0.3473  0.3864 -0.2182
  576THY    CP114380   2.093   0.843   4.812  0.0371 -0.0217 -0.9254
  576THY    HP114381   2.199   0.856   4.833 -0.4769  2.7161  0.4063
  576THY    CP214382   2.060   0.879   4.668  0.7639 -1.1667 -0.0448
  576THY    HP214383   2.101   0.976   4.637 -0.1479 -0.8337 -0.2512
  576THY    HP314384   2.102   0.808   4.595 -0.2570 -1.8192 -0.0085
  576THY    HP414385   1.953   0.893   4.652  0.8592  0.0070  0.2214
  576THY    CP314386   2.033   0.946   4.914  0.4509 -0.5341 -0.4535
  576THY    HP514387   1.925   0.955   4.901  0.7081  0.7186 -1.9390
  576THY    HP614388   2.048   0.919   5.019 -1.6849  1.6776  0.5136
  576THY    HP714389   2.080   1.043   4.896  0.1082 -0.3761 -0.4926
  576THY    CA314390   1.907   0.671   4.861 -0.2348 -0.0945  0.4594
  576THY    HA314391   1.829   0.743   4.838  1.5722  1.0575 -2.6482
  576THY    CA414392   1.868   0.546   4.882 -0.5259  0.6508  0.7145
  576THY    HA414393   1.764   0.513   4.888 -0.2309 -0.5535 -0.3304
  576THY    CA514394   1.964   0.443   4.909 -0.1361 -0.6757  0.0007
  576THY    CM114395   1.914   0.306   4.950  0.5392 -0.6225 -1.0051
  576THY    HM114396   1.975   0.229   4.902  0.9553 -0.8183 -0.1800
  576THY    HM214397   1.935   0.305   5.058 -1.1132 -2.4266 -0.6467
  576THY    HM314398   1.811   0.277   4.924  0.3265 -0.5987 -0.2309
  576THY    CA614399   2.102   0.469   4.906 -0.5358 -0.6745 -0.2599
  576THY    HA614400   2.182   0.398   4.922  2.1034  1.9499 -0.9422
  577THY      O14401   2.402   1.380   6.607  0.2531  0.0924 -0.3512
  577THY     HO14402   2.442   1.292   6.593  0.2810  0.3683 -2.4164
  577THY    CA114403   2.473   1.453   6.702 -0.9190  0.2290  0.1536
  577THY    CA214404   2.487   1.593   6.691  0.3733 -0.1905 -0.0864
  577THY    CP114405   2.431   1.669   6.565  0.4310  0.1697 -0.8540
  577THY    HP114406   2.359   1.599   6.521 -0.6367  1.5511 -1.3574
  577THY    CP214407   2.367   1.804   6.608  0.1979 -0.5216  0.1277
  577THY    HP214408   2.437   1.883   6.638 -0.0595 -0.5029  0.6887
  577THY    HP314409   2.308   1.843   6.524 -0.1451 -0.2157  0.5033
  577THY    HP414410   2.290   1.788   6.684 -1.0920 -0.6769 -1.1760
  577THY    CP314411   2.541   1.696   6.462  0.4912  0.7242  0.6628
  577THY    HP514412   2.583   1.605   6.417 -2.9925  0.2695 -2.1346
  577THY    HP614413   2.489   1.748   6.381  0.6648 -0.4159 -0.2097
  577THY    HP714414   2.619   1.767   6.493 -1.0787  2.5275  0.6486
  577THY    CA314415   2.545   1.652   6.809 -0.1729 -0.3601 -0.4550
  577THY    HA314416   2.561   1.759   6.822 -1.3561 -0.4422  2.4545
  577THY    CA414417   2.588   1.578   6.920  0.5734  0.4416 -0.0289
  577THY    HA414418   2.625   1.635   7.005  0.8796 -0.2633  0.3147
  577THY    CA514419   2.574   1.435   6.924 -0.2372 -0.6502  0.2331
  577THY    CM114420   2.592   1.362   7.046  0.1772  0.6188  0.3463
  577THY    HM114421   2.627   1.431   7.124 -3.5449  0.4787  2.3660
  577THY    HM214422   2.498   1.313   7.070 -0.5520 -0.6224 -4.1442
  577THY    HM314423   2.669   1.285   7.030  1.6649  2.0296  0.3938
  577THY    CA614424   2.507   1.376   6.815 -0.4061  0.5825  0.1661
  577THY    HA614425   2.466   1.276   6.825  0.1990  0.3364  0.2362
  578THY      O14426   7.819   5.121   6.902 -0.3273 -0.2248 -0.8887
  578THY     HO14427   7.846   5.208   6.867  0.7940 -0.4800 -0.6858
  578THY    CA114428   7.698   5.139   6.965  0.4434  0.0467  0.3071
  578THY    CA214429   7.622   5.033   7.009  0.6427 -0.2197  0.1462
  578THY    CP114430   7.675   4.893   7.020 -0.2554 -0.7346  0.6734
  578THY    HP114431   7.716   4.867   6.922 -0.0742  2.0278 -0.0707
  578THY    CP214432   7.781   4.882   7.134  0.0120 -0.2687  0.3295
  578THY    HP214433   7.804   4.776   7.150 -0.2030 -0.7143 -2.0288
  578THY    HP314434   7.867   4.942   7.102  1.6974 -1.7059  1.9680
  578THY    HP414435   7.737   4.920   7.227  2.0602 -0.8809  1.6159
  578THY    CP314436   7.576   4.778   7.041 -0.2987  0.5706  0.9439
  578THY    HP514437   7.632   4.685   7.026  2.1332  2.2204 -0.9671
  578THY    HP614438   7.518   4.778   7.134 -0.2485  0.7820  0.9756
  578THY    HP714439   7.504   4.785   6.959  0.5179 -1.4348 -0.0144
  578THY    CA314440   7.494   5.066   7.050 -0.0953 -0.4866  0.1699
  578THY    HA314441   7.430   4.989   7.093 -1.9487  1.6299  1.3717
  578THY    CA414442   7.449   5.198   7.052  0.0517  0.0469  0.2628
  578THY    HA414443   7.353   5.225   7.094  0.9401  1.7457  1.3163
  578THY    CA514444   7.529   5.297   7.003 -0.8490  0.1433  0.4418
  578THY    CM114445   7.484   5.445   7.016 -0.2335 -0.3766 -0.1560
  578THY    HM114446   7.389   5.455   7.068  1.2958  0.2650  2.6837
  578THY    HM214447   7.552   5.517   7.063  1.6677 -0.0295 -3.1386
  578THY    HM314448   7.461   5.480   6.915  0.1748 -0.8993 -0.4397
  578THY    CA614449   7.660   5.272   6.966  0.2198  0.0794  0.2518
  578THY    HA614450   7.725   5.353   6.938  0.8656 -0.4922  0.0691
  579THY      O14451   6.375   6.054   4.172 -0.3487  0.1987 -0.0406
  579THY     HO14452   6.354   6.064   4.078 -1.4526  0.6691  0.2428
  579THY    CA114453   6.381   6.181   4.211 -0.8710 -0.4574 -0.3089
  579THY    CA214454   6.451   6.214   4.337 -0.0561  0.0185 -0.2053
  579THY    CP114455   6.541   6.115   4.404  0.3413  0.1741  0.5427
  579THY    HP114456   6.490   6.019   4.387 -0.4786  0.6460  0.2894
  579THY    CP214457   6.681   6.101   4.329  0.7663 -0.0502  0.5525
  579THY    HP214458   6.671   6.087   4.220  1.1017  2.6842  0.0900
  579THY    HP314459   6.728   6.201   4.327 -0.4981  0.5739  1.0840
  579THY    HP414460   6.750   6.029   4.375  0.9094 -0.1727  0.1531
  579THY    CP314461   6.561   6.121   4.552  0.0932 -0.1542  0.6989
  579THY    HP514462   6.468   6.105   4.607  0.9446  0.0454  2.2385
  579THY    HP614463   6.619   6.031   4.578 -1.7857 -2.3802 -2.1294
  579THY    HP714464   6.606   6.214   4.589 -0.3745  0.1358  0.5414
  579THY    CA314465   6.434   6.344   4.387 -0.1438  0.2556  0.0316
  579THY    HA314466   6.487   6.378   4.475 -1.3943  0.7688  0.6139
  579THY    CA414467   6.353   6.435   4.305  0.2031  1.3301  0.4943
  579THY    HA414468   6.351   6.540   4.332 -1.4130  1.1544  1.1445
  579THY    CA514469   6.291   6.405   4.191  0.0079  0.1721 -0.2217
  579THY    CM114470   6.210   6.502   4.131  0.1275 -0.0289 -0.3017
  579THY    HM114471   6.227   6.514   4.023  3.4503  1.1308  0.2228
  579THY    HM214472   6.108   6.464   4.144  0.7746 -2.1826 -1.1593
  579THY    HM314473   6.215   6.602   4.176  1.8189 -0.0669 -0.3237
  579THY    CA614474   6.305   6.275   4.144 -0.1488  0.1205 -0.1324
  579THY    HA614475   6.250   6.248   4.055 -2.1390 -1.6153  1.4984
  580THY      O14476   1.425   1.646   4.191  0.3070  0.7706  0.2861
  580THY     HO14477   1.337   1.686   4.199  0.2691  1.1054 -1.4545
  580THY    CA114478   1.402   1.526   4.147  0.3685  0.0076  0.3603
  580THY    CA214479   1.484   1.466   4.049 -0.2335 -0.6343 -0.5183
  580THY    CP114480   1.593   1.547   3.987 -0.6723  0.2372  0.1653
  580THY    HP114481   1.588   1.654   4.010  0.2756 -0.0397  1.7938
  580THY    CP214482   1.742   1.507   4.026 -1.1062 -0.1277  0.4434
  580THY    HP214483   1.761   1.522   4.133 -0.8870  0.7848  0.2810
  580THY    HP314484   1.760   1.401   4.007 -3.8635 -0.8458  1.3317
  580THY    HP414485   1.812   1.569   3.969 -0.8878  0.2047  1.0645
  580THY    CP314486   1.573   1.552   3.831  0.9575  0.1412  0.6352
  580THY    HP514487   1.466   1.566   3.811  1.6851  2.6057 -2.1933
  580THY    HP614488   1.634   1.629   3.784  1.7709 -0.6455  0.3675
  580THY    HP714489   1.582   1.461   3.770  2.9113  0.5232  0.2881
  580THY    CA314490   1.458   1.336   3.998  0.6042 -0.2278  0.3017
  580THY    HA314491   1.513   1.290   3.917 -0.7938 -1.4076 -0.0253
  580THY    CA414492   1.350   1.265   4.057  0.6533  0.1429 -0.0062
  580THY    HA414493   1.314   1.173   4.012  0.4559 -0.5664  1.5446
  580THY    CA514494   1.269   1.325   4.156 -0.4287 -0.3580 -0.4290
  580THY    CM114495   1.147   1.252   4.205  0.8727  0.0316 -0.2986
  580THY    HM114496   1.144   1.252   4.315  2.7136  1.0998 -0.2037
  580THY    HM214497   1.058   1.299   4.162  1.4475  2.6482  1.1787
  580THY    HM314498   1.149   1.154   4.156  0.2477  0.5070 -1.2996
  580THY    CA614499   1.291   1.454   4.203 -0.6586 -0.3054 -0.3648
  580THY    HA614500   1.230   1.504   4.278  1.9716 -0.1529  1.8168
  581THY      O14501   3.608   2.545   5.710  0.6102  0.1467 -0.6226
  581THY     HO14502   3.570   2.627   5.745  1.3283 -0.3406  1.4578
  581THY    CA114503   3.740   2.551   5.749 -0.3872  0.3569 -0.1839
  581THY    CA214504   3.842   2.478   5.678  0.4867 -0.4255  0.1901
  581THY    CP114505   3.803   2.377   5.564 -0.5925  0.3415 -0.3308
  581THY    HP114506   3.700   2.343   5.580 -0.2002 -0.7764 -0.1310
  581THY    CP214507   3.819   2.452   5.429 -0.2754 -0.4271  0.3262
  581THY    HP214508   3.755   2.538   5.450  0.7382 -0.3235  3.4144
  581THY    HP314509   3.921   2.485   5.406  0.2503 -1.5284  0.9935
  581THY    HP414510   3.773   2.394   5.348  1.5943 -1.3772 -0.1212
  581THY    CP314511   3.898   2.247   5.568  0.7902  0.4483  0.3847
  581THY    HP514512   3.934   2.232   5.670  0.6062 -1.4725  0.1945
  581THY    HP614513   3.846   2.159   5.528  0.7440  0.4893  0.3539
  581THY    HP714514   3.980   2.273   5.500  0.7060  1.8360  0.7770
  581THY    CA314515   3.975   2.502   5.718 -0.5069  0.7113  0.7540
  581THY    HA314516   4.054   2.451   5.664 -0.7584  2.0011 -0.9181
  581THY    CA414517   4.003   2.602   5.816 -0.4896 -0.0014  0.6182
  581THY    HA414518   4.105   2.612   5.852  0.0521  0.9243 -1.1066
  581THY    CA514519   3.901   2.671   5.876 -0.1312  0.2117 -0.3967
  581THY    CM114520   3.937   2.778   5.978  0.1940 -0.1251  0.1947
  581THY    HM114521   4.023   2.762   6.045 -0.1598  0.4816  0.8042
  581THY    HM214522   3.972   2.865   5.921  1.4442 -0.3964  0.5085
  581THY    HM314523   3.852   2.807   6.041 -1.7602  1.1525 -2.8237
  581THY    CA614524   3.770   2.658   5.838  0.0513  0.1249  0.3252
  581THY    HA614525   3.687   2.705   5.889 -0.8412 -0.0777 -0.8969
  582THY      O14526   9.653   0.962   8.952  0.0052  0.2653  0.1537
  582THY     HO14527   9.653   1.015   9.033  0.9904  1.1640 -0.3991
  582THY    CA114528   9.535   0.975   8.895  0.3248  0.2501 -0.5221
  582THY    CA214529   9.480   0.885   8.802 -0.6084 -0.0997 -0.0984
  582THY    CP114530   9.560   0.768   8.751  0.4086 -0.0622 -0.4879
  582THY    HP114531   9.642   0.739   8.817 -0.3481 -1.3783 -0.0957
  582THY    CP214532   9.453   0.655   8.739 -0.6294  0.1745  0.0135
  582THY    HP214533   9.509   0.562   8.729 -1.4562 -0.4860  1.2282
  582THY    HP314534   9.394   0.658   8.831  1.0718  0.3233  1.1365
  582THY    HP414535   9.385   0.658   8.652  1.7949 -2.7772 -2.1976
  582THY    CP314536   9.625   0.794   8.612 -0.3496  0.6625 -0.2761
  582THY    HP514537   9.665   0.896   8.615 -2.5078  1.5674  2.8793
  582THY    HP614538   9.702   0.719   8.591 -1.0077 -1.1619  3.1509
  582THY    HP714539   9.544   0.792   8.538 -1.8375 -0.2919  1.3006
  582THY    CA314540   9.359   0.920   8.741 -0.1708 -0.7818 -0.3561
  582THY    HA314541   9.309   0.865   8.663  1.2554 -2.1262 -0.3710
  582THY    CA414542   9.285   1.033   8.785 -0.4849  0.4165  0.2093
  582THY    HA414543   9.187   1.057   8.746 -0.7643 -0.5539  0.2766
  582THY    CA514544   9.338   1.115   8.885  0.5299 -0.5515 -0.4190
  582THY    CM114545   9.253   1.233   8.927  0.0623  0.3655 -0.5157
  582THY    HM114546   9.150   1.210   8.898  0.7134 -1.5003 -1.5133
  582THY    HM214547   9.261   1.250   9.035 -2.8341 -3.2901  0.4664
  582THY    HM314548   9.289   1.322   8.874  0.8193  0.6837  0.5103
  582THY    CA614549   9.461   1.083   8.944 -0.9729 -0.4728  0.0332
  582THY    HA614550   9.500   1.156   9.014 -0.6477 -0.4293 -0.1876
  583THY      O14551   8.619   1.167   6.876 -0.4687  0.0108 -0.5768
  583THY     HO14552   8.710   1.144   6.902 -1.3713 -3.1210  0.2540
  583THY    CA114553   8.598   1.129   6.747 -0.0342 -0.3502 -0.0808
  583THY    CA214554   8.464   1.126   6.691  0.1776  0.1243 -0.8294
  583THY    CP114555   8.340   1.153   6.780  0.7416  0.6664 -0.7652
  583THY    HP114556   8.383   1.154   6.881  2.2294  1.1463 -1.3810
  583THY    CP214557   8.269   1.284   6.743 -0.2715  0.3664 -0.0060
  583THY    HP214558   8.239   1.295   6.638 -1.1364  1.8182  0.3634
  583THY    HP314559   8.186   1.310   6.810  1.9067  1.3122  2.5089
  583THY    HP414560   8.334   1.371   6.761  0.2092  0.2699 -1.1671
  583THY    CP314561   8.241   1.033   6.779  0.1475 -0.5426 -0.0585
  583THY    HP514562   8.299   0.940   6.772  1.1616 -0.4044  4.0604
  583THY    HP614563   8.182   1.039   6.871 -0.4730  1.3159 -0.5401
  583THY    HP714564   8.178   1.048   6.691  0.8220 -2.7093 -0.9861
  583THY    CA314565   8.454   1.092   6.553  0.1489  0.2418  0.5831
  583THY    HA314566   8.361   1.075   6.500 -0.6082  1.3290  1.5273
  583THY    CA414567   8.575   1.090   6.475 -0.1723  0.4815 -0.8800
  583THY    HA414568   8.580   1.044   6.377  1.2848 -1.5099  0.0491
  583THY    CA514569   8.704   1.116   6.531 -0.0495  0.0505 -0.3690
  583THY    CM114570   8.832   1.107   6.449 -0.2337 -0.1603  0.1675
  583THY    HM114571   8.888   1.013   6.458  1.4086  0.7983  0.3763
  583THY    HM214572   8.798   1.112   6.345 -1.1239  1.4178  0.5075
  583THY    HM314573   8.904   1.187   6.474  1.3302 -1.4091 -0.1611
  583THY    CA614574   8.710   1.125   6.670  0.0146 -0.1189 -0.3010
  583THY    HA614575   8.810   1.123   6.712 -0.0440  0.7507 -0.0909
  584THY      O14576   9.784   7.938   2.417  0.2981 -0.5729  0.1091
  584THY     HO14577   9.752   7.879   2.347  0.2477  0.8453 -1.0826
  584THY    CA114578   9.848   7.849   2.498 -0.2485 -0.0795  0.5300
  584THY    CA214579   9.923   7.882   2.616 -0.2719 -0.0098  0.1810
  584THY    CP114580   9.925   8.021   2.680 -0.2614 -0.2309  0.4540
  584THY    HP114581   9.874   8.087   2.609 -0.2205  0.0900  0.7254
  584THY    CP214582   9.856   8.022   2.818 -0.2654  0.1160 -0.3113
  584THY    HP214583   9.757   7.977   2.803 -1.1844  1.3783  1.5154
  584THY    HP314584   9.920   7.965   2.886  0.5591 -2.4635 -3.0255
  584THY    HP414585   9.847   8.126   2.853  2.4841  1.6496 -3.5861
  584THY    CP314586  10.069   8.074   2.701 -0.2776 -0.8083 -0.5515
  584THY    HP514587  10.142   8.026   2.635  0.9890  2.7669 -1.9931
  584THY    HP614588  10.085   8.181   2.687 -0.8713 -0.6246  0.1349
  584THY    HP714589  10.106   8.056   2.802 -0.8003  0.1905 -0.1736
  584THY    CA314590   9.996   7.775   2.684 -0.3101 -0.2387 -0.6212
  584THY    HA314591  10.050   7.786   2.777 -1.6711  0.1399  0.1528
  584THY    CA414592   9.980   7.644   2.631  0.6928 -0.0670  0.3038
  584THY    HA414593  10.042   7.565   2.672  1.5053 -0.7040 -2.0246
  584THY    CA514594   9.897   7.615   2.524  0.4627  0.1865 -0.4968
  584THY    CM114595   9.886   7.475   2.472  0.4289 -0.2173  0.6593
  584THY    HM114596   9.946   7.462   2.382  0.0500  0.4655  0.2970
  584THY    HM214597   9.919   7.405   2.550  1.6598  0.0525  0.4067
  584THY    HM314598   9.783   7.444   2.453  1.0822 -1.7479 -0.5846
  584THY    CA614599   9.842   7.722   2.448  0.5182  0.8446  0.1884
  584THY    HA614600   9.783   7.697   2.361 -1.2184  1.5650  1.1108
  585THY      O14601   2.869   6.090   9.441  0.1490 -0.0886  0.2207
  585THY     HO14602   2.827   6.162   9.391  0.5677  0.9203  1.2752
  585THY    CA114603   2.903   6.143   9.557  0.6466 -0.5722 -0.2799
  585THY    CA214604   2.974   6.072   9.664 -0.5339  0.9661  0.0600
  585THY    CP114605   3.007   5.924   9.643 -0.9394 -0.5339  0.4905
  585THY    HP114606   2.956   5.889   9.552 -1.1410  0.9904 -0.0046
  585THY    CP214607   3.157   5.903   9.622  0.6344  0.0748  0.0761
  585THY    HP214608   3.174   5.803   9.579 -4.1866 -0.2959 -1.5990
  585THY    HP314609   3.189   5.977   9.547  0.9460 -0.7070 -0.5769
  585THY    HP414610   3.209   5.921   9.716  0.0621  1.0761  0.2131
  585THY    CP314611   2.968   5.832   9.762  0.1565  0.5197  0.0778
  585THY    HP514612   2.968   5.726   9.734  0.8426  0.8362 -1.1987
  585THY    HP614613   3.039   5.853   9.844 -0.5485  0.0777  0.8096
  585THY    HP714614   2.872   5.855   9.809 -0.8376 -0.9583 -1.1413
  585THY    CA314615   2.985   6.135   9.789 -0.1834 -0.2647  0.2677
  585THY    HA314616   3.014   6.072   9.872 -0.7286 -1.6060 -0.5061
  585THY    CA414617   2.954   6.275   9.799 -0.1021  0.0880  0.5403
  585THY    HA414618   2.964   6.331   9.891  2.3789 -0.1720  0.4849
  585THY    CA514619   2.893   6.342   9.698  0.2908 -0.1619  0.3605
  585THY    CM114620   2.824   6.480   9.742  0.0285  0.4805  0.0138
  585THY    HM114621   2.772   6.545   9.671  0.5547 -0.8115 -1.6060
  585THY    HM214622   2.735   6.450   9.800  1.0014 -2.8047  0.0321
  585THY    HM314623   2.886   6.542   9.808 -2.7638  3.3946  0.1598
  585THY    CA614624   2.875   6.273   9.577  0.1341 -0.2300 -0.0294
  585THY    HA614625   2.816   6.328   9.504  0.7058  0.1921 -0.1794
  586THY      O14626   0.463   3.804   6.130 -0.0114 -0.6384  0.0421
  586THY     HO14627   0.429   3.894   6.144 -1.1669 -0.7294 -1.7954
  586THY    CA114628   0.602   3.811   6.142 -0.6818  0.5033 -0.5011
  586THY    CA214629   0.676   3.688   6.147 -0.0204 -0.2387  0.4978
  586THY    CP114630   0.599   3.551   6.143 -0.4311  0.4957  0.1246
  586THY    HP114631   0.504   3.575   6.192 -0.0475  0.4644  0.8939
  586THY    CP214632   0.574   3.492   6.006 -0.3806  0.0086  0.1398
  586THY    HP214633   0.514   3.559   5.943  1.6572  0.2598 -1.6548
  586THY    HP314634   0.669   3.471   5.956 -1.2247 -0.2935 -1.4120
  586THY    HP414635   0.526   3.393   6.011  0.6170 -0.4437  0.8870
  586THY    CP314636   0.659   3.455   6.236 -0.3723 -0.1557  0.8152
  586THY    HP514637   0.593   3.367   6.234  0.6962 -0.9682 -0.2779
  586THY    HP614638   0.755   3.414   6.204 -1.2891 -0.8042 -1.3323
  586THY    HP714639   0.662   3.489   6.340 -2.5883  1.7798  0.3499
  586THY    CA314640   0.814   3.690   6.143 -0.0986  0.8876 -0.2724
  586THY    HA314641   0.876   3.601   6.143  0.4207  1.2382  0.2759
  586THY    CA414642   0.880   3.818   6.133 -0.1475  0.8674 -0.4424
  586THY    HA414643   0.988   3.819   6.126 -0.0157  1.5568  1.2002
  586THY    CA514644   0.809   3.940   6.139 -0.0983 -0.3463 -0.0596
  586THY    CM114645   0.872   4.076   6.127 -0.0646  0.1457 -0.1196
  586THY    HM114646   0.968   4.058   6.078 -0.2479 -0.9689 -0.0951
  586THY    HM214647   0.810   4.135   6.060  0.3482 -0.1763 -0.7954
  586THY    HM314648   0.891   4.132   6.219  0.8239  0.1901 -0.3233
  586THY    CA614649   0.669   3.932   6.148  0.5088  0.0573 -0.2146
  586THY    HA614650   0.612   4.024   6.153  0.8248  0.2226  0.7287
  587THY      O14651   1.533   9.408   5.499 -0.8265 -0.1445 -0.3112
  587THY     HO14652   1.627   9.394   5.520 -1.8601 -3.1247  3.4381
  587THY    CA114653   1.482   9.307   5.569 -0.0848  0.4938 -0.3848
  587THY    CA214654   1.344   9.278   5.574 -0.7138  0.2611  0.3346
  587THY    CP114655   1.235   9.366   5.518  0.2153  0.1569  0.2209
  587THY    HP114656   1.275   9.442   5.449 -3.0582  0.5200 -1.4521
  587THY    CP214657   1.127   9.279   5.432  0.0718 -0.7939 -0.2288
  587THY    HP214658   1.066   9.213   5.495 -0.1219 -0.8412 -0.4652
  587THY    HP314659   1.067   9.355   5.381  0.0642  0.2836  1.3046
  587THY    HP414660   1.169   9.219   5.351 -2.1764 -1.0393 -1.2889
  587THY    CP314661   1.173   9.435   5.637  0.7035 -0.0952  0.5895
  587THY    HP514662   1.236   9.516   5.675 -0.8121  1.3509  0.1353
  587THY    HP614663   1.077   9.483   5.615  1.4539  1.4376  0.5711
  587THY    HP714664   1.148   9.375   5.726 -1.4706  1.4173  1.0874
  587THY    CA314665   1.309   9.173   5.659 -0.0509  0.5924  0.0468
  587THY    HA314666   1.208   9.150   5.691  0.2636 -0.1772  0.5249
  587THY    CA414667   1.404   9.084   5.711  0.3752 -0.4922 -0.3876
  587THY    HA414668   1.373   8.999   5.771 -1.0926  0.5517  0.4028
  587THY    CA514669   1.538   9.102   5.701 -0.1120 -0.5415  0.6048
  587THY    CM114670   1.643   9.017   5.760 -0.7085 -0.0667  0.4287
  587THY    HM114671   1.733   9.076   5.782  0.5832 -0.7173 -2.7299
  587THY    HM214672   1.608   8.968   5.852 -0.9261 -1.8532 -0.5703
  587THY    HM314673   1.669   8.936   5.692  0.9372  0.0568  0.8691
  587THY    CA614674   1.576   9.218   5.631  0.3476 -0.4301  0.3428
  587THY    HA614675   1.681   9.245   5.625  0.4633 -1.0164 -0.3041
  588THY      O14676   1.647   6.969   8.122 -0.2387 -0.2309  0.0773
  588THY     HO14677   1.711   7.026   8.075 -1.8185  1.6256  0.0514
  588THY    CA114678   1.624   6.877   8.033 -0.1264 -0.7954 -0.0014
  588THY    CA214679   1.597   6.749   8.074  0.4079  0.1674 -0.0319
  588THY    CP114680   1.617   6.710   8.221  0.0430  1.1733 -0.6510
  588THY    HP114681   1.627   6.801   8.281 -0.9521  1.2203 -0.5356
  588THY    CP214682   1.494   6.624   8.269 -0.4906 -1.2935 -0.5992
  588THY    HP214683   1.488   6.613   8.378 -2.5253 -0.0578 -0.5346
  588THY    HP314684   1.407   6.684   8.241 -0.5264  0.4118  2.6581
  588THY    HP414685   1.488   6.527   8.218  1.0999 -1.6655 -0.1379
  588THY    CP314686   1.747   6.635   8.250  0.2633  0.3405  0.0869
  588THY    HP514687   1.757   6.631   8.359  0.0477 -0.3116  0.0826
  588THY    HP614688   1.766   6.537   8.205  0.9233 -0.3647  1.8163
  588THY    HP714689   1.821   6.706   8.210 -0.6388  0.2854 -1.7520
  588THY    CA314690   1.549   6.659   7.983 -0.2151  0.1551  0.8581
  588THY    HA314691   1.529   6.556   8.008 -0.3408 -0.2054 -0.6132
  588THY    CA414692   1.530   6.696   7.845  0.1598  0.2849 -0.2035
  588THY    HA414693   1.495   6.632   7.764 -1.1609  2.3964 -1.3972
  588THY    CA514694   1.553   6.827   7.807  0.2890 -0.3592 -0.1014
  588THY    CM114695   1.502   6.882   7.671 -0.3490  0.5418  0.3218
  588THY    HM114696   1.442   6.811   7.613  0.2481 -0.3126  0.7358
  588THY    HM214697   1.451   6.976   7.695 -1.4427 -0.4656  2.1867
  588THY    HM314698   1.582   6.906   7.600 -0.8082  1.3531  0.0640
  588THY    CA614699   1.608   6.916   7.898  0.5208  0.2895  0.5486
  588THY    HA614700   1.617   7.018   7.862  0.7335 -0.4773 -1.7363
  589THY      O14701   2.544   3.461   4.678  0.6480  0.3191  0.2169
  589THY     HO14702   2.466   3.423   4.722  2.0627 -1.9810  0.8733
  589THY    CA114703   2.524   3.587   4.644  0.1592 -0.5513  1.6284
  589THY    CA214704   2.621   3.657   4.567  0.2323 -0.0148 -0.1869
  589THY    CP114705   2.757   3.587   4.532 -1.5329 -0.0751  0.0785
  589THY    HP114706   2.751   3.480   4.555  1.8344 -0.1294  1.3076
  589THY    CP214707   2.801   3.611   4.390 -0.2558 -0.1255 -0.3279
  589THY    HP214708   2.868   3.696   4.371  0.8614 -1.4616 -3.0070
  589THY    HP314709   2.856   3.527   4.347  0.8827  0.7870 -0.7340
  589THY    HP414710   2.707   3.624   4.336 -0.2863 -1.3268 -0.5955
  589THY    CP314711   2.867   3.628   4.633  0.2773  0.5485 -0.3154
  589THY    HP514712   2.907   3.728   4.611 -0.0129  0.3556 -1.8112
  589THY    HP614713   2.815   3.630   4.729 -1.9380  2.7064 -1.4537
  589THY    HP714714   2.948   3.555   4.642 -0.8250 -0.4865  1.9758
  589THY    CA314715   2.594   3.795   4.528  0.3709  0.3989  0.2372
  589THY    HA314716   2.664   3.849   4.465 -0.1804  0.1126 -0.6326
  589THY    CA414717   2.468   3.846   4.547 -0.3166  0.0125  0.0486
  589THY    HA414718   2.442   3.946   4.513 -0.2106  0.2831  0.7445
  589THY    CA514719   2.369   3.770   4.605 -0.8635 -0.4138  0.3598
  589THY    CM114720   2.224   3.825   4.612  0.2560  0.0633  0.0386
  589THY    HM114721   2.189   3.841   4.715  0.7348  1.4869 -0.0063
  589THY    HM214722   2.208   3.917   4.555 -1.5644 -0.9975 -1.2368
  589THY    HM314723   2.153   3.757   4.563  0.6630  0.1637 -0.7092
  589THY    CA614724   2.402   3.645   4.663 -0.2630 -0.4661  0.3528
  589THY    HA614725   2.320   3.588   4.706 -1.9038  1.5411  0.0430
  590THY      O14726   7.765   5.909   8.897  0.0578  0.0715 -0.6597
  590THY     HO14727   7.776   5.930   8.803 -0.1407  3.1490 -0.1236
  590THY    CA114728   7.751   5.777   8.903 -0.3360  0.2293 -0.0956
  590THY    CA214729   7.823   5.698   8.991 -0.3326  0.1358  0.3968
  590THY    CP114730   7.913   5.757   9.096 -0.6463 -0.2959  0.0588
  590THY    HP114731   7.908   5.867   9.098  1.5369 -0.1552  0.2053
  590THY    CP214732   7.881   5.701   9.232  0.1982  0.1646  1.1184
  590THY    HP214733   7.964   5.731   9.297  1.1133  1.7928 -0.7044
  590THY    HP314734   7.801   5.760   9.278  0.6830 -0.0483  2.2751
  590THY    HP414735   7.848   5.597   9.226  0.5555  0.1350 -0.9461
  590THY    CP314736   8.060   5.713   9.071 -0.1135  0.5399  0.0989
  590THY    HP514737   8.123   5.747   9.153  1.8479 -0.9970 -0.6825
  590THY    HP614738   8.078   5.605   9.062 -1.2156  0.5003 -2.6151
  590THY    HP714739   8.094   5.752   8.974  1.0607 -0.4652  0.0769
  590THY    CA314740   7.817   5.553   8.975  0.6572  0.1980 -0.5890
  590THY    HA314741   7.868   5.477   9.034 -0.6062 -0.5412 -0.4178
  590THY    CA414742   7.732   5.496   8.876  0.1711 -0.0951 -0.4145
  590THY    HA414743   7.741   5.390   8.855 -0.6469 -0.1406 -0.5499
  590THY    CA514744   7.674   5.582   8.784  0.4187  0.0567 -0.4714
  590THY    CM114745   7.589   5.531   8.673 -0.2894  0.0199 -0.2554
  590THY    HM114746   7.510   5.599   8.640 -2.1154 -0.8748  2.0041
  590THY    HM214747   7.659   5.496   8.597  0.9967  1.5323  0.1698
  590THY    HM314748   7.532   5.442   8.702 -0.5801  0.2020 -0.2634
  590THY    CA614749   7.683   5.721   8.802  0.7174 -0.3117 -0.3356
  590THY    HA614750   7.644   5.778   8.718 -0.0228  0.9571  0.8300
  591THY      O14751   6.393   6.793   2.128 -0.0734  0.3948 -0.0294
  591THY     HO14752   6.483   6.828   2.123  0.4705 -0.4116  2.5228
  591THY    CA114753   6.358   6.834   2.252  0.9219 -0.0319 -0.4794
  591THY    CA214754   6.360   6.744   2.353  0.2527  0.2483  0.2340
  591THY    CP114755   6.401   6.596   2.328  0.1914 -0.7672  0.3542
  591THY    HP114756   6.462   6.596   2.237 -0.2559 -0.6281  0.0512
  591THY    CP214757   6.497   6.553   2.438  0.2961  0.0785  0.5393
  591THY    HP214758   6.545   6.459   2.407 -0.1673 -0.3512  1.1184
  591THY    HP314759   6.578   6.627   2.441 -0.2136  0.7532 -1.3459
  591THY    HP414760   6.446   6.525   2.531  2.5765 -0.1518  1.8099
  591THY    CP314761   6.282   6.502   2.311 -0.2358 -0.5720 -0.0050
  591THY    HP514762   6.322   6.413   2.260 -0.1428  0.3641 -1.6579
  591THY    HP614763   6.218   6.485   2.398 -0.7029 -0.1882 -0.2683
  591THY    HP714764   6.208   6.552   2.248 -0.5789  1.2488  1.7608
  591THY    CA314765   6.320   6.782   2.484  0.4388  0.0898  0.8220
  591THY    HA314766   6.337   6.716   2.568 -0.0743 -1.5899 -0.3561
  591THY    CA414767   6.283   6.915   2.504  0.2097 -0.0525  0.1216
  591THY    HA414768   6.262   6.950   2.605  2.0832  0.7433  0.2708
  591THY    CA514769   6.284   7.006   2.399  0.5482 -0.0045 -0.3979
  591THY    CM114770   6.236   7.144   2.428 -0.3177 -0.3318  0.8206
  591THY    HM114771   6.318   7.207   2.464 -0.0999 -0.3469  0.3632
  591THY    HM214772   6.192   7.197   2.342  1.9626  3.2810  1.6932
  591THY    HM314773   6.164   7.139   2.510  0.4769 -1.3007  1.4873
  591THY    CA614774   6.326   6.965   2.273 -0.2922  0.7025  0.0274
  591THY    HA614775   6.326   7.028   2.184  2.3828 -0.1984 -0.7317
  592THY      O14776   9.067   2.521   5.486 -0.4279 -0.4273 -0.3640
  592THY     HO14777   8.996   2.488   5.428 -1.3929  1.0989 -0.1144
  592THY    CA114778   9.185   2.479   5.430  0.8244  0.4636  0.9214
  592THY    CA214779   9.310   2.510   5.485  0.0368  1.0231 -0.0038
  592THY    CP114780   9.314   2.603   5.605 -0.4531  1.2858  0.2152
  592THY    HP114781   9.217   2.592   5.657 -0.5201 -1.4211 -0.3306
  592THY    CP214782   9.428   2.568   5.703 -0.0732 -0.1743  0.5274
  592THY    HP214783   9.444   2.463   5.730  2.2891 -0.8659 -2.7855
  592THY    HP314784   9.520   2.592   5.647 -0.9309 -1.4685 -1.5922
  592THY    HP414785   9.415   2.629   5.793  0.8146  1.9739 -0.6994
  592THY    CP314786   9.333   2.740   5.548 -0.5673  0.2402 -0.1566
  592THY    HP514787   9.340   2.814   5.629  1.0953  0.1685 -0.2128
  592THY    HP614788   9.433   2.749   5.503 -0.6127 -1.6462 -0.7040
  592THY    HP714789   9.253   2.781   5.485  0.4101  1.3343 -0.7368
  592THY    CA314790   9.419   2.453   5.426  0.2038 -0.0587 -0.3747
  592THY    HA314791   9.515   2.471   5.474  0.2865 -0.4917 -0.3771
  592THY    CA414792   9.418   2.394   5.307  0.4580  0.2331 -0.1067
  592THY    HA414793   9.510   2.362   5.259 -1.0786 -0.0765 -3.0477
  592THY    CA514794   9.293   2.364   5.245 -0.8449  0.2530 -0.4382
  592THY    CM114795   9.291   2.302   5.111  0.0847  0.7930  0.3862
  592THY    HM114796   9.382   2.245   5.088  0.3669  1.7331 -0.9031
  592THY    HM214797   9.210   2.228   5.116 -0.0485  0.7917 -1.3075
  592THY    HM314798   9.268   2.373   5.031  1.5877  1.3187  0.3902
  592THY    CA614799   9.180   2.401   5.312  0.1886 -0.7148  0.1938
  592THY    HA614800   9.083   2.391   5.265  0.5128 -0.7395 -0.4841
  593THY      O14801   4.693   9.555   0.067 -0.3690 -0.5348 -0.2453
  593THY     HO14802   4.716   9.496   0.140  1.4993  2.0019  1.4145
  593THY    CA114803   4.635   9.660   0.137 -0.0703 -0.2701  0.5149
  593THY    CA214804   4.638   9.800   0.093  0.3177  0.1923  0.2963
  593THY    CP114805   4.709   9.829  -0.043  0.2292 -0.1956  0.3049
  593THY    HP114806   4.775   9.747  -0.074 -0.2805 -0.7622  0.6936
  593THY    CP214807   4.604   9.845  -0.153 -0.3243  0.5826 -0.2949
  593THY    HP214808   4.523   9.912  -0.123 -2.4143 -2.0166  0.1679
  593THY    HP314809   4.660   9.874  -0.243  1.3950 -0.1124  0.5064
  593THY    HP414810   4.562   9.747  -0.179  2.3547 -0.9940  0.8015
  593THY    CP314811   4.793   9.951  -0.047 -0.0628  0.0355  0.0721
  593THY    HP514812   4.860   9.950  -0.133  1.2037 -0.4860  1.0320
  593THY    HP614813   4.729  10.040  -0.057 -0.1963 -0.3023 -2.8662
  593THY    HP714814   4.854   9.952   0.044  1.6307 -0.3472 -1.0152
  593THY    CA314815   4.575   9.897   0.169  0.0123  0.1668 -0.7835
  593THY    HA314816   4.568  10.001   0.137  2.2002 -0.0871 -2.2836
  593THY    CA414817   4.524   9.855   0.297  0.5008  0.5977 -0.7417
  593THY    HA414818   4.475   9.930   0.359 -0.2614 -0.8137  0.4205
  593THY    CA514819   4.528   9.719   0.341  0.3374 -0.1041 -0.0278
  593THY    CM114820   4.451   9.675   0.467  0.7485  0.5397 -0.3005
  593THY    HM114821   4.381   9.594   0.443  1.6633 -1.2301  2.4974
  593THY    HM214822   4.529   9.628   0.529  1.3917  0.0307 -1.4716
  593THY    HM314823   4.408   9.758   0.524  1.3408  0.2558  0.5943
  593THY    CA614824   4.573   9.624   0.253 -0.2458 -0.8012 -0.8234
  593THY    HA614825   4.550   9.520   0.273 -0.4234 -0.7202 -0.6018
  594THY      O14826   3.279   1.660   6.569  0.0506  0.1382 -0.0905
  594THY     HO14827   3.358   1.688   6.618 -0.0449 -1.6578  1.1695
  594THY    CA114828   3.273   1.729   6.456 -0.9978  0.4022  0.3547
  594THY    CA214829   3.154   1.769   6.395 -0.0487  0.2060 -0.9683
  594THY    CP114830   3.015   1.735   6.448  0.7359  0.0892 -0.2521
  594THY    HP114831   3.028   1.661   6.528 -1.3245  0.8022  0.8168
  594THY    CP214832   2.947   1.867   6.500 -0.5617 -0.1792  0.1604
  594THY    HP214833   2.847   1.840   6.537 -0.9189  1.0910  0.1733
  594THY    HP314834   3.008   1.893   6.587 -1.3884  0.1047  0.6721
  594THY    HP414835   2.937   1.948   6.427  1.2367  2.3150  2.4983
  594THY    CP314836   2.915   1.680   6.336 -0.5598  0.4755 -0.0417
  594THY    HP514837   2.965   1.603   6.277 -0.1573 -1.2289  2.3377
  594THY    HP614838   2.821   1.637   6.372 -0.3466  0.2761  0.2832
  594THY    HP714839   2.879   1.768   6.281  0.1957  2.3893  2.3108
  594THY    CA314840   3.162   1.823   6.267 -0.0066  0.3084 -0.0398
  594THY    HA314841   3.071   1.861   6.221  0.2260  0.6026 -0.2543
  594THY    CA414842   3.280   1.817   6.194  0.1016  0.3878  0.0119
  594THY    HA414843   3.292   1.837   6.087  3.1226  1.6320  0.4632
  594THY    CA514844   3.400   1.777   6.256 -0.5471  0.3555  0.6914
  594THY    CM114845   3.534   1.785   6.182  0.1563  0.0731 -0.6928
  594THY    HM114846   3.534   1.722   6.093  0.1840 -0.3703 -0.3850
  594THY    HM214847   3.551   1.884   6.138  0.3911 -0.0006 -0.7663
  594THY    HM314848   3.619   1.772   6.251 -0.2047  0.8419 -0.0818
  594THY    CA614849   3.398   1.735   6.386 -0.5264 -0.1702 -0.1403
  594THY    HA614850   3.494   1.709   6.429 -1.3927  0.1828  2.1917
  595THY      O14851   7.030   1.671   8.615  0.0749 -0.1271 -0.4130
  595THY     HO14852   7.045   1.687   8.709  0.7589 -0.5503 -0.4469
  595THY    CA114853   7.133   1.602   8.568  0.3139 -0.1375 -0.0035
  595THY    CA214854   7.128   1.506   8.469  0.1131  0.3891  0.4059
  595THY    CP114855   7.003   1.496   8.387  0.1577  0.3492 -0.1743
  595THY    HP114856   6.961   1.597   8.386 -1.4677 -0.2767  0.7426
  595THY    CP214857   7.013   1.436   8.244 -0.0950 -0.0329 -0.5151
  595THY    HP214858   7.100   1.477   8.192  0.7321 -0.1763  0.7366
  595THY    HP314859   7.024   1.327   8.251 -0.0308  0.0823  3.1120
  595THY    HP414860   6.915   1.451   8.196 -0.9119 -0.7584  0.8685
  595THY    CP314861   6.905   1.403   8.456 -0.1944  0.4778  0.3739
  595THY    HP514862   6.806   1.393   8.409 -1.7770  1.2268  3.3105
  595THY    HP614863   6.936   1.299   8.469 -2.4059 -0.0353  2.2407
  595THY    HP714864   6.888   1.434   8.560  0.1680  0.8941  0.3144
  595THY    CA314865   7.242   1.422   8.444  0.3910 -0.1211 -0.2875
  595THY    HA314866   7.241   1.340   8.372  0.6186  1.5803 -2.3249
  595THY    CA414867   7.356   1.453   8.516  0.1278  0.6562 -0.0696
  595THY    HA414868   7.450   1.400   8.503 -0.1337 -0.2482  1.4577
  595THY    CA514869   7.356   1.544   8.619  0.1190 -0.4211 -0.4398
  595THY    CM114870   7.486   1.569   8.694  0.2731  0.1826  0.5684
  595THY    HM114871   7.484   1.542   8.800 -1.2936 -1.8457  0.0909
  595THY    HM214872   7.569   1.520   8.642 -2.5343 -0.7153 -3.5799
  595THY    HM314873   7.519   1.674   8.691  1.0862 -0.0647  0.6782
  595THY    CA614874   7.244   1.629   8.643  0.0481  0.4665  1.1644
  595THY    HA614875   7.250   1.700   8.725  0.5110  0.9180  0.7479
  596THY      O14876   8.278   0.230   1.614  0.4279 -0.3838  0.1926
  596THY     HO14877   8.274   0.327   1.605 -1.1734 -0.3744  0.7975
  596THY    CA114878   8.395   0.178   1.579  0.4166 -1.2145  0.1603
  596THY    CA214879   8.405   0.038   1.564  0.0825  0.2641 -0.4213
  596THY    CP114880   8.286  -0.049   1.609 -0.4093 -0.6003  0.2016
  596THY    HP114881   8.234  -0.005   1.695  1.9348 -1.0041  1.9209
  596THY    CP214882   8.191  -0.062   1.492 -0.0357  0.6009 -0.7096
  596THY    HP214883   8.106  -0.113   1.538  1.4995 -0.4898  1.1215
  596THY    HP314884   8.166   0.043   1.471  0.6687  1.0051  0.3315
  596THY    HP414885   8.230  -0.130   1.415 -0.5571 -1.9541  1.1480
  596THY    CP314886   8.330  -0.186   1.654 -0.3400 -0.1441  0.0157
  596THY    HP514887   8.248  -0.229   1.713 -1.3183  0.2970 -0.9806
  596THY    HP614888   8.344  -0.249   1.566 -1.5620 -0.3602 -0.0443
  596THY    HP714889   8.419  -0.194   1.718 -0.6463 -0.2340  0.4356
  596THY    CA314890   8.522  -0.014   1.510  0.1614  0.4499 -0.1590
  596THY    HA314891   8.535  -0.121   1.494  1.3821  0.4479  0.6878
  596THY    CA414892   8.632   0.070   1.496  0.6374  0.1805 -0.5465
  596THY    HA414893   8.727   0.027   1.466  1.9240  0.3946  2.8320
  596THY    CA514894   8.625   0.206   1.521  0.9637 -0.3330 -0.7534
  596THY    CM114895   8.736   0.298   1.480  0.2839  0.0278  0.3832
  596THY    HM114896   8.832   0.245   1.484  0.5108  0.2621 -1.3072
  596THY    HM214897   8.726   0.343   1.381  0.7672 -1.5720 -0.4328
  596THY    HM314898   8.739   0.386   1.545 -2.9301 -0.7045  1.6977
  596THY    CA614899   8.500   0.261   1.563 -0.0001 -0.2072 -0.0426
  596THY    HA614900   8.482   0.367   1.573 -1.3513 -0.2956 -1.1742
  597THY      O14901   5.524   8.020   4.744  0.4052 -0.4297 -0.0603
  597THY     HO14902   5.538   8.036   4.649  1.3684  0.6045  0.2323
  597THY    CA114903   5.394   7.987   4.764 -0.5427 -0.1381 -0.1601
  597THY    CA214904   5.334   7.960   4.889  0.3730 -0.5666  0.2543
  597THY    CP114905   5.420   7.949   5.017  0.0244  0.4540  0.3373
  597THY    HP114906   5.513   8.005   5.007  1.9972 -2.3598  1.7022
  597THY    CP214907   5.356   8.017   5.140 -0.0568  0.0556  0.4952
  597THY    HP214908   5.295   8.103   5.111 -0.4135 -1.1314 -2.6949
  597THY    HP314909   5.301   7.941   5.198  3.9679 -1.0689  3.3183
  597THY    HP414910   5.441   8.039   5.206  0.1209 -1.1181  0.6850
  597THY    CP314911   5.445   7.797   5.044  0.0063 -0.1443 -0.6546
  597THY    HP514912   5.354   7.741   5.022  0.3556 -2.5627  3.1938
  597THY    HP614913   5.525   7.758   4.980  0.9408  1.0249 -0.2628
  597THY    HP714914   5.458   7.774   5.151 -1.5475  1.4167 -0.0693
  597THY    CA314915   5.196   7.954   4.902 -0.6003 -0.6639  0.1070
  597THY    HA314916   5.147   7.944   4.999  1.3371  1.3115  1.3942
  597THY    CA414917   5.126   7.968   4.783  0.7165  0.2011 -0.0185
  597THY    HA414918   5.018   7.952   4.784  0.7596 -0.2920  2.2258
  597THY    CA514919   5.179   7.987   4.658  0.1686  0.6253 -0.0025
  597THY    CM114920   5.092   8.006   4.539 -0.8314  0.1346  0.2800
  597THY    HM114921   5.127   7.939   4.460 -3.2083 -2.6818  1.4493
  597THY    HM214922   4.986   7.986   4.559 -0.6906 -0.7983  0.1092
  597THY    HM314923   5.104   8.114   4.523  1.7303 -0.3441 -1.5876
  597THY    CA614924   5.319   7.997   4.646  0.3411  0.3034 -0.2055
  597THY    HA614925   5.362   8.022   4.549  0.6416  0.0854 -0.1302
  598THY      O14926   5.130   4.699   2.023  0.1786  0.7565  0.0033
  598THY     HO14927   5.133   4.796   2.019 -0.9492  0.7808 -0.7029
  598THY    CA114928   5.249   4.648   1.969 -0.0843 -0.3898  0.9042
  598THY    CA214929   5.273   4.506   1.953  0.3251  0.5024  0.0489
  598THY    CP114930   5.175   4.398   1.999 -0.2039 -0.4622 -0.6922
  598THY    HP114931   5.084   4.455   2.022 -0.0432 -0.6368  0.4302
  598THY    CP214932   5.131   4.305   1.883 -0.6166 -0.0658  0.3814
  598THY    HP214933   5.218   4.245   1.854 -0.2933  1.4212 -2.0577
  598THY    HP314934   5.057   4.237   1.926 -0.4279  0.4339  1.5276
  598THY    HP414935   5.100   4.372   1.802 -0.5519 -0.3475  0.1224
  598THY    CP314936   5.225   4.338   2.132  0.4910  0.0595  0.0919
  598THY    HP514937   5.155   4.329   2.216 -0.9152 -0.0472 -1.0661
  598THY    HP614938   5.302   4.265   2.104  0.1582 -0.4656  0.5489
  598THY    HP714939   5.289   4.414   2.180 -1.7884 -0.2348  4.0696
  598THY    CA314940   5.398   4.465   1.905 -0.5517  0.0593 -0.1500
  598THY    HA314941   5.418   4.358   1.906  0.9366  0.3151  0.8664
  598THY    CA414942   5.496   4.560   1.860  0.2600  0.5611 -0.3856
  598THY    HA414943   5.590   4.536   1.811  0.2017  1.8954 -1.1810
  598THY    CA514944   5.465   4.701   1.868  0.0400 -0.1386  0.4193
  598THY    CM114945   5.553   4.806   1.810 -0.1440 -0.3852  0.3916
  598THY    HM114946   5.552   4.905   1.856  1.0708  0.2926 -0.9504
  598THY    HM214947   5.651   4.757   1.807  0.3513  0.4535  1.8121
  598THY    HM314948   5.523   4.833   1.708  2.9601  0.7177 -0.3388
  598THY    CA614949   5.344   4.735   1.921 -0.2353 -0.5061 -0.4509
  598THY    HA614950   5.327   4.842   1.931  1.5159 -0.1742 -0.5733
  599THY      O14951   4.946   6.767   7.311  0.8124  0.4869  0.4075
  599THY     HO14952   4.949   6.778   7.408  3.0105 -1.6772  0.6760
  599THY    CA114953   5.071   6.794   7.267 -0.1877 -0.2103  0.2948
  599THY    CA214954   5.103   6.761   7.133 -0.3242 -0.5099  0.4190
  599THY    CP114955   4.991   6.712   7.039  0.2437  0.7611 -0.2562
  599THY    HP114956   4.901   6.685   7.095 -0.7688  0.3790 -2.0164
  599THY    CP214957   4.941   6.819   6.942 -0.2066  0.4885 -0.4087
  599THY    HP214958   4.950   6.907   7.007  3.1506  0.2634 -0.4100
  599THY    HP314959   5.012   6.825   6.859  1.6570 -0.8323  1.0180
  599THY    HP414960   4.844   6.818   6.890 -0.0855  2.9429 -0.8058
  599THY    CP314961   5.022   6.592   6.948  0.2659 -0.5694  0.0113
  599THY    HP514962   5.095   6.624   6.873  0.4266  2.1857  1.2214
  599THY    HP614963   5.063   6.516   7.016 -0.8840 -1.1746  0.0577
  599THY    HP714964   4.936   6.555   6.891 -0.8280  2.5720 -0.5906
  599THY    CA314965   5.243   6.770   7.088 -0.1355  0.4129  0.0067
  599THY    HA314966   5.278   6.741   6.989 -0.3930 -2.5699  0.6778
  599THY    CA414967   5.334   6.830   7.179  0.0720  0.1344  0.4187
  599THY    HA414968   5.435   6.847   7.145 -0.9933  1.0166 -2.6688
  599THY    CA514969   5.304   6.861   7.308 -0.5042 -0.9585 -0.1147
  599THY    CM114970   5.405   6.922   7.406  0.2653 -0.1202  0.0316
  599THY    HM114971   5.364   6.975   7.493  1.5958  4.0782 -1.6188
  599THY    HM214972   5.477   6.846   7.435 -0.1650  0.2750  2.3850
  599THY    HM314973   5.453   7.000   7.345 -1.8231 -0.0253 -1.6342
  599THY    CA614974   5.170   6.833   7.353 -0.7964  0.0742  0.3704
  599THY    HA614975   5.142   6.861   7.454 -1.7128  0.4000  0.0426
  600THY      O14976   6.441   5.997   3.908  0.2084 -0.1492 -0.3437
  600THY     HO14977   6.404   5.909   3.891 -0.2503  0.1271 -0.7902
  600THY    CA114978   6.526   6.015   3.802 -0.0332 -0.1292 -0.0414
  600THY    CA214979   6.563   6.150   3.766 -0.2390  0.0666 -0.5581
  600THY    CP114980   6.493   6.270   3.814  0.2247  0.0801 -0.5959
  600THY    HP114981   6.396   6.231   3.849  0.3310 -0.7137 -1.1671
  600THY    CP214982   6.567   6.328   3.938 -0.6615 -0.4888  0.5928
  600THY    HP214983   6.673   6.347   3.917 -0.5181 -0.7677  1.0248
  600THY    HP314984   6.521   6.420   3.975  0.9939  0.4077  0.5547
  600THY    HP414985   6.570   6.259   4.024  2.8878 -0.7970  0.3816
  600THY    CP314986   6.469   6.379   3.718 -0.0432 -0.2269 -0.1486
  600THY    HP514987   6.565   6.408   3.676  0.4478  0.1939  1.2108
  600THY    HP614988   6.404   6.343   3.638 -1.2766  1.1441  0.1981
  600THY    HP714989   6.418   6.464   3.764  0.2071  0.5409 -1.2703
  600THY    CA314990   6.664   6.156   3.662  0.4618 -0.6097  0.2081
  600THY    HA314991   6.697   6.255   3.633 -1.4385  0.3676  1.2253
  600THY    CA414992   6.701   6.040   3.587 -0.4212 -0.1836  0.2899
  600THY    HA414993   6.777   6.055   3.511 -0.1024 -1.7712  0.2696
  600THY    CA514994   6.656   5.909   3.630  0.0619  0.0526  0.9506
  600THY    CM114995   6.698   5.777   3.581 -0.0744  0.0305 -0.2671
  600THY    HM114996   6.784   5.795   3.515 -0.3803  2.0568 -0.1681
  600THY    HM214997   6.700   5.705   3.664  1.1371  1.1442  0.7308
  600THY    HM314998   6.623   5.734   3.514  1.7003  1.4446 -3.3855
  600THY    CA614999   6.574   5.904   3.741 -0.1465 -0.1970 -0.6688
  600THY    HA615000   6.552   5.805   3.782 -0.3654  1.1882  2.9797
  601THY      O15001   3.521   3.040   1.853  0.0870 -0.5484  0.6360
  601THY     HO15002   3.442   2.991   1.882  0.6124 -2.3087 -0.6948
  601THY    CA115003   3.514   3.034   1.716  0.2406 -0.4596  0.0108
  601THY    CA215004   3.624   3.056   1.636 -0.0214  0.1850  0.1541
  601THY    CP115005   3.766   3.081   1.703 -0.5203  0.0396 -0.1090
  601THY    HP115006   3.778   3.010   1.785 -3.1442 -0.0050  0.3044
  601THY    CP215007   3.883   3.046   1.613 -0.9436 -0.2668 -0.1608
  601THY    HP215008   3.887   2.942   1.578  0.9092 -0.1109 -0.5383
  601THY    HP315009   3.886   3.110   1.524 -0.0446  0.5449  0.4383
  601THY    HP415010   3.975   3.072   1.666 -0.8746  2.1499 -1.3493
  601THY    CP315011   3.783   3.229   1.749  0.0606  0.3855 -0.1905
  601THY    HP515012   3.885   3.236   1.788 -0.1430  0.4375  0.3447
  601THY    HP615013   3.774   3.301   1.667 -0.6228  1.9343  1.2029
  601THY    HP715014   3.701   3.260   1.815  0.1547  1.4757 -0.5732
  601THY    CA315015   3.601   3.051   1.498  0.0401 -0.5758  0.6532
  601THY    HA315016   3.680   3.074   1.428  0.1919  2.8314  1.7791
  601THY    CA415017   3.471   3.016   1.441  0.5995 -0.0966 -0.6463
  601THY    HA415018   3.452   3.011   1.334  0.1251 -0.5185 -0.5465
  601THY    CA515019   3.368   2.991   1.526 -0.2489  0.0882 -0.2668
  601THY    CM115020   3.239   2.933   1.476 -0.1530 -0.5963  0.3939
  601THY    HM115021   3.223   2.958   1.370  0.4466 -0.1903  0.3890
  601THY    HM215022   3.234   2.824   1.479  0.1576 -0.6689 -0.8579
  601THY    HM315023   3.155   2.972   1.535 -0.2369 -1.2360  0.7028
  601THY    CA615024   3.389   3.007   1.663  0.7698 -0.0125 -0.2427
  601THY    HA615025   3.309   2.978   1.730 -2.3183  0.6359 -3.3193
  602THY      O15026   0.381   1.859   1.118  0.5935 -0.0565  0.2364
  602THY     HO15027   0.333   1.923   1.173  1.1648  1.5351 -1.0611
  602THY    CA115028   0.371   1.919   0.994  0.8629  0.4021  0.5667
  602THY    CA215029   0.460   1.892   0.888 -0.0942 -0.3884 -0.1026
  602THY    CP115030   0.579   1.794   0.906  0.7523 -0.3972 -0.2110
  602THY    HP115031   0.575   1.752   1.007 -4.6661  0.6912  0.3042
  602THY    CP215032   0.589   1.682   0.802  0.3618  0.5554 -0.2233
  602THY    HP215033   0.642   1.710   0.711 -1.5862  2.1909 -0.9380
  602THY    HP315034   0.641   1.597   0.848 -0.2913  0.6171  0.6738
  602THY    HP415035   0.487   1.658   0.769  0.6452 -0.6351 -0.2901
  602THY    CP315036   0.711   1.873   0.897 -0.5105  1.0486 -0.1382
  602THY    HP515037   0.801   1.811   0.896 -0.1546  1.4804 -2.3936
  602THY    HP615038   0.721   1.917   0.797  1.5206  0.0843 -0.4038
  602THY    HP715039   0.718   1.957   0.967  0.5926 -0.3917  1.5386
  602THY    CA315040   0.437   1.954   0.766  0.3625 -0.1913  0.5741
  602THY    HA315041   0.504   1.922   0.687 -0.4743 -3.5298  1.0706
  602THY    CA415042   0.341   2.057   0.758  0.3370 -0.0727 -0.2050
  602THY    HA415043   0.337   2.117   0.667 -0.1141 -0.8324 -0.6972
  602THY    CA515044   0.258   2.091   0.862 -1.3658  0.0446 -0.3386
  602THY    CM115045   0.160   2.207   0.855 -0.2482 -0.5330  0.1027
  602THY    HM115046   0.189   2.296   0.797  0.9615  0.2923  1.9014
  602THY    HM215047   0.056   2.184   0.827 -0.1913  0.0964 -0.6659
  602THY    HM315048   0.153   2.244   0.958 -0.0921 -0.6283  0.1465
  602THY    CA615049   0.268   2.012   0.987 -0.4455 -0.2183 -0.0314
  602THY    HA615050   0.199   2.024   1.069  0.5280  0.3985  0.7108
  603THY      O15051   5.518   6.888   6.473  0.0696  0.2778 -0.1481
  603THY     HO15052   5.452   6.842   6.527  0.8144  0.3965  0.8875
  603THY    CA115053   5.585   6.972   6.559 -0.0866  0.3760 -0.1026
  603THY    CA215054   5.698   7.042   6.525 -0.0892 -0.1643 -0.4383
  603THY    CP115055   5.753   7.044   6.382 -0.0196 -0.4746 -0.5107
  603THY    HP115056   5.700   6.968   6.324 -0.1356 -0.4934 -0.3780
  603THY    CP215057   5.728   7.185   6.314 -0.0738  0.2520 -0.3244
  603THY    HP215058   5.626   7.220   6.330 -0.2625  0.0815 -1.1177
  603THY    HP315059   5.812   7.255   6.329  2.5957 -2.6232 -0.7799
  603THY    HP415060   5.732   7.154   6.209 -2.5109  0.0333 -0.3951
  603THY    CP315061   5.903   7.007   6.381 -0.7040 -0.0599  0.2391
  603THY    HP515062   5.966   7.084   6.427  0.3750 -0.3926 -0.6414
  603THY    HP615063   5.925   6.915   6.435 -2.0776 -0.2510  0.5119
  603THY    HP715064   5.929   6.997   6.275  0.4103 -0.0643  0.5012
  603THY    CA315065   5.747   7.123   6.621 -0.9081  0.3563 -0.5647
  603THY    HA315066   5.833   7.187   6.604  0.3908 -0.9725  0.8164
  603THY    CA415067   5.702   7.126   6.751  0.1300 -0.1620  0.1072
  603THY    HA415068   5.752   7.195   6.818 -0.3988 -0.4931  0.8517
  603THY    CA515069   5.592   7.062   6.787 -0.2881  0.7580  0.7731
  603THY    CM115070   5.554   7.045   6.935  0.2951 -0.6571 -0.5566
  603THY    HM115071   5.631   7.078   7.006  0.2079  2.7494 -1.8328
  603THY    HM215072   5.467   7.106   6.960  1.0998  0.6361 -0.7907
  603THY    HM315073   5.535   6.940   6.960  1.2855 -0.6016  0.5109
  603THY    CA615074   5.525   6.981   6.687 -0.1131 -0.2503  0.5557
  603THY    HA615075   5.442   6.919   6.719  0.4268 -1.4662 -0.3149
  604THY      O15076   4.145   1.744   4.857  0.6744  0.2296 -0.1677
  604THY     HO15077   4.115   1.657   4.827  3.1296  0.0058 -2.3617
  604THY    CA115078   4.266   1.715   4.920  0.2019 -0.4085  0.3849
  604THY    CA215079   4.370   1.809   4.929  0.8553  0.7961 -0.4011
  604THY    CP115080   4.352   1.948   4.858 -0.6620 -0.5802 -0.2774
  604THY    HP115081   4.244   1.960   4.841 -0.5943 -0.5491 -0.6919
  604THY    CP215082   4.392   2.063   4.959  0.0411 -0.2971  0.6003
  604THY    HP215083   4.498   2.052   4.983  0.2605 -0.1764 -0.2962
  604THY    HP315084   4.383   2.161   4.912 -0.8378 -0.3550  0.6204
  604THY    HP415085   4.330   2.064   5.049  1.2085  1.9624  1.4475
  604THY    CP315086   4.434   1.970   4.727 -0.3678  0.1416 -0.7440
  604THY    HP515087   4.427   2.076   4.698 -1.5084  0.7639  1.5687
  604THY    HP615088   4.536   1.940   4.755 -1.1988 -1.7275  0.4725
  604THY    HP715089   4.392   1.898   4.656 -2.3339 -1.8194  2.2205
  604THY    CA315090   4.495   1.780   4.990 -0.4508 -0.0465 -0.4673
  604THY    HA315091   4.577   1.848   5.011  0.2671 -0.9790 -0.2043
  604THY    CA415092   4.496   1.659   5.057  0.1248  0.2825  0.0062
  604THY    HA415093   4.584   1.630   5.114 -0.2536  0.0382  0.4681
  604THY    CA515094   4.393   1.561   5.044 -0.3869  0.0509 -0.0630
  604THY    CM115095   4.417   1.422   5.101 -0.8345  0.2915  0.0129
  604THY    HM115096   4.481   1.428   5.190 -1.3231 -0.9841  0.4845
  604THY    HM215097   4.333   1.362   5.139 -0.8920 -0.4486 -1.2344
  604THY    HM315098   4.470   1.351   5.037  0.2000 -0.3180  1.4844
  604THY    CA615099   4.286   1.589   4.959  1.1540 -0.2723 -0.5549
  604THY    HA615100   4.218   1.505   4.945 -0.6624  0.7553  1.4572
  605THY      O15101   8.790   2.127   6.654 -0.0671 -0.0151 -0.1770
  605THY     HO15102   8.721   2.068   6.688 -0.8340  1.1495  0.3554
  605THY    CA115103   8.743   2.166   6.530  0.7191  0.5190 -0.6041
  605THY    CA215104   8.822   2.177   6.412 -0.1714 -0.0467 -0.0067
  605THY    CP115105   8.976   2.150   6.424  0.0550 -0.1331 -0.0562
  605THY    HP115106   9.001   2.166   6.529  0.0292  1.0521 -0.2220
  605THY    CP215107   9.002   2.005   6.384 -0.6826  0.0331 -0.4377
  605THY    HP215108   8.946   1.937   6.449 -1.0092 -0.5888 -1.3481
  605THY    HP315109   8.970   1.983   6.282  0.3056 -1.6000 -0.4176
  605THY    HP415110   9.106   1.978   6.407 -1.5669 -0.3447  3.8590
  605THY    CP315111   9.055   2.258   6.353  0.6605  0.1468 -0.1742
  605THY    HP515112   9.161   2.236   6.364  0.7023  0.7816  0.7873
  605THY    HP615113   9.035   2.254   6.245 -2.2696 -1.8195  0.3253
  605THY    HP715114   9.039   2.352   6.407  0.9390  0.2503 -0.2707
  605THY    CA315115   8.761   2.209   6.286  0.0972  0.5019 -0.0011
  605THY    HA315116   8.819   2.210   6.194  0.3324  0.1716  0.1428
  605THY    CA415117   8.619   2.226   6.288 -0.3603  0.2651 -0.4677
  605THY    HA415118   8.564   2.239   6.196 -1.4676  1.2508  0.2960
  605THY    CA515119   8.545   2.223   6.406 -0.2501  0.5572 -0.2490
  605THY    CM115120   8.398   2.236   6.405  0.4441 -0.0054 -0.8666
  605THY    HM115121   8.348   2.138   6.409  1.2114 -0.4021 -0.5420
  605THY    HM215122   8.362   2.290   6.494  0.4787 -0.3676 -0.6289
  605THY    HM315123   8.368   2.295   6.318 -0.4044  1.0908  0.1305
  605THY    CA615124   8.606   2.194   6.522  0.1261 -0.1069 -0.7191
  605THY    HA615125   8.545   2.184   6.611 -0.6962  1.7477 -1.0240
  606THY      O15126   0.526   2.863   3.211 -0.1204  0.0054 -0.5712
  606THY     HO15127   0.476   2.937   3.171 -0.4511 -1.1997 -2.5546
  606THY    CA115128   0.437   2.782   3.269 -0.1361  0.3758  0.3796
  606THY    CA215129   0.440   2.641   3.256  0.3854  0.9692  0.4540
  606THY    CP115130   0.539   2.571   3.162 -0.4879 -0.4436  0.2672
  606THY    HP115131   0.588   2.642   3.095  1.7534 -1.7707  0.3777
  606THY    CP215132   0.647   2.499   3.247  0.7515 -0.3915  0.5719
  606THY    HP215133   0.700   2.565   3.317  0.7134  1.0522 -0.7107
  606THY    HP315134   0.602   2.409   3.290  0.3027  0.5033  2.0873
  606THY    HP415135   0.730   2.465   3.185  0.5037  1.4691 -0.8707
  606THY    CP315136   0.472   2.472   3.069  0.0637  0.0177  0.0258
  606THY    HP515137   0.427   2.521   2.982  1.0296  0.9125  0.0094
  606THY    HP615138   0.554   2.422   3.015  0.7250  1.4318 -0.3203
  606THY    HP715139   0.411   2.400   3.124 -0.4789 -0.4428 -1.1330
  606THY    CA315140   0.351   2.563   3.327  0.6217 -0.1540 -0.0181
  606THY    HA315141   0.363   2.455   3.328 -0.3780 -0.2735  1.1190
  606THY    CA415142   0.247   2.621   3.398  0.1899 -0.9181  0.2569
  606THY    HA415143   0.170   2.566   3.453 -1.6746  0.9271 -0.3647
  606THY    CA515144   0.237   2.762   3.396  1.2088  0.0532  0.2975
  606THY    CM115145   0.114   2.829   3.464  0.4725  0.4343 -0.1423
  606THY    HM115146   0.141   2.869   3.562 -0.0162 -0.0232  0.1813
  606THY    HM215147   0.070   2.911   3.407  0.1777 -0.3294 -1.0422
  606THY    HM315148   0.031   2.759   3.480 -0.9157  1.9183 -0.5825
  606THY    CA615149   0.329   2.839   3.338 -0.1174  0.2346 -0.6095
  606THY    HA615150   0.317   2.947   3.347 -1.5167  0.0227  0.4164
  607THY      O15151   0.280   3.866   0.793  0.9170  0.4914  0.5581
  607THY     HO15152   0.224   3.804   0.744  0.2332  0.5929  1.1949
  607THY    CA115153   0.281   3.828   0.917  0.2591 -0.3903  0.9481
  607THY    CA215154   0.381   3.877   1.009  1.3301  0.1371 -0.0214
  607THY    CP115155   0.478   3.986   0.954  1.2635  0.5971  0.1413
  607THY    HP115156   0.437   4.044   0.870 -1.6098  1.5088  2.0387
  607THY    CP215157   0.493   4.101   1.053 -0.9449 -0.9000 -0.1885
  607THY    HP215158   0.401   4.159   1.062 -1.0159 -0.7032 -1.8696
  607THY    HP315159   0.517   4.052   1.148  2.8673 -1.3015 -1.1791
  607THY    HP415160   0.574   4.171   1.031  0.0639 -2.3642 -1.3362
  607THY    CP315161   0.615   3.924   0.928  0.1778 -0.4603  0.2066
  607THY    HP515162   0.603   3.835   0.864 -1.6655 -0.7991  0.9576
  607THY    HP615163   0.675   3.990   0.864 -0.8534  1.7758  1.4374
  607THY    HP715164   0.655   3.892   1.024  0.5889 -0.4943  0.0254
  607THY    CA315165   0.386   3.821   1.136  0.1887 -0.7948  0.3495
  607THY    HA315166   0.455   3.861   1.210 -1.6845  0.6701  1.4160
  607THY    CA415167   0.278   3.739   1.179 -0.0319 -0.6715 -0.4394
  607THY    HA415168   0.276   3.701   1.280  0.3137  0.6676  0.0795
  607THY    CA515169   0.178   3.700   1.092  0.0040 -0.1389 -0.3346
  607THY    CM115170   0.068   3.615   1.134  0.0112  0.4165  0.3232
  607THY    HM115171   0.058   3.583   1.239 -0.2842  1.1551  0.5272
  607THY    HM215172  -0.031   3.649   1.101 -0.8304 -1.1941  1.0414
  607THY    HM315173   0.071   3.516   1.087  0.6475  0.7291 -0.3005
  607THY    CA615174   0.187   3.732   0.956 -0.5001 -0.5331  0.3422
  607THY    HA615175   0.113   3.696   0.885  0.1699  0.1923 -0.7781
  608THY      O15176   2.981   4.242   2.122  0.1825 -0.1344 -0.3344
  608THY     HO15177   2.994   4.323   2.070  0.9156 -0.8764 -1.3591
  608THY    CA115178   3.054   4.259   2.240  0.9456  0.5357  0.5023
  608THY    CA215179   3.020   4.175   2.344 -0.1772  0.0646 -0.8893
  608THY    CP115180   2.922   4.062   2.333 -0.0166  0.4594  0.0224
  608THY    HP115181   2.933   4.012   2.236 -1.4559 -1.9513  1.0166
  608THY    CP215182   2.937   3.953   2.439 -0.6904  0.3594  0.3035
  608THY    HP215183   3.036   3.908   2.458 -1.7533 -2.2600  0.0581
  608THY    HP315184   2.899   4.005   2.527  0.2756  1.5133  0.0565
  608THY    HP415185   2.861   3.876   2.422 -0.0521 -0.0530 -0.7765
  608THY    CP315186   2.778   4.105   2.338  0.1716 -0.2815  0.3495
  608THY    HP515187   2.739   4.127   2.438  1.8140  1.7736  0.5955
  608THY    HP615188   2.761   4.203   2.291  0.7272  0.6236  1.9666
  608THY    HP715189   2.719   4.025   2.291  1.4960 -0.3340 -1.3018
  608THY    CA315190   3.093   4.199   2.465 -0.3790  0.4797  0.3187
  608THY    HA315191   3.081   4.143   2.557  0.3659 -2.5455 -1.2785
  608THY    CA415192   3.190   4.306   2.469 -0.4202  0.0950  0.8027
  608THY    HA415193   3.235   4.336   2.564  0.2270  0.6340  0.3392
  608THY    CA515194   3.202   4.391   2.361  0.5763  0.9692  0.6481
  608THY    CM115195   3.282   4.515   2.370  0.2412 -0.8557 -0.1485
  608THY    HM115196   3.282   4.565   2.468  1.2368  0.4195 -0.7724
  608THY    HM215197   3.385   4.478   2.364 -0.3271 -2.3845 -1.0852
  608THY    HM315198   3.254   4.592   2.297  0.0838 -0.4405  0.3326
  608THY    CA615199   3.146   4.358   2.242  0.8233  0.4273  0.2228
  608THY    HA615200   3.164   4.430   2.163  1.2412  2.5961  2.1838
  609THY      O15201   3.315   4.334   4.295  0.0682 -0.7070  0.5531
  609THY     HO15202   3.329   4.259   4.236  3.8920 -0.2084  0.6270
  609THY    CA115203   3.372   4.437   4.232  0.1680 -0.4496  0.3459
  609THY    CA215204   3.374   4.567   4.297 -0.3509  0.0720 -0.0521
  609THY    CP115205   3.315   4.579   4.438  0.3323 -0.1224 -0.5786
  609THY    HP115206   3.281   4.483   4.479  0.5591 -0.0754 -0.2798
  609THY    CP215207   3.423   4.630   4.541 -0.1099  0.6826  0.1318
  609THY    HP215208   3.476   4.713   4.494 -1.9148  1.3900 -0.7755
  609THY    HP315209   3.387   4.660   4.640  0.2412 -0.2126  0.5359
  609THY    HP415210   3.494   4.549   4.564  0.0415  0.9467  0.6010
  609THY    CP315211   3.197   4.680   4.425 -0.4719  0.2513 -0.1072
  609THY    HP515212   3.235   4.771   4.378  0.4417 -1.8706 -3.8928
  609THY    HP615213   3.107   4.634   4.384  0.7326  0.1902 -2.8964
  609THY    HP715214   3.172   4.704   4.530  0.2709 -0.2925  0.2019
  609THY    CA315215   3.450   4.666   4.228  0.2304 -0.1040 -0.2584
  609THY    HA315216   3.455   4.762   4.279 -0.3721 -0.7819  1.1350
  609THY    CA415217   3.501   4.645   4.104 -0.5261 -0.2406  0.3591
  609THY    HA415218   3.553   4.725   4.052  1.7456 -1.6710  0.2946
  609THY    CA515219   3.496   4.518   4.044 -0.2238 -0.0823  0.6756
  609THY    CM115220   3.554   4.493   3.905  0.0962 -0.2403 -0.6803
  609THY    HM115221   3.479   4.465   3.831 -0.8677 -1.1538  0.6005
  609THY    HM215222   3.606   4.580   3.862 -0.6732  1.0594  0.8949
  609THY    HM315223   3.627   4.411   3.904 -0.7997 -1.0922 -3.2486
  609THY    CA615224   3.436   4.414   4.114  0.0225 -0.8586  0.4508
  609THY    HA615225   3.436   4.317   4.067 -1.9841 -0.5386 -0.3075
  610THY      O15226   6.464   9.086   4.242 -0.1421  0.3683 -0.9848
  610THY     HO15227   6.517   9.163   4.268 -1.1811  2.2054 -3.8497
  610THY    CA115228   6.370   9.055   4.336  0.3199  0.0702 -0.0108
  610THY    CA215229   6.235   9.031   4.301 -0.1310 -0.1552  0.2105
  610THY    CP115230   6.194   9.037   4.147 -0.3024 -0.3902 -0.5698
  610THY    HP115231   6.284   9.022   4.087  0.1749  0.4548 -0.0897
  610THY    CP215232   6.087   8.933   4.110  0.4291  0.4299  0.4887
  610THY    HP215233   6.000   8.917   4.174 -0.3907 -3.4854 -1.3302
  610THY    HP315234   6.047   8.951   4.010 -1.1688 -1.9540  0.6421
  610THY    HP415235   6.130   8.833   4.120 -0.6923  0.1441  3.7732
  610THY    CP315236   6.134   9.180   4.113  0.1181  0.2033  0.6820
  610THY    HP515237   6.047   9.210   4.172 -0.3679 -0.5887  0.3806
  610THY    HP615238   6.219   9.250   4.113  3.0117 -2.9889  1.6377
  610THY    HP715239   6.102   9.192   4.009  1.4246  1.4566  0.3819
  610THY    CA315240   6.143   9.001   4.403  0.4997  0.7631 -0.0609
  610THY    HA315241   6.037   8.985   4.384  0.3642  0.5683  0.8131
  610THY    CA415242   6.189   8.994   4.540 -0.6682 -0.1604 -0.2534
  610THY    HA415243   6.130   8.964   4.626 -1.3882 -0.2354 -0.7599
  610THY    CA515244   6.323   9.028   4.571  0.3601 -0.3886  0.4220
  610THY    CM115245   6.387   9.024   4.710  0.1346  0.4472 -0.4021
  610THY    HM115246   6.476   9.088   4.704 -0.9394  1.9242 -1.5805
  610THY    HM215247   6.309   9.060   4.779  0.2473 -1.0202  0.5386
  610THY    HM315248   6.413   8.922   4.740  1.5385  0.6417 -0.8906
  610THY    CA615249   6.410   9.056   4.467  0.3536  0.3214 -0.2810
  610THY    HA615250   6.517   9.062   4.485  0.3189 -1.9327  1.0296
  611THY      O15251   3.239   7.964   1.008  0.3418  0.0581 -0.3142
  611THY     HO15252   3.233   8.059   1.032  0.9640 -0.1008  0.5290
  611THY    CA115253   3.131   7.898   1.068 -0.7958  0.5489 -0.2206
  611THY    CA215254   3.054   7.799   1.000 -0.7028 -0.6853  0.2750
  611THY    CP115255   3.108   7.731   0.871  0.0282 -0.1426  0.0297
  611THY    HP115256   3.183   7.802   0.831  0.7174 -2.4410 -3.1337
  611THY    CP215257   3.172   7.588   0.878  0.6737 -0.1176  0.3299
  611THY    HP215258   3.233   7.571   0.788 -0.8444  0.8690 -0.9579
  611THY    HP315259   3.236   7.577   0.966  0.3630  0.3027  0.6146
  611THY    HP415260   3.096   7.509   0.887  0.4801 -0.5918 -3.5336
  611THY    CP315261   3.005   7.735   0.762  0.2492 -0.4427  0.7899
  611THY    HP515262   2.912   7.677   0.758 -0.5999  0.8638  0.8501
  611THY    HP615263   2.952   7.830   0.749 -2.5997 -1.9795  0.1362
  611THY    HP715264   3.060   7.712   0.670 -1.1450  0.4439 -0.3001
  611THY    CA315265   2.934   7.749   1.057 -0.0015 -0.3373 -0.3858
  611THY    HA315266   2.864   7.678   1.014 -1.6200  0.7441  0.3701
  611THY    CA415267   2.903   7.797   1.186  0.2927  0.6082  0.2192
  611THY    HA415268   2.806   7.763   1.222  0.7436 -2.8355 -1.4442
  611THY    CA515269   2.969   7.905   1.244  0.4061  0.1578  0.0932
  611THY    CM115270   2.925   7.967   1.367  0.0964 -0.3684 -0.2167
  611THY    HM115271   2.829   7.925   1.398 -0.5693  0.3293 -1.2988
  611THY    HM215272   3.003   7.959   1.444  0.2397 -1.2613 -0.4367
  611THY    HM315273   2.907   8.072   1.342  1.5098 -0.5875 -2.4349
  611THY    CA615274   3.082   7.953   1.185 -0.8136  0.1327 -0.0817
  611THY    HA615275   3.130   8.044   1.220  0.0648  0.3069 -1.6459
  612THY      O15276   1.585   5.527   3.088  0.3281  0.1871  0.0703
  612THY     HO15277   1.667   5.538   3.140 -0.0686 -0.2438  0.7941
  612THY    CA115278   1.603   5.448   2.979 -0.0055 -0.1100  0.3566
  612THY    CA215279   1.552   5.487   2.854 -0.7079 -0.6032  0.0405
  612THY    CP115280   1.461   5.609   2.826 -0.6956  0.1606 -0.3992
  612THY    HP115281   1.506   5.693   2.880  1.1911 -0.8289 -0.3450
  612THY    CP215282   1.472   5.664   2.682 -0.1020  0.2361 -0.3920
  612THY    HP215283   1.579   5.681   2.665  0.2815  0.4454  1.8572
  612THY    HP315284   1.444   5.575   2.623  2.0993 -3.3247  3.3883
  612THY    HP415285   1.401   5.745   2.666  1.4224  2.0185  1.3535
  612THY    CP315286   1.321   5.573   2.870  0.2205 -0.1846 -0.4135
  612THY    HP515287   1.324   5.570   2.980  0.7877 -0.3742 -0.4335
  612THY    HP615288   1.240   5.644   2.849 -1.0365 -1.2672  0.6358
  612THY    HP715289   1.290   5.472   2.844 -0.0953 -0.2133  0.0618
  612THY    CA315290   1.584   5.391   2.747 -0.1744 -0.2520  0.3639
  612THY    HA315291   1.533   5.405   2.652  1.6637 -0.4782 -0.6940
  612THY    CA415292   1.675   5.291   2.758 -0.5129 -0.9152  0.2578
  612THY    HA415293   1.700   5.230   2.671  1.6959  1.0390 -0.5821
  612THY    CA515294   1.733   5.270   2.878 -0.3305 -0.0378 -0.1889
  612THY    CM115295   1.848   5.171   2.882  0.3382  0.4550 -0.0651
  612THY    HM115296   1.930   5.203   2.816 -0.0981  2.6228  0.3461
  612THY    HM215297   1.893   5.175   2.982  1.0091 -0.3561 -0.3243
  612THY    HM315298   1.823   5.071   2.845  1.2156  0.5080 -0.8486
  612THY    CA615299   1.694   5.348   2.991  0.2526 -0.1085  1.0267
  612THY    HA615300   1.737   5.330   3.090  2.0280  0.1211  0.3469
  613THY      O15301   2.356   1.078   6.703 -0.0500  0.6017 -0.0286
  613THY     HO15302   2.275   1.103   6.653 -0.1728 -1.6576 -1.0846
  613THY    CA115303   2.337   0.955   6.756  0.5000  0.6900  0.2849
  613THY    CA215304   2.429   0.897   6.850 -0.4163 -0.0522 -0.3715
  613THY    CP115305   2.564   0.961   6.891  0.4128  0.0667 -1.0775
  613THY    HP115306   2.559   1.065   6.857 -0.8779  0.6664  0.7854
  613THY    CP215307   2.593   0.972   7.039 -0.5808  0.0970 -0.0870
  613THY    HP215308   2.619   0.879   7.091 -2.4558  0.3865  1.4786
  613THY    HP315309   2.686   1.029   7.048 -0.9447  0.7183 -0.2437
  613THY    HP415310   2.518   1.025   7.099 -1.4042  1.7055 -2.4108
  613THY    CP315311   2.673   0.891   6.816  0.4205  0.1126  0.0706
  613THY    HP515312   2.757   0.959   6.795  0.6205 -0.8715 -2.7303
  613THY    HP615313   2.699   0.794   6.859  0.7230 -1.9975 -4.3792
  613THY    HP715314   2.640   0.870   6.714  2.1647  0.0761 -0.5207
  613THY    CA315315   2.392   0.778   6.918  0.0659 -0.2592 -0.2899
  613THY    HA315316   2.461   0.727   6.984  1.2000  1.1635 -0.3351
  613THY    CA415317   2.271   0.710   6.875  0.0413  0.3530  0.4803
  613THY    HA415318   2.239   0.616   6.919  1.8886 -0.6722 -0.2794
  613THY    CA515319   2.190   0.768   6.771 -0.3486  0.7372 -0.3840
  613THY    CM115320   2.079   0.683   6.717  0.1733  0.0956  0.4925
  613THY    HM115321   1.985   0.736   6.698 -0.0438 -0.7796 -1.0517
  613THY    HM215322   2.099   0.638   6.619 -2.0737  0.3785 -0.1597
  613THY    HM315323   2.059   0.593   6.777  2.3690  0.1456  1.4194
  613THY    CA615324   2.223   0.891   6.708 -0.3299 -0.2187 -0.8142
  613THY    HA615325   2.161   0.936   6.631 -0.3673  1.3012  0.0581
  614THY      O15326   9.204   3.611   0.609  0.0966  0.3999 -0.0115
  614THY     HO15327   9.167   3.620   0.519  0.2010  0.3329 -0.0613
  614THY    CA115328   9.097   3.631   0.690 -0.0639 -0.0764 -0.0967
  614THY    CA215329   9.100   3.643   0.824 -0.0988 -0.0990 -0.0643
  614THY    CP115330   9.234   3.660   0.888  0.4943 -0.1300  0.3509
  614THY    HP115331   9.303   3.715   0.823  0.6188 -0.0170  0.5761
  614THY    CP215332   9.224   3.751   1.000  0.2956 -0.1512 -0.7956
  614THY    HP215333   9.157   3.837   0.993  0.0581 -0.4124 -1.8173
  614THY    HP315334   9.189   3.697   1.089 -1.9420  2.7964  0.2578
  614THY    HP415335   9.321   3.792   1.030  0.5477 -1.9835  1.1649
  614THY    CP315336   9.289   3.523   0.928  0.8190 -0.2061 -0.1789
  614THY    HP515337   9.325   3.462   0.844  0.7601 -0.9817  0.3534
  614THY    HP615338   9.367   3.540   1.003 -0.7931 -0.1127  1.5560
  614THY    HP715339   9.212   3.473   0.987  0.0917 -0.7296 -1.5195
  614THY    CA315340   8.977   3.649   0.897  0.1189  0.2934 -0.4945
  614THY    HA315341   8.978   3.667   1.004 -1.2008  1.0629 -0.5880
  614THY    CA415342   8.855   3.626   0.834  0.0835 -0.0641  0.1870
  614THY    HA415343   8.754   3.622   0.875  0.0394 -1.9404 -0.0324
  614THY    CA515344   8.857   3.609   0.696  0.2985 -0.1292 -0.1567
  614THY    CM115345   8.736   3.611   0.620  0.3014 -0.2841  0.7090
  614THY    HM115346   8.654   3.662   0.673  0.3387  1.0329 -0.4577
  614THY    HM215347   8.742   3.675   0.531 -2.1426  2.7412  2.5155
  614THY    HM315348   8.694   3.511   0.599  0.4479 -0.5938  1.8447
  614THY    CA615349   8.978   3.625   0.623 -0.0453 -0.3166 -0.0909
  614THY    HA615350   8.974   3.629   0.514 -0.6920  0.6334 -0.0464
  615THY      O15351   0.728   3.851   1.444 -0.2180 -0.5852  0.0928
  615THY     HO15352   0.725   3.774   1.385  1.4809  0.9834 -2.2693
  615THY    CA115353   0.791   3.930   1.368  0.2559 -0.4063  0.3935
  615THY    CA215354   0.823   4.065   1.403 -0.0637  0.5238 -0.1501
  615THY    CP115355   0.780   4.118   1.536 -0.5220  0.3811  0.5005
  615THY    HP115356   0.812   4.040   1.605  1.7463  3.8403  3.7599
  615THY    CP215357   0.872   4.240   1.587 -0.2432 -0.0728  0.6161
  615THY    HP215358   0.841   4.333   1.539  1.8670  0.5697  0.4055
  615THY    HP315359   0.866   4.251   1.696 -0.0712  1.7036  0.4786
  615THY    HP415360   0.979   4.222   1.567 -0.3315 -1.2164  1.0977
  615THY    CP315361   0.628   4.162   1.544  0.3940 -0.3584  0.0032
  615THY    HP515362   0.554   4.082   1.538 -1.0559  0.8523  0.8911
  615THY    HP615363   0.609   4.204   1.644 -1.0754 -0.9323 -0.0216
  615THY    HP715364   0.598   4.240   1.474 -3.4337 -2.7613 -1.3273
  615THY    CA315365   0.916   4.140   1.323  0.2173 -0.2342 -0.1228
  615THY    HA315366   0.949   4.240   1.348  2.5495 -1.0891  0.4692
  615THY    CA415367   0.959   4.075   1.212 -0.2275  0.2575 -0.5757
  615THY    HA415368   1.034   4.122   1.148  1.3487 -2.2804 -0.7351
  615THY    CA515369   0.915   3.945   1.176 -0.4000 -0.4963  0.2848
  615THY    CM115370   0.949   3.891   1.040  0.0769  0.8726  0.4860
  615THY    HM115371   0.894   3.798   1.021 -1.1021  1.5014  0.6830
  615THY    HM215372   0.906   3.970   0.977 -0.8419  0.8174  1.0180
  615THY    HM315373   1.058   3.881   1.032 -0.1794 -0.6784 -2.1302
  615THY    CA615374   0.833   3.872   1.249 -0.5324  0.6859 -0.1914
  615THY    HA615375   0.816   3.770   1.216  0.8176  0.6477 -0.8167
  616THY      O15376   5.862   9.786   3.763  0.4107  0.0715 -0.1271
  616THY     HO15377   5.884   9.740   3.846  1.1266  0.6257  0.0010
  616THY    CA115378   5.790   9.889   3.814  0.5314  0.5284  0.1936
  616THY    CA215379   5.743   9.999   3.739  0.3651 -0.9053  1.3222
  616THY    CP115380   5.769  10.002   3.585  0.5518  0.0911 -0.4483
  616THY    HP115381   5.780   9.905   3.535 -0.9207  0.1301 -0.8924
  616THY    CP215382   5.659  10.086   3.506 -0.2067 -0.1868 -0.1117
  616THY    HP215383   5.564  10.032   3.516  0.5607 -1.3666  1.3294
  616THY    HP315384   5.635  10.187   3.541  1.6651  0.1246  0.3883
  616THY    HP415385   5.694  10.095   3.403 -1.9187  1.6721 -0.5887
  616THY    CP315386   5.901  10.078   3.564  0.2595  0.0950  0.4844
  616THY    HP515387   5.987  10.026   3.607 -0.5467 -0.6940  1.1583
  616THY    HP615388   5.923  10.081   3.456 -0.2308 -0.7874  0.3558
  616THY    HP715389   5.906  10.180   3.606  1.0631  0.4650 -0.4563
  616THY    CA315390   5.671  10.105   3.801 -0.7614 -0.5677 -0.4698
  616THY    HA315391   5.646  10.199   3.751  0.7513  0.5942  0.8247
  616THY    CA415392   5.668  10.106   3.942  0.2549  0.0582 -0.7099
  616THY    HA415393   5.630  10.196   3.991 -0.0609  0.3672 -1.4994
  616THY    CA515394   5.706   9.990   4.011  0.9016 -0.1690 -0.5880
  616THY    CM115395   5.697   9.981   4.167  0.0990  0.4813 -0.4787
  616THY    HM115396   5.684  10.081   4.211 -0.0200  0.7081 -1.0222
  616THY    HM215397   5.616   9.912   4.194  0.2271  0.5877  0.2152
  616THY    HM315398   5.799   9.947   4.191 -0.5647  0.1620  2.1910
  616THY    CA615399   5.763   9.883   3.944  0.1500  0.0619 -0.8923
  616THY    HA615400   5.808   9.806   4.006  0.4601  0.8420 -0.1344
  617THY      O15401   5.917   0.875   6.218 -0.3814 -0.2293  0.2075
  617THY     HO15402   6.002   0.916   6.192  0.2348 -0.8003  1.2654
  617THY    CA115403   5.883   0.913   6.342 -0.3451 -1.5279 -0.3971
  617THY    CA215404   5.774   0.863   6.413 -0.0789 -0.0475  0.8310
  617THY    CP115405   5.670   0.774   6.341 -0.5569 -0.2138 -0.0418
  617THY    HP115406   5.727   0.714   6.269 -1.7204 -0.9995 -0.3312
  617THY    CP215407   5.600   0.672   6.428 -0.1877 -0.5653  0.5322
  617THY    HP215408   5.526   0.724   6.490 -0.5096 -3.1639  2.4616
  617THY    HP315409   5.558   0.598   6.359 -0.5982 -0.3366  0.5300
  617THY    HP415410   5.667   0.621   6.498  0.3205  0.2613  0.6691
  617THY    CP315411   5.565   0.864   6.271 -0.0612  0.2148 -0.0095
  617THY    HP515412   5.485   0.801   6.231 -0.5146  0.3439  0.6796
  617THY    HP615413   5.515   0.916   6.353  1.2639  0.5638  0.6101
  617THY    HP715414   5.605   0.947   6.211 -1.0423  0.3234 -0.5306
  617THY    CA315415   5.752   0.896   6.544 -0.0520 -0.0238  0.7326
  617THY    HA315416   5.667   0.858   6.599  0.9832 -0.3841  2.1441
  617THY    CA415417   5.841   0.985   6.606  0.8108  0.5072  0.6938
  617THY    HA415418   5.824   1.014   6.709 -0.4942 -1.2586  1.0209
  617THY    CA515419   5.936   1.050   6.533 -0.0564 -0.1208  0.0524
  617THY    CM115420   6.025   1.156   6.608  0.3209  0.1989  0.4752
  617THY    HM115421   5.966   1.191   6.693 -2.6398 -2.1623 -0.4216
  617THY    HM215422   6.106   1.085   6.631  0.3530 -1.0009 -2.8213
  617THY    HM315423   6.077   1.224   6.540 -0.6201  1.3580  0.8963
  617THY    CA615424   5.965   1.003   6.406  0.2128  0.0589  0.6035
  617THY    HA615425   6.053   1.049   6.362  0.1359 -1.5379 -1.3792
  618THY      O15426   9.139   6.186   2.238 -0.2162  0.7876  0.4793
  618THY     HO15427   9.224   6.143   2.259 -1.1036 -0.5079  1.6151
  618THY    CA115428   9.058   6.076   2.255 -0.3842 -0.6360 -0.2428
  618THY    CA215429   8.922   6.084   2.225 -0.3300  0.2694 -0.2055
  618THY    CP115430   8.860   6.202   2.150 -0.5175 -0.3995 -0.4234
  618THY    HP115431   8.919   6.292   2.173 -1.7920  0.2230  0.5752
  618THY    CP215432   8.868   6.168   1.999 -0.6504  0.0406 -0.9043
  618THY    HP215433   8.815   6.074   1.982 -0.3095 -1.1924  3.6829
  618THY    HP315434   8.832   6.249   1.934 -1.3678  0.7628  0.3410
  618THY    HP415435   8.974   6.147   1.980 -0.4485 -0.1577  0.3824
  618THY    CP315436   8.708   6.233   2.185 -0.6453  0.6464  0.5987
  618THY    HP515437   8.688   6.261   2.290 -0.6248 -0.9439  1.0441
  618THY    HP615438   8.671   6.307   2.113 -0.4775 -1.3070 -1.5871
  618THY    HP715439   8.641   6.150   2.162 -2.0235  1.6259  0.9668
  618THY    CA315440   8.843   5.970   2.257  0.3179  0.0951  0.4580
  618THY    HA315441   8.737   5.972   2.233  0.2543 -2.2382  0.3855
  618THY    CA415442   8.893   5.856   2.325 -0.0733 -0.2513 -0.8046
  618THY    HA415443   8.826   5.772   2.341 -3.3481  2.3834  0.4690
  618THY    CA515444   9.028   5.860   2.362  0.3033  0.0517  0.3398
  618THY    CM115445   9.083   5.740   2.427 -0.3680 -0.2247  0.5366
  618THY    HM115446   9.089   5.770   2.532 -0.2128  4.5536 -0.6139
  618THY    HM215447   9.017   5.653   2.425 -1.9936  0.9188  1.8351
  618THY    HM315448   9.180   5.707   2.388  0.9840  3.9726 -0.1936
  618THY    CA615449   9.115   5.964   2.326  0.1515  0.1462 -0.2386
  618THY    HA615450   9.218   5.970   2.360 -0.3718  0.9981  1.3224
  619THY      O15451   2.369   0.693   2.579 -0.2820  0.5229 -0.0762
  619THY     HO15452   2.459   0.654   2.575 -0.6422 -0.2511 -2.3569
  619THY    CA115453   2.299   0.587   2.607  0.2011  0.4690  0.3413
  619THY    CA215454   2.158   0.580   2.605  0.3154 -0.0367  0.4945
  619THY    CP115455   2.078   0.714   2.586 -0.1234 -0.0239  0.9899
  619THY    HP115456   2.134   0.772   2.512  0.0057  1.7413  2.3749
  619THY    CP215457   1.933   0.687   2.549 -0.8477 -0.4859 -0.2806
  619THY    HP215458   1.888   0.646   2.640  0.4432  2.1721  1.6885
  619THY    HP315459   1.881   0.777   2.515  0.0740 -0.1541 -0.8640
  619THY    HP415460   1.916   0.616   2.467 -2.2045 -1.7816  1.0506
  619THY    CP315461   2.096   0.792   2.718 -0.0087 -0.2506 -0.1508
  619THY    HP515462   2.014   0.861   2.737  0.7152  0.5931  0.0092
  619THY    HP615463   2.116   0.730   2.806  0.1323  0.1768  0.1234
  619THY    HP715464   2.179   0.863   2.705 -1.0341  1.1494  0.7381
  619THY    CA315465   2.088   0.463   2.644  0.6272  0.5827 -0.1188
  619THY    HA315466   1.980   0.463   2.654  0.4427  1.4027 -1.7067
  619THY    CA415467   2.155   0.347   2.657  0.1179 -0.4135 -0.4308
  619THY    HA415468   2.115   0.249   2.681  3.5241 -1.7690  0.2996
  619THY    CA515469   2.294   0.346   2.647  0.4990  0.2363  0.0911
  619THY    CM115470   2.382   0.218   2.670  0.2749  0.0087 -0.3808
  619THY    HM115471   2.355   0.135   2.603 -2.3610  0.1581  0.3590
  619THY    HM215472   2.490   0.234   2.661  0.2294 -0.2895 -1.5789
  619THY    HM315473   2.368   0.187   2.775  0.8676 -1.4838 -0.7112
  619THY    CA615474   2.363   0.470   2.625 -0.6086  0.8812 -0.0463
  619THY    HA615475   2.468   0.470   2.654 -0.8701 -0.8283  1.0558
  620THY      O15476   0.074   8.151   7.699 -0.1041 -0.6356  0.1573
  620THY     HO15477   0.159   8.183   7.733 -0.0781  1.6050 -1.7380
  620THY    CA115478   0.001   8.110   7.804 -0.1059 -0.1017  0.5884
  620THY    CA215479  -0.055   7.973   7.810  0.1147 -0.9366 -0.0553
  620THY    CP115480  -0.051   7.886   7.684 -0.2434 -0.3938  0.6243
  620THY    HP115481   0.044   7.906   7.634 -1.1046  0.4635 -0.7188
  620THY    CP215482  -0.054   7.736   7.716  0.5081 -0.5784 -0.2096
  620THY    HP215483   0.013   7.713   7.800  0.2505  0.0142  0.1670
  620THY    HP315484  -0.157   7.700   7.728 -0.6686  1.7072 -2.4561
  620THY    HP415485  -0.016   7.668   7.640 -0.0994  0.5816 -1.5962
  620THY    CP315486  -0.154   7.928   7.581 -0.2159  0.5899 -0.0947
  620THY    HP515487  -0.256   7.912   7.617  0.0009 -3.2501 -0.8059
  620THY    HP615488  -0.145   8.030   7.543  0.5441 -0.5036 -3.0972
  620THY    HP715489  -0.136   7.863   7.495 -0.7507 -1.0669  0.9816
  620THY    CA315490  -0.100   7.928   7.936  0.7344 -0.3127 -0.3431
  620THY    HA315491  -0.142   7.829   7.950  0.6340 -0.1482  0.5889
  620THY    CA415492  -0.084   8.003   8.047  0.3422  0.1638  0.0356
  620THY    HA415493  -0.115   7.953   8.138  0.5283 -0.9789 -0.5161
  620THY    CA515494  -0.034   8.131   8.041  0.1455  0.1801 -0.6518
  620THY    CM115495  -0.007   8.200   8.167 -0.0219  0.4364 -0.1842
  620THY    HM115496   0.095   8.192   8.207 -0.8725  2.6618  2.8117
  620THY    HM215497  -0.022   8.306   8.141 -2.9511  0.0782 -0.2363
  620THY    HM315498  -0.075   8.184   8.252  1.7748 -1.7702  0.9571
  620THY    CA615499   0.002   8.189   7.916 -0.4825  0.2476  0.2992
  620THY    HA615500   0.041   8.290   7.918  0.7885 -0.1822 -1.0176
  621THY      O15501   4.118   8.244   4.095  0.1928  0.2162 -0.6183
  621THY     HO15502   4.207   8.241   4.135 -0.1621  0.6132  0.2226
  621THY    CA115503   4.128   8.310   3.979 -0.1469 -1.1158  0.0162
  621THY    CA215504   4.032   8.397   3.925  0.0209 -0.4767 -0.0514
  621THY    CP115505   3.899   8.396   4.000  0.2431  0.6814  0.3761
  621THY    HP115506   3.916   8.389   4.108  1.7103 -3.1756  0.0437
  621THY    CP215507   3.817   8.527   3.967  0.3736  0.4122  0.1232
  621THY    HP215508   3.736   8.525   4.041  0.1118 -1.5999 -0.1694
  621THY    HP315509   3.872   8.621   3.974 -0.1804  0.7641 -0.1190
  621THY    HP415510   3.776   8.528   3.866  2.2042 -2.4147 -0.7798
  621THY    CP315511   3.817   8.278   3.965 -0.1383  0.8514  0.1805
  621THY    HP515512   3.790   8.264   3.860 -0.4746 -2.0234  0.5611
  621THY    HP615513   3.868   8.185   3.994  1.1969  0.8995 -1.8791
  621THY    HP715514   3.721   8.272   4.020  0.0530  1.1137  0.5485
  621THY    CA315515   4.057   8.475   3.804  0.2354 -0.4033  0.7138
  621THY    HA315516   3.981   8.539   3.761  0.3957  0.6637  1.9427
  621THY    CA415517   4.189   8.477   3.754 -0.1404  0.2933 -0.8029
  621THY    HA415518   4.216   8.535   3.666  2.0744  0.2689 -0.2011
  621THY    CA515519   4.287   8.395   3.812 -0.8155  0.3491 -0.4423
  621THY    CM115520   4.426   8.392   3.761 -0.2035 -0.3509  0.0568
  621THY    HM115521   4.440   8.488   3.710 -2.6343 -0.6516 -1.3196
  621THY    HM215522   4.500   8.392   3.842  0.0408  2.1505 -0.1101
  621THY    HM315523   4.440   8.307   3.692  1.4753  0.9042 -1.2448
  621THY    CA615524   4.255   8.315   3.925 -0.3004  1.0213 -0.1559
  621THY    HA615525   4.329   8.248   3.967 -1.4625 -0.1418  0.1071
  622THY      O15526   4.922   8.747   5.718 -0.4260 -0.7564 -0.1247
  622THY     HO15527   4.976   8.827   5.713 -1.0363 -0.1530  1.9848
  622THY    CA115528   4.938   8.683   5.601 -0.2783  0.4866  0.0768
  622THY    CA215529   4.824   8.637   5.531 -0.2067 -0.5818 -0.7366
  622THY    CP115530   4.679   8.662   5.584  0.0433 -0.5773 -0.2507
  622THY    HP115531   4.673   8.652   5.693 -1.2810 -0.2773 -0.2833
  622THY    CP215532   4.628   8.803   5.555  0.9816  0.5588  0.6604
  622THY    HP215533   4.527   8.809   5.599  0.2127 -0.0453 -0.9216
  622THY    HP315534   4.685   8.877   5.612  0.7094  0.7002  0.7493
  622THY    HP415535   4.624   8.824   5.448  1.5094 -1.0348  0.2953
  622THY    CP315536   4.583   8.564   5.532  0.4568 -0.6317 -0.1703
  622THY    HP515537   4.487   8.580   5.584  1.8417  0.8154  2.0825
  622THY    HP615538   4.577   8.593   5.426  1.7325  0.3530  0.0116
  622THY    HP715539   4.624   8.464   5.551 -0.5849 -0.6539  2.3942
  622THY    CA315540   4.846   8.570   5.414 -0.0780 -0.0046 -0.1095
  622THY    HA315541   4.767   8.513   5.365  1.3031 -2.7745  0.6845
  622THY    CA415542   4.979   8.544   5.370  0.3638  0.0762 -0.6364
  622THY    HA415543   4.994   8.479   5.284  1.3179  0.3807 -0.7116
  622THY    CA515544   5.091   8.589   5.437  0.5323  0.5061 -0.4575
  622THY    CM115545   5.232   8.548   5.396 -0.3844 -0.0423  0.1179
  622THY    HM115546   5.237   8.439   5.407 -1.2521 -0.2786 -1.5486
  622THY    HM215547   5.241   8.549   5.286  4.2024 -0.3617  0.3041
  622THY    HM315548   5.309   8.599   5.455 -1.0995  0.3042  0.7550
  622THY    CA615549   5.073   8.670   5.550 -1.2722  0.0485  0.5406
  622THY    HA615550   5.166   8.709   5.588 -0.9816 -1.8007  1.8554
  623THY      O15551   6.316   7.262   9.125  0.0644 -0.6257 -0.1354
  623THY     HO15552   6.409   7.235   9.125  1.0251  2.0385  2.9809
  623THY    CA115553   6.255   7.197   9.026 -0.3275  0.1004 -0.9298
  623THY    CA215554   6.161   7.248   8.936 -0.5229  0.1934 -1.2299
  623THY    CP115555   6.096   7.380   8.971  0.0836  0.0296 -0.4319
  623THY    HP115556   6.136   7.429   9.060  0.9876  0.7392 -1.2051
  623THY    CP215557   6.108   7.477   8.862 -0.3060 -0.2106 -0.4247
  623THY    HP215558   6.099   7.427   8.764 -1.1322  1.0110 -0.9993
  623THY    HP315559   6.049   7.569   8.873  2.0804  1.1397  2.4721
  623THY    HP415560   6.212   7.507   8.874 -0.3277 -0.8151  1.6900
  623THY    CP315561   5.946   7.351   9.003  0.0108  0.6769  0.5044
  623THY    HP515562   5.926   7.271   9.076 -1.5756  1.6437  1.1952
  623THY    HP615563   5.903   7.446   9.037  1.1912  1.2460  0.4636
  623THY    HP715564   5.894   7.321   8.911 -0.7705  0.1183  1.1196
  623THY    CA315565   6.100   7.174   8.837  0.1569  0.0954 -0.0714
  623THY    HA315566   6.030   7.225   8.772  1.0223  3.1475  1.2266
  623THY    CA415567   6.138   7.040   8.817  0.9899  0.4980 -0.0723
  623THY    HA415568   6.097   6.982   8.735  0.4565  0.0819  0.4825
  623THY    CA515569   6.242   6.989   8.896 -0.3123 -0.3422  0.1060
  623THY    CM115570   6.280   6.854   8.865 -0.8276  0.7657  0.4333
  623THY    HM115571   6.203   6.779   8.886  2.4422 -3.4600 -1.3430
  623THY    HM215572   6.299   6.845   8.758  0.9907  3.0775  0.4757
  623THY    HM315573   6.369   6.815   8.916  0.5585  0.2996 -2.1662
  623THY    CA615574   6.305   7.065   8.996 -0.1423 -0.2601  0.2926
  623THY    HA615575   6.390   7.020   9.047  1.3174  0.8077 -1.1002
  624THY      O15576   5.425   3.386   1.977 -0.7215  0.0412 -0.1059
  624THY     HO15577   5.516   3.390   1.942 -0.2543 -0.7024  0.9660
  624THY    CA115578   5.436   3.300   2.080 -0.4053  0.4297  0.3101
  624THY    CA215579   5.420   3.342   2.211  0.8073 -0.8491 -0.6524
  624THY    CP115580   5.382   3.487   2.250  0.3821  0.1048  0.1873
  624THY    HP115581   5.345   3.545   2.165  1.6923  1.2313  0.3444
  624THY    CP215582   5.257   3.486   2.339  0.2405  0.2405 -0.3117
  624THY    HP215583   5.170   3.440   2.289 -1.5204  0.7089  2.1568
  624THY    HP315584   5.278   3.434   2.433 -0.5168 -0.6858 -0.6376
  624THY    HP415585   5.224   3.585   2.372  0.6787  1.3696 -2.9722
  624THY    CP315586   5.487   3.568   2.314 -0.7557 -0.5782  0.3997
  624THY    HP515587   5.472   3.676   2.323 -2.8644 -0.7729 -0.2687
  624THY    HP615588   5.503   3.525   2.413 -1.4329  0.2579  0.8839
  624THY    HP715589   5.582   3.553   2.261 -0.9478  1.6800 -0.6953
  624THY    CA315590   5.428   3.244   2.310 -0.2149  0.8072 -0.0585
  624THY    HA315591   5.414   3.267   2.415 -3.1746 -2.4600  0.4636
  624THY    CA415592   5.437   3.108   2.274 -0.0491 -0.2528  0.7073
  624THY    HA415593   5.447   3.030   2.349 -0.1871 -1.0207 -0.0592
  624THY    CA515594   5.447   3.075   2.134  0.1780  0.2028  0.5986
  624THY    CM115595   5.478   2.936   2.086  0.4700 -0.3618 -0.0768
  624THY    HM115596   5.429   2.919   1.989 -3.1413  1.0735  1.3229
  624THY    HM215597   5.586   2.917   2.089  0.7187  0.9619  0.2137
  624THY    HM315598   5.421   2.875   2.157 -1.1998  0.4877 -0.6218
  624THY    CA615599   5.449   3.172   2.037  0.1537 -1.0665  0.4781
  624THY    HA615600   5.440   3.143   1.932  0.5432  2.3473 -0.5961
  625THY      O15601   1.814   6.768   6.082 -0.1779  0.3679  0.0934
  625THY     HO15602   1.835   6.690   6.028 -2.9087 -1.2178  1.0839
  625THY    CA115603   1.776   6.722   6.203 -1.0095  0.3210  1.1664
  625THY    CA215604   1.739   6.806   6.302 -0.3606 -0.3427 -0.2614
  625THY    CP115605   1.720   6.955   6.289 -0.6482 -0.8534  0.3452
  625THY    HP115606   1.761   6.981   6.191 -0.1221 -1.2107  0.4633
  625THY    CP215607   1.582   7.006   6.294 -0.0427  0.4985  0.3424
  625THY    HP215608   1.529   6.959   6.378 -0.2397  0.8233  0.4029
  625THY    HP315609   1.578   7.116   6.294 -0.1674  0.5265 -1.4347
  625THY    HP415610   1.528   6.964   6.208 -1.3151  2.1349  0.2795
  625THY    CP315611   1.821   7.030   6.382  0.2215  0.1506  0.2854
  625THY    HP515612   1.844   7.132   6.350  0.3256 -0.6873 -2.5472
  625THY    HP615613   1.786   7.036   6.486  1.1344  1.8325  0.5279
  625THY    HP715614   1.918   6.981   6.383  0.0612 -0.1854  1.5012
  625THY    CA315615   1.706   6.756   6.428 -0.2171  0.3578 -0.2391
  625THY    HA315616   1.673   6.816   6.512  0.3736  2.9900 -1.7752
  625THY    CA415617   1.700   6.620   6.441 -0.0919  0.1704  0.3179
  625THY    HA415618   1.679   6.574   6.537 -3.5025  1.5619  0.3479
  625THY    CA515619   1.721   6.533   6.335 -0.0783  0.1902 -0.7554
  625THY    CM115620   1.705   6.385   6.353 -0.7382  0.2819 -0.1208
  625THY    HM115621   1.782   6.350   6.422  2.2387 -1.5941 -4.0229
  625THY    HM215622   1.603   6.371   6.393  0.2911  1.1676  3.1031
  625THY    HM315623   1.716   6.333   6.257 -1.6459  2.2386 -1.3484
  625THY    CA615624   1.776   6.585   6.222  0.0244 -0.1796 -0.3617
  625THY    HA615625   1.804   6.517   6.142  2.8630  0.5547 -0.1105
  626THY      O15626   5.345   5.909   6.963  0.7278 -0.2942  0.0255
  626THY     HO15627   5.317   5.939   7.051 -1.4499 -3.2289  0.4839
  626THY    CA115628   5.273   5.970   6.874 -0.0813  0.2432 -0.0541
  626THY    CA215629   5.296   5.967   6.734  0.3618  0.5673  0.9636
  626THY    CP115630   5.427   5.914   6.677  0.2432  0.3718  0.8010
  626THY    HP115631   5.476   5.848   6.749 -2.4648 -1.4974  1.0736
  626THY    CP215632   5.420   5.842   6.542  0.0585 -0.1961  0.7332
  626THY    HP215633   5.324   5.795   6.516 -0.6753  1.3244  0.5530
  626THY    HP315634   5.444   5.913   6.461 -1.5382 -0.7196 -0.2508
  626THY    HP415635   5.497   5.767   6.524 -0.6853 -0.2468 -3.1061
  626THY    CP315636   5.514   6.038   6.666  0.9373 -0.2466  0.7963
  626THY    HP515637   5.459   6.115   6.611 -2.4150 -1.4033  2.2678
  626THY    HP615638   5.526   6.078   6.766  3.5272 -0.7569  0.7570
  626THY    HP715639   5.611   6.025   6.615  0.9072  2.0158  0.0748
  626THY    CA315640   5.204   6.026   6.642 -0.2146 -0.4112  0.1196
  626THY    HA315641   5.227   6.036   6.537 -0.9801  0.3198  0.0047
  626THY    CA415642   5.086   6.086   6.697  0.5138  0.3161  0.8712
  626THY    HA415643   5.025   6.141   6.626 -0.8322 -2.3443 -0.1820
  626THY    CA515644   5.055   6.075   6.832  0.0089  0.5408 -0.6344
  626THY    CM115645   4.929   6.140   6.878  0.2280 -0.1583  0.0864
  626THY    HM115646   4.937   6.249   6.868  1.3850 -0.2178  0.1852
  626THY    HM215647   4.842   6.110   6.819 -0.0315  1.7584 -0.5975
  626THY    HM315648   4.904   6.112   6.981  0.2520 -0.8325 -0.0893
  626THY    CA615649   5.148   6.011   6.921  0.2192  0.7012  0.5482
  626THY    HA615650   5.115   6.007   7.025 -2.1976 -1.8759 -0.1940
  627THY      O15651   7.394   8.867   1.260  0.8218  0.3916 -0.2135
  627THY     HO15652   7.400   8.963   1.243  1.3535  0.4010  0.0052
  627THY    CA115653   7.369   8.849   1.393 -0.2498 -0.5972 -0.4113
  627THY    CA215654   7.424   8.744   1.461 -0.2274  1.0250 -0.3825
  627THY    CP115655   7.510   8.634   1.388 -0.3208 -0.2074  0.0712
  627THY    HP115656   7.499   8.649   1.280 -1.7653  1.2989  0.3765
  627THY    CP215657   7.664   8.632   1.415  0.2829  0.7732  0.1094
  627THY    HP215658   7.694   8.604   1.517 -0.3615 -1.0254 -0.1734
  627THY    HP315659   7.704   8.553   1.351  0.3858  0.7162  0.2449
  627THY    HP415660   7.711   8.730   1.397  1.0529  0.4501  0.2979
  627THY    CP315661   7.449   8.496   1.409 -0.0836 -0.4535 -0.3869
  627THY    HP515662   7.339   8.493   1.403 -0.0536  0.0340 -1.4247
  627THY    HP615663   7.493   8.442   1.324 -2.0265 -0.7377 -1.2668
  627THY    HP715664   7.481   8.452   1.504  2.0752  0.0432 -0.8328
  627THY    CA315665   7.395   8.731   1.603 -0.6760 -0.0162  0.4579
  627THY    HA315666   7.434   8.644   1.654  0.5179  0.9911  1.3065
  627THY    CA415667   7.306   8.815   1.660 -0.1421 -0.6316 -0.3174
  627THY    HA415668   7.270   8.811   1.762 -1.3914  0.7014 -0.6623
  627THY    CA515669   7.240   8.910   1.585  0.3326  0.3996  0.4257
  627THY    CM115670   7.139   9.005   1.649 -0.2401  0.1120 -0.0794
  627THY    HM115671   7.100   8.956   1.739  2.0520 -1.7674 -0.0092
  627THY    HM215672   7.179   9.103   1.675 -0.1736  0.6657 -2.1021
  627THY    HM315673   7.052   9.015   1.583  0.1232 -1.8653 -0.9424
  627THY    CA615674   7.283   8.937   1.458 -0.1890 -0.3239  0.2638
  627THY    HA615675   7.235   9.016   1.402 -2.4022 -0.8189  1.3623
  628THY      O15676   3.559   1.011   8.046  0.7751  0.1849  0.2990
  628THY     HO15677   3.511   1.095   8.056  0.4151  0.0795 -0.4592
  628THY    CA115678   3.677   1.039   7.999 -0.7379 -0.4909 -0.0480
  628THY    CA215679   3.762   0.947   7.937  0.0587  0.2462  0.5848
  628THY    CP115680   3.721   0.799   7.915  0.4085 -0.3275  0.2570
  628THY    HP115681   3.617   0.787   7.944 -0.0106  0.0862 -1.0013
  628THY    CP215682   3.719   0.771   7.762  0.2484 -0.0345 -0.0655
  628THY    HP215683   3.809   0.812   7.713 -0.1202  2.1512  0.9748
  628THY    HP315684   3.719   0.662   7.751 -0.8712 -0.1924  1.3281
  628THY    HP415685   3.634   0.820   7.715  0.3232 -0.4078 -0.6070
  628THY    CP315686   3.798   0.690   7.996  0.3335  0.3323 -0.5646
  628THY    HP515687   3.795   0.721   8.101  1.3760 -2.5808  0.4304
  628THY    HP615688   3.751   0.591   7.996  1.7957 -0.5325 -3.9634
  628THY    HP715689   3.900   0.679   7.957  0.1094 -1.0229 -0.8347
  628THY    CA315690   3.889   0.981   7.912  0.8860  0.4194 -0.5054
  628THY    HA315691   3.954   0.903   7.874 -1.4777 -0.6498 -2.6431
  628THY    CA415692   3.937   1.102   7.947  0.2583  0.5014  0.0828
  628THY    HA415693   4.042   1.119   7.922  0.2638  0.2926 -0.0425
  628THY    CA515694   3.858   1.198   8.000 -0.0223  0.1764 -0.5640
  628THY    CM115695   3.915   1.336   8.025  0.0022  0.0756  0.0087
  628THY    HM115696   3.848   1.415   7.992  2.5313  2.3495  0.0016
  628THY    HM215697   3.942   1.352   8.130 -1.4001  1.1227  0.2335
  628THY    HM315698   3.999   1.346   7.955 -0.0225 -0.4682 -0.1031
  628THY    CA615699   3.724   1.172   8.023 -0.1178 -0.1173 -0.1110
  628THY    HA615700   3.659   1.251   8.061 -1.0594 -0.3671 -1.1597
  629THY      O15701   8.945   5.879   1.581 -0.2044 -0.3029 -0.0723
  629THY     HO15702   8.975   5.794   1.617  0.5721 -0.3884 -0.9003
  629THY    CA115703   8.950   5.849   1.448 -0.1205  0.4635 -0.2315
  629THY    CA215704   8.901   5.947   1.351 -0.1016 -0.4222  0.0417
  629THY    CP115705   8.856   6.086   1.397  0.1444  0.5359 -0.4876
  629THY    HP115706   8.847   6.098   1.506 -1.1253 -0.2309 -0.4943
  629THY    CP215707   8.957   6.196   1.347  0.3915 -0.4336  0.1493
  629THY    HP215708   9.057   6.175   1.388  0.3306 -3.4756 -0.9829
  629THY    HP315709   8.965   6.192   1.238  0.8135 -1.6431  0.2072
  629THY    HP415710   8.928   6.301   1.361  0.1822 -0.3306 -0.9602
  629THY    CP315711   8.711   6.116   1.349  0.4511 -0.0194 -0.2736
  629THY    HP515712   8.700   6.110   1.240 -2.2801 -1.5957 -0.0041
  629THY    HP615713   8.644   6.042   1.394 -1.7604  3.2226  2.3329
  629THY    HP715714   8.673   6.210   1.391 -0.5973 -0.2763 -0.6208
  629THY    CA315715   8.906   5.917   1.216 -0.0122 -0.3569 -0.3252
  629THY    HA315716   8.870   5.991   1.144 -1.1703  0.5684  1.1268
  629THY    CA415717   8.955   5.789   1.171 -0.2551  0.3337 -0.1390
  629THY    HA415718   8.960   5.761   1.067 -1.4655 -2.2216  0.3971
  629THY    CA515719   8.998   5.698   1.266  0.5338  0.2743  0.0174
  629THY    CM115720   9.037   5.557   1.231  0.8149  0.4951 -0.2098
  629THY    HM115721   8.988   5.529   1.137 -1.2907  0.5700  0.8035
  629THY    HM215722   9.144   5.533   1.231  0.5083 -0.9793 -1.0095
  629THY    HM315723   8.990   5.482   1.296  1.1885 -0.8372 -1.4182
  629THY    CA615724   9.000   5.729   1.403  0.7462  0.5771  0.3689
  629THY    HA615725   9.018   5.646   1.471 -0.3172 -0.2047 -0.2686
  630THY      O15726   9.087   4.412   5.926  0.1232  0.0001 -0.3533
  630THY     HO15727   9.150   4.357   5.975  0.2158  2.6920  2.9187
  630THY    CA115728   8.971   4.404   5.999 -0.1390 -0.1995  0.5422
  630THY    CA215729   8.852   4.453   5.949  1.6073 -0.4395 -0.0104
  630THY    CP115730   8.842   4.546   5.826  0.2782  0.3942 -0.4580
  630THY    HP115731   8.944   4.561   5.789  1.6854 -0.7550  2.6204
  630THY    CP215732   8.759   4.482   5.713  0.0684  0.1757  0.4547
  630THY    HP215733   8.652   4.482   5.735  0.2958 -0.9486  1.6577
  630THY    HP315734   8.790   4.528   5.618  1.4466 -0.3928  0.6019
  630THY    HP415735   8.782   4.375   5.707 -2.5589 -0.5896  2.5737
  630THY    CP315736   8.786   4.685   5.860 -0.0313  0.8118  0.6314
  630THY    HP515737   8.700   4.692   5.928 -0.4319 -2.8613  0.6924
  630THY    HP615738   8.873   4.736   5.902 -0.3955  2.4801 -0.5253
  630THY    HP715739   8.760   4.741   5.769 -0.5258 -1.6613 -0.8377
  630THY    CA315740   8.738   4.423   6.027  0.6025 -0.6935 -0.5276
  630THY    HA315741   8.643   4.464   5.995  0.5811 -0.9114 -0.7399
  630THY    CA415742   8.749   4.359   6.156  0.2626 -0.3928 -0.0593
  630THY    HA415743   8.663   4.355   6.223  0.3521  0.5490  0.1317
  630THY    CA515744   8.871   4.307   6.197 -0.4507 -1.2700 -0.0092
  630THY    CM115745   8.879   4.229   6.327  0.6050  0.5179 -0.0162
  630THY    HM115746   8.906   4.125   6.304  1.7313  0.7772  0.0732
  630THY    HM215747   8.961   4.273   6.385 -0.2683 -0.6758  2.2273
  630THY    HM315748   8.787   4.229   6.386  1.7052 -1.0078  1.8058
  630THY    CA615749   8.984   4.328   6.117  0.7428  0.0216  0.2368
  630THY    HA615750   9.083   4.292   6.144  0.4149 -3.0079 -2.0114
  631THY      O15751   2.141   1.213   8.294  1.2678 -0.4241 -0.8031
  631THY     HO15752   2.118   1.123   8.321  1.3234 -0.0740  0.4712
  631THY    CA115753   2.272   1.221   8.279 -0.5336 -0.4519  0.2203
  631THY    CA215754   2.360   1.236   8.390  0.6597 -0.1229  0.0891
  631THY    CP115755   2.315   1.277   8.529  0.4396  0.2297 -0.7168
  631THY    HP115756   2.206   1.283   8.523  0.2343 -1.9871 -0.1750
  631THY    CP215757   2.346   1.159   8.631 -0.4901  0.1990 -0.0907
  631THY    HP215758   2.454   1.160   8.647 -0.0826 -1.4235 -2.3261
  631THY    HP315759   2.279   1.169   8.717 -0.1866 -1.0385  0.3032
  631THY    HP415760   2.306   1.061   8.605 -0.8306  0.4545 -0.5577
  631THY    CP315761   2.373   1.414   8.582 -0.3317  0.0205 -0.5850
  631THY    HP515762   2.319   1.435   8.675 -0.6886  0.6467 -0.9263
  631THY    HP615763   2.480   1.412   8.606 -0.5950  0.9495  0.7375
  631THY    HP715764   2.372   1.498   8.512  0.9557  0.9283  0.4612
  631THY    CA315765   2.494   1.259   8.346  0.2271  0.0547 -0.8046
  631THY    HA315766   2.564   1.301   8.418  0.3867  0.1965 -1.0446
  631THY    CA415767   2.543   1.227   8.223 -0.2739  0.1012  0.1034
  631THY    HA415768   2.647   1.240   8.197  0.1264  0.4812  1.8230
  631THY    CA515769   2.455   1.198   8.122  0.2534 -0.6131  0.0727
  631THY    CM115770   2.502   1.156   7.982  0.5547 -0.7114 -0.6295
  631THY    HM115771   2.570   1.230   7.936  1.7275 -0.6362  1.1146
  631THY    HM215772   2.569   1.069   7.984  1.0477 -0.4832 -3.1169
  631THY    HM315773   2.412   1.145   7.920 -0.5664  2.2769  0.3176
  631THY    CA615774   2.316   1.202   8.145 -0.7999 -0.8622 -0.4676
  631THY    HA615775   2.240   1.184   8.070  0.6542  0.2966 -2.3127
  632THY      O15776   2.137   8.138   2.026 -0.1051  0.4490 -0.1847
  632THY     HO15777   2.212   8.077   2.037  0.0688  0.8681  1.3063
  632THY    CA115778   2.182   8.256   2.066  0.5730 -0.4211 -0.2487
  632THY    CA215779   2.116   8.340   2.158  0.0864 -0.0617  0.3075
  632THY    CP115780   1.990   8.295   2.218 -0.2821 -0.3010  0.8942
  632THY    HP115781   1.954   8.209   2.162 -1.8242  0.4020  0.7624
  632THY    CP215782   2.007   8.256   2.363 -0.7157 -0.5131  0.1436
  632THY    HP215783   2.073   8.167   2.368 -1.0147 -0.7246  0.3465
  632THY    HP315784   2.039   8.339   2.427 -1.7333 -0.7768  1.0315
  632THY    HP415785   1.912   8.224   2.407 -1.1281 -1.4229 -1.3391
  632THY    CP315786   1.872   8.394   2.200 -0.6789  0.1135  0.1724
  632THY    HP515787   1.868   8.420   2.094  1.4501  5.3487  1.0580
  632THY    HP615788   1.777   8.347   2.227 -0.3040 -1.3000 -0.8680
  632THY    HP715789   1.878   8.485   2.261 -1.8129 -0.1845  0.7405
  632THY    CA315790   2.174   8.474   2.170  0.6065  0.5575 -0.8760
  632THY    HA315791   2.130   8.547   2.237  0.2524 -2.0198  1.9140
  632THY    CA415792   2.294   8.511   2.120 -0.0596 -0.3927 -0.9425
  632THY    HA415793   2.342   8.606   2.139  0.2602 -0.5120 -1.1297
  632THY    CA515794   2.365   8.418   2.048  1.0099 -0.4759 -0.0523
  632THY    CM115795   2.502   8.446   1.995 -0.1222  0.6906  0.5104
  632THY    HM115796   2.553   8.513   2.066  0.2160  0.4009  0.5446
  632THY    HM215797   2.560   8.353   1.987  1.0323  1.4851 -1.3933
  632THY    HM315798   2.512   8.492   1.895  0.9805  0.0543  0.3055
  632THY    CA615799   2.303   8.303   2.016  0.2585  0.7299  0.2388
  632THY    HA615800   2.363   8.235   1.956  1.3954  0.3098  1.7737
  633THY      O15801   4.618   4.681   1.421 -0.2325  0.2019  0.0788
  633THY     HO15802   4.710   4.712   1.429 -0.1446  0.2968 -1.0451
  633THY    CA115803   4.609   4.560   1.484 -0.0363 -0.8189 -0.2735
  633THY    CA215804   4.507   4.465   1.453  0.3898  0.1937 -0.0124
  633THY    CP115805   4.411   4.489   1.336  0.8019  0.4378  0.2464
  633THY    HP115806   4.421   4.595   1.309  1.7212 -0.5435 -3.9918
  633THY    CP215807   4.453   4.401   1.221  0.3383  0.4591  0.3944
  633THY    HP215808   4.438   4.299   1.258 -0.5656  1.6137  3.4494
  633THY    HP315809   4.383   4.404   1.137 -1.7565 -1.5400  1.9463
  633THY    HP415810   4.553   4.428   1.185  0.0561  2.0723  0.7551
  633THY    CP315811   4.258   4.473   1.373  0.2859  0.2528  0.1416
  633THY    HP515812   4.236   4.369   1.400  1.5927  0.6634  3.1908
  633THY    HP615813   4.236   4.524   1.467 -2.8563 -1.2135  0.3324
  633THY    HP715814   4.191   4.517   1.299 -0.5202  1.4808  1.5547
  633THY    CA315815   4.502   4.342   1.523 -0.3806 -0.1331 -0.4098
  633THY    HA315816   4.425   4.273   1.490 -0.1262 -0.9301  0.5887
  633THY    CA415817   4.587   4.321   1.635 -0.1619  0.6223  0.7942
  633THY    HA415818   4.584   4.227   1.689  0.9154 -0.2303 -0.5530
  633THY    CA515819   4.684   4.422   1.665  0.2596  0.2939 -0.0787
  633THY    CM115820   4.782   4.410   1.782 -0.2515  0.0805  0.0730
  633THY    HM115821   4.722   4.417   1.873  1.2300  1.7731  0.9891
  633THY    HM215822   4.819   4.307   1.784  2.5833  0.9760 -0.8607
  633THY    HM315823   4.865   4.481   1.787 -0.4609  0.6852 -3.2128
  633THY    CA615824   4.696   4.541   1.594  0.9826 -0.0228 -0.5970
  633THY    HA615825   4.767   4.617   1.627 -0.5844  1.8266 -1.2744
  634THY      O15826   4.922   7.736   0.062 -0.0653 -0.3762  0.4193
  634THY     HO15827   4.856   7.723  -0.008  2.2546  0.5313 -2.0922
  634THY    CA115828   4.861   7.695   0.180  0.6216 -0.2569 -0.0043
  634THY    CA215829   4.929   7.654   0.295 -0.5075  0.6920  0.3438
  634THY    CP115830   5.073   7.620   0.288 -0.4921  0.0304  0.6294
  634THY    HP115831   5.114   7.625   0.186 -0.4331 -1.9680  0.5213
  634THY    CP215832   5.157   7.720   0.370  0.0937  0.0510 -0.1493
  634THY    HP215833   5.264   7.694   0.359 -0.1118 -1.3800  0.9237
  634THY    HP315834   5.141   7.820   0.329 -1.6605  0.5552  1.6442
  634THY    HP415835   5.146   7.713   0.479  0.4566  2.6590  0.1160
  634THY    CP315836   5.107   7.486   0.337 -0.1499  0.0213 -0.0076
  634THY    HP515837   5.211   7.466   0.310  0.4485  0.8456  1.5558
  634THY    HP615838   5.088   7.476   0.445 -1.1264  1.8007  0.0362
  634THY    HP715839   5.053   7.409   0.280 -1.0278  0.0017  0.8050
  634THY    CA315840   4.862   7.645   0.417  1.1624  0.0693 -0.8361
  634THY    HA315841   4.915   7.618   0.508  0.0196 -0.8838 -0.4304
  634THY    CA415842   4.725   7.682   0.425 -0.2637  0.1684  0.2831
  634THY    HA415843   4.675   7.683   0.522  0.3304 -1.2310  0.6324
  634THY    CA515844   4.658   7.723   0.312  0.2673 -0.0622  0.2380
  634THY    CM115845   4.513   7.764   0.319  0.0428 -0.3034  0.2978
  634THY    HM115846   4.455   7.735   0.230 -0.4958 -2.1165  1.1725
  634THY    HM215847   4.461   7.713   0.402 -0.9232  0.2858  0.0656
  634THY    HM315848   4.496   7.871   0.336  0.1562  0.2369 -2.5913
  634THY    CA615849   4.726   7.729   0.193  0.4090 -0.3150  0.1862
  634THY    HA615850   4.671   7.772   0.109  1.8430 -0.2060 -0.7235
  635THY      O15851   9.870   5.772   7.468  0.1568 -0.4872  0.6261
  635THY     HO15852   9.888   5.737   7.557  3.3765  2.0508  1.1925
  635THY    CA115853   9.979   5.841   7.425 -0.1042  0.3327 -0.5021
  635THY    CA215854   9.968   5.911   7.304  0.5906  0.9921  0.3917
  635THY    CP115855   9.835   5.905   7.221 -0.1936  0.4508 -0.1365
  635THY    HP115856   9.750   5.903   7.291 -1.2751 -1.4522 -1.3982
  635THY    CP215857   9.808   6.025   7.123 -0.0112  0.3327 -0.2951
  635THY    HP215858   9.705   6.024   7.084  0.6984  1.5688 -2.3457
  635THY    HP315859   9.829   6.119   7.174  0.1484 -1.2600  2.8260
  635THY    HP415860   9.861   6.016   7.027 -3.3490 -1.2192 -2.1819
  635THY    CP315861   9.824   5.772   7.150 -0.0207 -0.2287 -0.5917
  635THY    HP515862   9.742   5.765   7.078 -1.2545 -3.2995  0.9165
  635THY    HP615863   9.918   5.744   7.100 -0.8034 -0.4742 -1.9511
  635THY    HP715864   9.788   5.703   7.228  0.7485 -1.8013 -1.5669
  635THY    CA315865  10.069   5.994   7.265  0.0015 -0.6157  0.2640
  635THY    HA315866  10.061   6.039   7.167 -1.8366 -3.7765 -1.1750
  635THY    CA415867  10.185   6.017   7.349  0.6570 -0.5666  0.3423
  635THY    HA415868  10.252   6.097   7.317 -1.2634  0.7444 -0.6365
  635THY    CA515869  10.199   5.940   7.469  0.1545  0.3542  0.2954
  635THY    CM115870  10.324   5.936   7.545 -0.1336  0.3650 -0.1555
  635THY    HM115871  10.325   5.863   7.627  1.1200 -0.4172 -0.8312
  635THY    HM215872  10.396   5.922   7.463 -1.1359  1.3429 -1.2348
  635THY    HM315873  10.346   6.033   7.591 -0.0561  0.2754 -0.0046
  635THY    CA615874  10.092   5.854   7.508  0.4025  0.2037  0.2889
  635THY    HA615875  10.109   5.807   7.604  0.1633  0.5773  0.5153
  636THY      O15876   7.431   8.674   5.251  0.7131 -0.7873  0.2819
  636THY     HO15877   7.528   8.680   5.248  0.7066  0.6700  1.6725
  636THY    CA115878   7.386   8.769   5.162 -0.7052 -0.2010 -0.3640
  636THY    CA215879   7.292   8.747   5.064  0.1828  0.2702 -0.8503
  636THY    CP115880   7.239   8.611   5.040  0.0323 -0.7338  0.7535
  636THY    HP115881   7.305   8.541   5.093  1.4469  0.5444  0.7667
  636THY    CP215882   7.094   8.606   5.092 -0.0779 -0.5653  0.0284
  636THY    HP215883   7.050   8.509   5.066 -1.0361 -0.7433  2.1406
  636THY    HP315884   7.093   8.615   5.201  1.7491 -0.4296  0.0708
  636THY    HP415885   7.026   8.684   5.057 -0.0651  0.0947  1.4223
  636THY    CP315886   7.241   8.570   4.892  0.1789 -0.1355 -0.2390
  636THY    HP515887   7.160   8.613   4.832  0.5203  0.2770 -0.4140
  636THY    HP615888   7.339   8.597   4.851  0.8992 -0.0612  1.4697
  636THY    HP715889   7.248   8.461   4.887  1.6767 -0.0447 -0.4867
  636THY    CA315890   7.262   8.853   4.972  0.1752 -0.4488  0.3322
  636THY    HA315891   7.188   8.825   4.898  0.2585  0.2526 -0.0304
  636THY    CA415892   7.312   8.979   5.001  0.4864 -0.4022  0.1178
  636THY    HA415893   7.287   9.065   4.941 -1.9074 -1.0410  0.0904
  636THY    CA515894   7.399   8.998   5.102 -0.0707 -0.1017  0.0987
  636THY    CM115895   7.459   9.129   5.128  0.4482  0.3293  0.3543
  636THY    HM115896   7.563   9.107   5.157  0.3930  0.1831  0.4391
  636THY    HM215897   7.450   9.196   5.041 -1.9616 -0.8382 -0.3741
  636THY    HM315898   7.423   9.183   5.216  2.1270 -0.1010  1.3573
  636THY    CA615899   7.450   8.893   5.172  0.0185  0.3777  0.3996
  636THY    HA615900   7.525   8.902   5.250  0.6033 -0.9238  0.0195
  637THY      O15901   9.030   7.800   4.045  0.2188 -0.0505  0.4314
  637THY     HO15902   8.947   7.752   4.059  1.3550 -1.5549  2.8354
  637THY    CA115903   9.114   7.695   4.000  1.0021 -0.2503  0.2496
  637THY    CA215904   9.227   7.710   3.918  0.1084 -0.3642  0.2558
  637THY    CP115905   9.260   7.840   3.858 -0.6554 -0.2946 -1.2752
  637THY    HP115906   9.179   7.909   3.885  0.5753  1.0982 -1.0040
  637THY    CP215907   9.384   7.903   3.919 -0.0342  0.3412  0.2716
  637THY    HP215908   9.474   7.853   3.881 -1.5127 -1.4713 -0.9973
  637THY    HP315909   9.394   8.009   3.893 -0.9987  0.4733  0.3894
  637THY    HP415910   9.381   7.912   4.029  0.4550  0.8500  0.2525
  637THY    CP315911   9.274   7.853   3.708 -0.7062  0.0580 -0.1224
  637THY    HP515912   9.266   7.958   3.677 -1.3754  0.3034  0.8608
  637THY    HP615913   9.368   7.806   3.676 -1.4077 -0.5075 -1.4580
  637THY    HP715914   9.197   7.792   3.660  0.5593 -2.4088  0.7869
  637THY    CA315915   9.295   7.594   3.883  0.0135 -0.1295 -0.5845
  637THY    HA315916   9.359   7.603   3.796 -1.0835  0.1228 -1.3746
  637THY    CA415917   9.262   7.468   3.939  0.0209 -0.4825 -0.0924
  637THY    HA415918   9.320   7.380   3.912 -0.6234 -1.1987  0.7884
  637THY    CA515919   9.151   7.458   4.014  0.4467  0.2312  0.5451
  637THY    CM115920   9.104   7.328   4.062 -0.2889  0.9695 -1.2479
  637THY    HM115921   8.999   7.312   4.035 -0.4316  1.4245 -0.9596
  637THY    HM215922   9.165   7.249   4.015  1.0880  1.6159 -0.5937
  637THY    HM315923   9.112   7.322   4.171 -2.0014  1.8543 -1.0416
  637THY    CA615924   9.077   7.570   4.041  0.2592 -0.1798 -0.3052
  637THY    HA615925   8.999   7.558   4.116  1.5060 -1.5528  0.8197
  638THY      O15926   6.513   0.819   1.411  0.2792  0.5677  0.3313
  638THY     HO15927   6.436   0.815   1.352  0.7872  2.5948 -0.5658
  638THY    CA115928   6.619   0.791   1.341  0.4751 -0.1130 -0.3200
  638THY    CA215929   6.745   0.846   1.380  0.0289  0.4388 -0.0445
  638THY    CP115930   6.767   0.943   1.498  0.0217  0.6514 -0.0693
  638THY    HP115931   6.680   1.006   1.520 -2.9066 -3.2573  0.4619
  638THY    CP215932   6.792   0.859   1.626 -0.0255 -0.2283  0.5612
  638THY    HP215933   6.710   0.793   1.656  0.2411 -0.7314  0.2010
  638THY    HP315934   6.886   0.802   1.621  0.5612  0.7110  0.6199
  638THY    HP415935   6.800   0.937   1.703  0.3054  2.2510 -1.8259
  638THY    CP315936   6.882   1.050   1.480  0.1552  0.0765 -0.3032
  638THY    HP515937   6.871   1.099   1.382  1.0259  0.4274 -0.2324
  638THY    HP615938   6.879   1.131   1.554  1.1901 -0.6793  0.5835
  638THY    HP715939   6.978   0.998   1.473  0.2932 -0.1703  2.5410
  638THY    CA315940   6.857   0.825   1.295 -0.2480  0.8218 -1.0178
  638THY    HA315941   6.954   0.870   1.313 -0.9615  2.2157 -0.5150
  638THY    CA415942   6.853   0.730   1.195 -0.5073 -0.1188 -0.2149
  638THY    HA415943   6.948   0.703   1.149 -0.6937 -0.9318 -0.1356
  638THY    CA515944   6.733   0.673   1.158  0.2404 -1.0805  0.2129
  638THY    CM115945   6.717   0.585   1.043  0.2053 -0.3994  0.5759
  638THY    HM115946   6.794   0.508   1.051 -0.2041 -1.2120 -2.2195
  638THY    HM215947   6.619   0.535   1.054  0.2601 -0.3953  1.1019
  638THY    HM315948   6.709   0.644   0.951 -4.6413  0.1157  1.0656
  638THY    CA615949   6.614   0.712   1.228  0.3212 -0.0059 -0.3152
  638THY    HA615950   6.517   0.669   1.202  0.1820 -0.8966  1.5530
  639THY      O15951   8.381   2.049   2.200  0.3793 -0.0436 -0.3611
  639THY     HO15952   8.409   2.057   2.293  0.0378 -0.4157 -0.2244
  639THY    CA115953   8.402   2.174   2.145  0.6126 -0.2420  0.1752
  639THY    CA215954   8.334   2.231   2.034  0.5398 -0.5779  0.3437
  639THY    CP115955   8.229   2.152   1.953 -0.5645  0.1486  0.1755
  639THY    HP115956   8.226   2.050   1.992  3.4980  0.2455  1.1634
  639THY    CP215957   8.086   2.221   1.965 -0.1226  0.6210  0.2786
  639THY    HP215958   8.000   2.162   1.933  1.1732 -0.7751 -0.7471
  639THY    HP315959   8.073   2.238   2.073 -3.2632  1.5470 -0.1472
  639THY    HP415960   8.083   2.322   1.923 -1.1181 -0.9032 -3.7450
  639THY    CP315961   8.284   2.122   1.812  0.3279 -0.4331  0.1258
  639THY    HP515962   8.287   2.207   1.743  0.6953 -0.2886  0.3197
  639THY    HP615963   8.387   2.083   1.811  0.6165  0.0562 -3.2459
  639THY    HP715964   8.213   2.056   1.761 -0.6125  0.3642  0.3756
  639THY    CA315965   8.367   2.360   1.981 -0.2268  0.5205  0.1386
  639THY    HA315966   8.327   2.391   1.885 -0.3465  1.4570  0.4839
  639THY    CA415967   8.461   2.437   2.052 -0.6001  1.2179 -0.6133
  639THY    HA415968   8.488   2.534   2.010 -1.3549  0.3277 -3.3457
  639THY    CA515969   8.536   2.381   2.155 -0.1356 -0.1537  1.1744
  639THY    CM115970   8.646   2.465   2.218  0.1914 -0.4935  0.2842
  639THY    HM115971   8.606   2.565   2.233  3.4676  0.8424  1.0819
  639THY    HM215972   8.669   2.432   2.320  1.4918 -1.5366 -0.3100
  639THY    HM315973   8.734   2.468   2.153  0.1386 -2.0570  0.1020
  639THY    CA615974   8.506   2.253   2.197 -0.8960 -0.0230 -0.6637
  639THY    HA615975   8.556   2.211   2.284 -1.1167 -1.1557 -1.0676
  640THY      O15976   3.766   2.814   8.560  0.4815  0.0762 -0.2334
  640THY     HO15977   3.810   2.731   8.587 -1.3943 -1.0535 -0.4129
  640THY    CA115978   3.769   2.900   8.667  0.2829 -0.5986 -0.2104
  640THY    CA215979   3.666   2.993   8.683  1.8847 -0.5443 -0.0636
  640THY    CP115980   3.549   3.024   8.581 -0.1577  0.4639 -0.3895
  640THY    HP115981   3.540   2.933   8.521 -1.9516  1.5524 -1.8341
  640THY    CP215982   3.414   3.055   8.649 -0.2226  0.0303  0.0241
  640THY    HP215983   3.377   2.966   8.700 -0.9337 -0.7658 -1.7932
  640THY    HP315984   3.417   3.145   8.712  0.5785 -0.4079  0.6247
  640THY    HP415985   3.346   3.072   8.565 -0.8437 -1.7037  0.1401
  640THY    CP315986   3.583   3.147   8.500  0.6940  0.7038  0.5264
  640THY    HP515987   3.669   3.127   8.435  0.1537 -0.4974  0.1520
  640THY    HP615988   3.501   3.181   8.436  0.4517 -0.1978  0.3343
  640THY    HP715989   3.618   3.220   8.574  2.1783  0.6544 -0.0802
  640THY    CA315990   3.671   3.073   8.796  0.1025 -0.0783  0.1131
  640THY    HA315991   3.601   3.155   8.803  1.6171  1.5044 -2.0402
  640THY    CA415992   3.760   3.060   8.897 -0.5422 -0.6551 -0.0670
  640THY    HA415993   3.759   3.125   8.984  1.5838 -2.0650  1.1173
  640THY    CA515994   3.854   2.958   8.885 -0.5104 -0.3186 -0.1521
  640THY    CM115995   3.963   2.929   8.987 -0.2641 -0.4432 -0.1733
  640THY    HM115996   4.065   2.925   8.948  2.0047 -0.8029  5.1018
  640THY    HM215997   3.957   3.000   9.070  2.8003 -0.5983  0.2777
  640THY    HM315998   3.951   2.824   9.017 -3.0420 -0.4866 -1.0677
  640THY    CA615999   3.867   2.886   8.761  0.0930  0.5071  0.1872
  640THY    HA616000   3.943   2.809   8.752  1.3556  1.6044  1.0788
  641THY      O16001   6.538   9.184   2.709  0.4263 -0.1675 -0.5714
  641THY     HO16002   6.629   9.216   2.720 -0.3889  2.3792 -0.7384
  641THY    CA116003   6.543   9.065   2.754  0.1536  0.5940  0.0648
  641THY    CA216004   6.422   8.988   2.770  0.2166 -0.8243 -0.4200
  641THY    CP116005   6.286   9.031   2.719  0.0632  0.0340  0.0343
  641THY    HP116006   6.286   9.141   2.718 -1.4063  0.0700 -1.6728
  641THY    CP216007   6.255   8.992   2.580  0.3689 -0.5238 -0.2158
  641THY    HP216008   6.227   8.886   2.574  1.1998 -1.4019  5.6368
  641THY    HP316009   6.176   9.060   2.548  1.0942  0.1411 -0.6396
  641THY    HP416010   6.336   9.026   2.513  0.1544 -2.2627 -1.4245
  641THY    CP316011   6.181   9.004   2.817 -0.2927  0.1946 -0.1347
  641THY    HP516012   6.167   8.895   2.828 -1.8825  0.1684 -1.8822
  641THY    HP616013   6.211   9.044   2.914 -1.2904 -0.4643  0.4704
  641THY    HP716014   6.080   9.030   2.784 -0.5277 -2.1738 -1.4794
  641THY    CA316015   6.438   8.852   2.802 -0.6078  0.5637  0.0035
  641THY    HA316016   6.353   8.784   2.808  0.9427 -1.3923  1.0132
  641THY    CA416017   6.564   8.804   2.838 -0.1996 -0.2592 -0.5927
  641THY    HA416018   6.578   8.704   2.878 -0.5296 -0.3627 -0.7282
  641THY    CA516019   6.679   8.884   2.829 -0.4098  0.6689 -0.1960
  641THY    CM116020   6.808   8.836   2.897  0.2097 -0.3639 -0.6104
  641THY    HM116021   6.886   8.800   2.828 -0.0327 -0.6127 -0.7563
  641THY    HM216022   6.856   8.901   2.970 -0.9055  0.8660 -0.9354
  641THY    HM316023   6.790   8.745   2.955 -0.9218 -0.1298 -0.5821
  641THY    CA616024   6.663   9.013   2.793 -0.6027 -0.0536  1.0676
  641THY    HA616025   6.752   9.070   2.768 -1.4616  1.4167  1.2302
  642THY      O16026   1.809   5.494   1.630  0.7371 -1.1464 -0.4437
  642THY     HO16027   1.768   5.519   1.715 -0.6641  1.6902 -1.7889
  642THY    CA116028   1.819   5.613   1.559  0.3468  0.1120 -0.5448
  642THY    CA216029   1.803   5.615   1.419  0.3242 -0.4441 -0.0365
  642THY    CP116030   1.774   5.482   1.345 -0.9615 -0.0985 -0.0867
  642THY    HP116031   1.768   5.394   1.409  2.1423  0.3743  0.9946
  642THY    CP216032   1.641   5.493   1.277 -0.6980  0.5908  0.9108
  642THY    HP216033   1.560   5.497   1.351 -0.5426 -0.6227  1.1537
  642THY    HP316034   1.634   5.578   1.207 -0.8569  0.0177  0.2166
  642THY    HP416035   1.629   5.392   1.235  1.5801  0.1008  1.3503
  642THY    CP316036   1.874   5.455   1.240 -0.0444  0.5728  0.6372
  642THY    HP516037   1.851   5.519   1.154 -0.5606 -0.0339  0.3125
  642THY    HP616038   1.982   5.470   1.254  0.7123 -1.0101 -2.4289
  642THY    HP716039   1.867   5.356   1.193  0.2650  1.4280 -1.3294
  642THY    CA316040   1.823   5.737   1.350 -0.0613  0.1364  0.2832
  642THY    HA316041   1.835   5.740   1.243  1.0975 -0.2442  0.3858
  642THY    CA416042   1.850   5.851   1.425  0.2331 -0.4257  0.2032
  642THY    HA416043   1.861   5.945   1.372 -1.3104 -0.6247 -0.5312
  642THY    CA516044   1.879   5.850   1.565 -0.1953  0.4159 -0.0838
  642THY    CM116045   1.942   5.969   1.631 -0.5494 -0.6588  0.0657
  642THY    HM116046   1.876   6.054   1.649  0.9136  1.1352 -2.4818
  642THY    HM216047   1.994   5.946   1.725  1.6927  2.3604 -0.2770
  642THY    HM316048   2.012   6.013   1.559 -2.9409 -1.1693 -2.7166
  642THY    CA616049   1.862   5.727   1.635  0.2656  0.2684  0.0950
  642THY    HA616050   1.883   5.712   1.740  0.5766  0.1762  0.0187
  643THY      O16051   7.800   3.877   7.624  0.2830 -0.1328  0.1958
  643THY     HO16052   7.749   3.795   7.617 -0.6101  0.5238 -2.6432
  643THY    CA116053   7.870   3.894   7.508  0.2393  0.1465 -0.3314
  643THY    CA216054   7.984   3.982   7.494 -0.5972  0.3735  0.1291
  643THY    CP116055   8.030   4.064   7.615 -0.0626 -0.2421  0.1228
  643THY    HP116056   7.995   4.009   7.704  3.0695 -0.3761  1.3760
  643THY    CP216057   8.182   4.064   7.639 -0.0420 -0.0150  0.3721
  643THY    HP216058   8.222   4.127   7.558 -1.9613 -1.5635 -1.9369
  643THY    HP316059   8.214   4.092   7.740 -0.9891 -1.4503  1.1024
  643THY    HP416060   8.225   3.966   7.617  1.9654  0.8054  0.4379
  643THY    CP316061   7.984   4.205   7.611  0.4820 -0.2957 -0.0032
  643THY    HP516062   8.047   4.277   7.557  1.9834  0.2489  2.3319
  643THY    HP616063   7.877   4.203   7.587  0.5951 -4.3629 -0.8988
  643THY    HP716064   7.999   4.245   7.712  0.4035 -0.6892  0.1652
  643THY    CA316065   8.053   3.992   7.374 -0.4110  0.3396  0.5361
  643THY    HA316066   8.147   4.046   7.371 -1.5017  2.3203 -2.8185
  643THY    CA416067   8.016   3.907   7.267 -0.0065  0.6597  0.5193
  643THY    HA416068   8.068   3.906   7.171 -0.9196 -3.6351 -0.1305
  643THY    CA516069   7.897   3.830   7.280  0.4031 -1.1099  0.0362
  643THY    CM116070   7.852   3.737   7.173  0.4721  0.1851 -0.4549
  643THY    HM116071   7.912   3.755   7.083 -0.2659 -0.5063 -1.0997
  643THY    HM216072   7.861   3.631   7.199 -0.8837  0.5441  1.7564
  643THY    HM316073   7.749   3.765   7.146 -0.0453 -0.5307  0.6701
  643THY    CA616074   7.827   3.831   7.401  0.1113  0.2355  0.6153
  643THY    HA616075   7.733   3.778   7.410  0.5065 -0.9762 -1.5940
  644THY      O16076   1.648   4.086   5.629  0.0627  0.2271  0.4073
  644THY     HO16077   1.660   4.003   5.678 -1.1798 -0.3663 -0.2583
  644THY    CA116078   1.712   4.048   5.513  0.3449  0.1546 -0.3270
  644THY    CA216079   1.662   4.073   5.383 -0.1955  0.9694  0.1743
  644THY    CP116080   1.553   4.171   5.364  0.2150  0.2416 -0.0462
  644THY    HP116081   1.545   4.231   5.455 -0.2222  2.5744 -1.5278
  644THY    CP216082   1.580   4.266   5.246 -0.1315  0.6093  0.5563
  644THY    HP216083   1.495   4.335   5.248  1.1440  2.2307  2.1169
  644THY    HP316084   1.668   4.328   5.266 -0.0589  0.4677  0.6835
  644THY    HP416085   1.596   4.215   5.150  2.1835 -0.4843  1.4399
  644THY    CP316086   1.424   4.105   5.339  0.1908  0.6001 -0.4787
  644THY    HP516087   1.412   4.005   5.383 -0.9792  0.2424 -1.5408
  644THY    HP616088   1.344   4.171   5.375  1.2231  1.6220  0.0064
  644THY    HP716089   1.397   4.094   5.233 -0.2099 -0.1892 -0.3000
  644THY    CA316090   1.726   4.012   5.272  0.1028 -0.3263  0.0065
  644THY    HA316091   1.683   4.033   5.174 -2.1822 -1.6523  0.6418
  644THY    CA416092   1.834   3.928   5.291 -0.5847  0.3294  0.7672
  644THY    HA416093   1.887   3.876   5.212  0.2796  0.3032  1.3489
  644THY    CA516094   1.888   3.907   5.418  0.2372  0.0509 -0.0193
  644THY    CM116095   2.014   3.829   5.428  0.8263 -0.7182  0.3495
  644THY    HM116096   2.069   3.796   5.339  1.6422 -2.4758  1.4528
  644THY    HM216097   2.084   3.885   5.491 -0.6181 -0.5059  1.8072
  644THY    HM316098   1.986   3.737   5.481 -0.0756  0.1488  1.4209
  644THY    CA616099   1.830   3.967   5.525 -0.7132  0.1904 -0.5989
  644THY    HA616100   1.874   3.941   5.621  1.0274  0.9732 -1.1436
  645THY      O16101   0.764   3.823   2.356  0.1318 -0.1835  0.3084
  645THY     HO16102   0.721   3.793   2.438 -0.4546 -1.3703 -0.4063
  645THY    CA116103   0.830   3.721   2.301 -0.1275  0.3768  0.2077
  645THY    CA216104   0.912   3.734   2.187  0.1524  0.0276 -0.5099
  645THY    CP116105   0.937   3.873   2.121 -0.1551 -0.1775  0.6860
  645THY    HP116106   0.902   3.954   2.185  0.1725  0.7507 -0.2847
  645THY    CP216107   1.085   3.891   2.108 -0.3039 -0.0155 -0.5480
  645THY    HP216108   1.136   3.872   2.202  1.5302  0.7959 -1.3417
  645THY    HP316109   1.144   3.830   2.038  0.8385  2.7578 -2.1652
  645THY    HP416110   1.102   3.998   2.093  0.1665 -0.2058 -1.4613
  645THY    CP316111   0.863   3.887   1.985  0.0630  0.2165  0.0746
  645THY    HP516112   0.872   3.981   1.930  1.8948  1.1213  1.7715
  645THY    HP616113   0.903   3.809   1.918  0.2487  0.4518 -0.0899
  645THY    HP716114   0.758   3.883   2.015  0.2313  0.8414  0.7569
  645THY    CA316115   0.979   3.622   2.136 -0.2094  0.0180 -0.2103
  645THY    HA316116   1.043   3.630   2.048  0.9491  0.5919  0.6528
  645THY    CA416117   0.962   3.499   2.199 -0.2580 -0.2136  0.1022
  645THY    HA416118   0.995   3.409   2.148 -1.7243  0.2103 -1.7125
  645THY    CA516119   0.879   3.487   2.311 -0.0539 -0.2522  0.6030
  645THY    CM116120   0.832   3.357   2.354  0.4087  1.0819 -0.2112
  645THY    HM116121   0.770   3.306   2.280  0.8800 -1.2276  0.9134
  645THY    HM216122   0.911   3.283   2.372 -0.5267 -0.5136 -2.2747
  645THY    HM316123   0.774   3.366   2.446  2.2958 -0.1509  1.1637
  645THY    CA616124   0.816   3.599   2.369  0.3194 -0.2940  0.7611
  645THY    HA616125   0.740   3.590   2.446 -0.7505 -1.1531 -0.3564
  646THY      O16126   7.794   7.508   9.336  0.7656  0.6045  0.4298
  646THY     HO16127   7.849   7.429   9.321 -0.4910 -0.2508  0.0820
  646THY    CA116128   7.667   7.464   9.308 -0.3307 -0.6577 -0.1237
  646THY    CA216129   7.561   7.535   9.353  0.4679  0.5882  0.0251
  646THY    CP116130   7.570   7.669   9.420 -0.1567 -0.9530 -0.0726
  646THY    HP116131   7.671   7.706   9.436 -0.4700 -0.9032  2.2167
  646THY    CP216132   7.501   7.771   9.335 -0.2021  0.1167 -0.3342
  646THY    HP216133   7.397   7.749   9.310 -1.2467  1.6076  2.3075
  646THY    HP316134   7.482   7.861   9.394  1.1793  0.3606 -0.2287
  646THY    HP416135   7.573   7.816   9.265  0.2091  2.3561  1.4102
  646THY    CP316136   7.515   7.664   9.567  0.3212 -0.3035  0.2264
  646THY    HP516137   7.485   7.764   9.601  0.2921  0.4526 -1.8958
  646THY    HP616138   7.437   7.587   9.568  0.4792 -0.4979  2.3070
  646THY    HP716139   7.605   7.635   9.623 -0.6375 -0.2249  1.8752
  646THY    CA316140   7.437   7.480   9.314  0.1992 -0.5013 -0.4419
  646THY    HA316141   7.340   7.521   9.339 -0.9436 -2.2522 -1.7432
  646THY    CA416142   7.425   7.372   9.235  0.3443  0.1359 -0.4915
  646THY    HA416143   7.323   7.342   9.212  0.2023 -0.9016  1.2608
  646THY    CA516144   7.532   7.298   9.197  0.4295 -0.0820  0.1620
  646THY    CM116145   7.502   7.169   9.126 -0.0100  0.1130  0.8120
  646THY    HM116146   7.450   7.199   9.034  0.0324  1.5651  1.2302
  646THY    HM216147   7.592   7.119   9.091 -0.1470  0.4627 -0.0796
  646THY    HM316148   7.440   7.094   9.176 -0.4877 -0.6027 -0.7623
  646THY    CA616149   7.659   7.341   9.238 -0.9569 -0.0150  0.3663
  646THY    HA616150   7.751   7.291   9.210 -0.2009  1.5187 -0.0248
  647THY      O16151   6.534   1.271   1.519 -0.3040 -0.2829 -0.4691
  647THY     HO16152   6.520   1.175   1.519  0.5166 -0.4651 -2.7865
  647THY    CA116153   6.624   1.289   1.419  0.1611 -0.4127 -0.3559
  647THY    CA216154   6.706   1.405   1.409  0.3106  0.3193 -0.3944
  647THY    CP116155   6.700   1.503   1.523  0.1098 -0.3859 -0.5176
  647THY    HP116156   6.606   1.491   1.577  0.2248  0.0871 -0.2015
  647THY    CP216157   6.810   1.465   1.628  0.0322 -0.3893 -0.0313
  647THY    HP216158   6.759   1.393   1.693 -0.0647  0.3454  0.7236
  647THY    HP316159   6.897   1.408   1.593 -0.0898 -1.2614  1.0456
  647THY    HP416160   6.837   1.550   1.693  1.1520 -0.2537 -0.6487
  647THY    CP316161   6.723   1.651   1.483 -0.4839 -0.5542 -0.0077
  647THY    HP516162   6.641   1.689   1.420 -0.4459  1.3157  0.9749
  647THY    HP616163   6.718   1.718   1.569  0.3797  0.2661 -0.5750
  647THY    HP716164   6.822   1.674   1.442 -0.1409 -2.5764 -0.3953
  647THY    CA316165   6.798   1.421   1.298 -0.5031  0.1193  0.5113
  647THY    HA316166   6.877   1.495   1.289 -0.7226  0.0968 -2.7208
  647THY    CA416167   6.803   1.317   1.209  0.1543 -0.4006  0.9590
  647THY    HA416168   6.871   1.319   1.124 -1.6565  2.2337 -0.5810
  647THY    CA516169   6.706   1.214   1.204 -0.5433  0.5915 -0.9434
  647THY    CM116170   6.703   1.105   1.098 -0.4947  0.1112  0.3604
  647THY    HM116171   6.646   1.017   1.129 -0.8122  0.6070  1.2072
  647THY    HM216172   6.657   1.141   1.005  2.2813  1.6962 -0.5285
  647THY    HM316173   6.803   1.070   1.068 -0.4344 -0.2339  0.9636
  647THY    CA616174   6.616   1.205   1.313 -0.0296  0.4252  0.1783
  647THY    HA616175   6.548   1.120   1.318  0.7289 -0.4386 -2.6334
  648THY      O16176   5.378   5.847   8.689 -0.0132  0.4560 -0.2232
  648THY     HO16177   5.384   5.750   8.684  0.1125  0.3972  0.8135
  648THY    CA116178   5.470   5.886   8.597  0.2869  0.0683 -0.0610
  648THY    CA216179   5.533   6.008   8.618 -0.7384 -0.2816 -0.5515
  648THY    CP116180   5.495   6.105   8.732  0.1241  0.1108  0.6486
  648THY    HP116181   5.389   6.092   8.757 -0.8761  0.0354 -3.1346
  648THY    CP216182   5.574   6.066   8.859  0.7429  0.5245  0.1141
  648THY    HP216183   5.573   5.958   8.875 -0.9645  0.3230 -1.1161
  648THY    HP316184   5.677   6.102   8.855  0.9784 -0.2245 -1.2053
  648THY    HP416185   5.511   6.101   8.942 -0.2133 -1.9425  0.5082
  648THY    CP316186   5.505   6.258   8.702 -0.5886 -0.0130 -0.8195
  648THY    HP516187   5.439   6.328   8.755  0.8376  0.7830 -0.0429
  648THY    HP616188   5.603   6.293   8.734 -0.8778 -0.7249  0.9499
  648THY    HP716189   5.489   6.267   8.594 -2.5098  2.2062 -0.4350
  648THY    CA316190   5.641   6.044   8.531  0.2279 -0.0491 -0.4965
  648THY    HA316191   5.697   6.136   8.541  2.4244 -1.4546  0.9207
  648THY    CA416192   5.667   5.958   8.425  0.2747 -0.3434 -0.2684
  648THY    HA416193   5.755   5.997   8.374 -0.3740  3.0904  0.9800
  648THY    CA516194   5.610   5.828   8.410 -0.1715  0.0697 -0.9320
  648THY    CM116195   5.645   5.730   8.296 -0.3695  0.7887 -0.1863
  648THY    HM116196   5.620   5.633   8.338 -0.8127  1.0909  0.2548
  648THY    HM216197   5.574   5.749   8.215  1.4930  0.6897 -1.9475
  648THY    HM316198   5.747   5.726   8.256 -1.1955  0.1450 -2.3757
  648THY    CA616199   5.514   5.792   8.503 -0.6787  0.4234 -0.0417
  648THY    HA616200   5.452   5.704   8.486 -2.8441  2.0997 -1.5070
  649THY      O16201   6.945   2.307   2.083  0.3484  0.2696  0.0680
  649THY     HO16202   6.985   2.240   2.026  0.0547 -2.4212  2.7339
  649THY    CA116203   6.814   2.276   2.079 -0.9285 -0.2984 -0.2674
  649THY    CA216204   6.709   2.375   2.072  0.4612  0.2438 -0.2170
  649THY    CP116205   6.734   2.521   2.090 -0.6430  0.2717  0.2977
  649THY    HP116206   6.841   2.536   2.107 -0.5971 -0.3104  0.5359
  649THY    CP216207   6.716   2.607   1.966 -0.2162 -0.1393  0.6207
  649THY    HP216208   6.733   2.709   2.000  2.2236 -0.8798  1.8445
  649THY    HP316209   6.782   2.589   1.880 -2.0946 -0.9030 -0.7405
  649THY    HP416210   6.612   2.597   1.930  0.5443 -1.4434 -1.3981
  649THY    CP316211   6.657   2.583   2.205  0.6863  0.0637  0.2995
  649THY    HP516212   6.688   2.685   2.228 -1.3766  1.5599 -2.9114
  649THY    HP616213   6.548   2.573   2.201  0.8846 -2.3243 -1.3171
  649THY    HP716214   6.679   2.528   2.298 -0.5986  0.8177  1.0752
  649THY    CA316215   6.579   2.328   2.034 -0.3237 -0.1263  0.3324
  649THY    HA316216   6.495   2.396   2.035 -0.3404 -0.1125 -1.0516
  649THY    CA416217   6.557   2.192   2.014 -0.1462  0.2797  0.2434
  649THY    HA416218   6.458   2.162   1.982  0.2783 -0.3639 -0.5050
  649THY    CA516219   6.662   2.101   2.034 -0.7307  0.0642 -0.2995
  649THY    CM116220   6.652   1.957   1.999 -0.0691  0.0845 -0.5537
  649THY    HM116221   6.555   1.919   1.964 -0.7135  0.4127  0.8203
  649THY    HM216222   6.728   1.934   1.922  2.1175  1.7688  0.9792
  649THY    HM316223   6.674   1.896   2.087 -0.5155  0.8578  0.1035
  649THY    CA616224   6.788   2.147   2.049  0.0807  0.0557  0.0893
  649THY    HA616225   6.871   2.077   2.050 -0.8585 -1.1290 -1.0929
  650THY      O16226   3.814   3.551   0.426  0.1852  0.1966 -0.3718
  650THY     HO16227   3.855   3.562   0.513  0.9919  0.2089 -0.7452
  650THY    CA116228   3.702   3.471   0.429 -0.3751  0.5590 -0.5505
  650THY    CA216229   3.663   3.404   0.313 -0.1720  0.4665 -0.7783
  650THY    CP116230   3.753   3.418   0.187 -0.4227 -0.3086  0.2918
  650THY    HP116231   3.819   3.505   0.191  0.3231 -0.8977  1.4151
  650THY    CP216232   3.842   3.296   0.168 -0.2113  0.1185 -0.0243
  650THY    HP216233   3.937   3.304   0.222  0.1474 -0.2489 -0.5969
  650THY    HP316234   3.787   3.208   0.204 -0.5212  0.4123  0.2295
  650THY    HP416235   3.873   3.275   0.065  2.9424 -1.2598  1.0817
  650THY    CP316236   3.665   3.447   0.061 -0.3184 -0.1732 -0.1386
  650THY    HP516237   3.585   3.517   0.090 -0.3137 -0.3766  0.3578
  650THY    HP616238   3.726   3.496  -0.016  0.2173 -0.2331  0.2448
  650THY    HP716239   3.627   3.355   0.014  1.5157 -0.3249 -1.4460
  650THY    CA316240   3.555   3.317   0.319 -0.4039 -0.4287 -0.0049
  650THY    HA316241   3.524   3.268   0.227 -1.5372 -0.9667  0.6488
  650THY    CA416242   3.480   3.302   0.440  0.0964  0.4147  0.0905
  650THY    HA416243   3.399   3.231   0.450 -0.0435  0.2099 -1.9277
  650THY    CA516244   3.524   3.370   0.553  0.4835  0.1870 -0.0256
  650THY    CM116245   3.441   3.366   0.674 -1.0607 -0.1463  0.1364
  650THY    HM116246   3.395   3.270   0.702 -1.7211  0.1783  0.1983
  650THY    HM216247   3.499   3.383   0.766 -1.3258 -4.8551  1.4418
  650THY    HM316248   3.359   3.439   0.671 -0.3607  0.6175 -0.8476
  650THY    CA616249   3.637   3.458   0.547  0.6771  0.5859 -0.1402
  650THY    HA616250   3.669   3.517   0.632 -1.3163  1.9086 -0.2494
  651THY      O16251   7.311   0.692   1.133  0.5653 -0.0571  0.1217
  651THY     HO16252   7.256   0.612   1.136 -0.6945  0.7089 -1.3017
  651THY    CA116253   7.233   0.773   1.057  0.0797 -0.3463  0.8644
  651THY    CA216254   7.223   0.911   1.084  0.0587 -0.1191 -0.3636
  651THY    CP116255   7.316   0.982   1.180 -0.3064  0.0174  0.1674
  651THY    HP116256   7.385   0.907   1.221  1.0819  1.2375  0.1217
  651THY    CP216257   7.409   1.082   1.111 -0.3724 -0.4666 -0.2224
  651THY    HP216258   7.362   1.178   1.089 -2.0857 -1.0566  0.6476
  651THY    HP316259   7.489   1.107   1.181 -0.4131 -0.5902 -0.1304
  651THY    HP416260   7.444   1.035   1.018 -0.4899  1.1343 -1.1163
  651THY    CP316261   7.240   1.047   1.290  0.6269 -0.0417 -0.4176
  651THY    HP516262   7.149   1.095   1.250  0.5830 -0.1379 -0.4355
  651THY    HP616263   7.199   0.983   1.369 -0.7179 -0.1394 -1.1485
  651THY    HP716264   7.299   1.125   1.337  0.8580 -0.6590  0.3294
  651THY    CA316265   7.129   0.983   1.014 -0.3510 -0.0777 -0.1984
  651THY    HA316266   7.124   1.090   1.032  2.6826 -0.2747  2.7388
  651THY    CA416267   7.055   0.922   0.912  0.4286 -0.4080  0.4185
  651THY    HA416268   7.003   0.978   0.835 -0.7174  0.9035  2.0793
  651THY    CA516269   7.073   0.786   0.883 -0.1091 -0.2581  0.3669
  651THY    CM116270   7.003   0.732   0.764 -0.1643  0.7560  0.4717
  651THY    HM116271   7.038   0.796   0.682  1.9061 -0.7133  0.1218
  651THY    HM216272   7.042   0.632   0.744  0.0453  1.0045 -0.4246
  651THY    HM316273   6.893   0.740   0.765 -0.1618  0.8335  1.7307
  651THY    CA616274   7.159   0.710   0.958 -0.2440 -0.0750 -0.1632
  651THY    HA616275   7.166   0.603   0.940 -0.7556 -0.1376  0.0101
  652THY      O16276   5.005   2.898   4.840  0.1498  0.1065  0.3086
  652THY     HO16277   5.101   2.900   4.858  0.2288  1.3022 -0.1558
  652THY    CA116278   4.981   3.011   4.771 -0.1727  0.0887 -0.7274
  652THY    CA216279   4.848   3.075   4.767 -0.0615 -0.0755 -0.3962
  652THY    CP116280   4.723   3.014   4.838  0.0481 -0.7897 -0.2425
  652THY    HP116281   4.749   2.909   4.861 -1.0758 -1.3096 -1.2446
  652THY    CP216282   4.702   3.072   4.970  0.7828  0.5793 -0.2758
  652THY    HP216283   4.791   3.066   5.034 -1.4773  0.8161  3.1794
  652THY    HP316284   4.674   3.177   4.950  0.3882  1.0468  2.3428
  652THY    HP416285   4.614   3.032   5.021 -1.0721  1.0194 -2.9112
  652THY    CP316286   4.601   3.019   4.746  0.2402 -0.0611 -0.1242
  652THY    HP516287   4.581   3.125   4.722  2.3199  0.6721  1.0889
  652THY    HP616288   4.617   2.963   4.654  0.3702 -2.9872  1.5527
  652THY    HP716289   4.514   2.970   4.792  1.7436 -2.1287  0.6417
  652THY    CA316290   4.840   3.192   4.686 -0.1829 -1.1928 -0.0511
  652THY    HA316291   4.748   3.248   4.674 -0.0363 -1.2866 -2.1031
  652THY    CA416292   4.954   3.233   4.613 -0.0877  0.1655  0.1863
  652THY    HA416293   4.936   3.307   4.535 -3.6116 -1.7156 -1.0488
  652THY    CA516294   5.079   3.168   4.624  0.3590  0.2190  0.2579
  652THY    CM116295   5.186   3.216   4.533 -0.2108  0.0110  0.5410
  652THY    HM116296   5.155   3.282   4.451  1.1449 -1.7674 -1.5417
  652THY    HM216297   5.245   3.280   4.599 -1.3154  0.0370  1.5363
  652THY    HM316298   5.244   3.131   4.493 -0.6363  0.8703 -2.1058
  652THY    CA616299   5.093   3.061   4.708 -0.5942 -0.1587 -0.0664
  652THY    HA616300   5.189   3.017   4.729 -0.8393 -0.2546  0.8650
  653THY      O16301   4.894   5.995   6.403  0.0978  0.0129  0.4314
  653THY     HO16302   4.878   5.918   6.459 -0.5990  0.2531  0.5691
  653THY    CA116303   4.967   5.956   6.300 -0.2138  0.1212 -0.0302
  653THY    CA216304   5.055   6.049   6.238 -0.3275 -0.3291  0.5464
  653THY    CP116305   5.042   6.197   6.278  0.2169  0.3078  0.4313
  653THY    HP116306   5.032   6.198   6.387 -0.1602  0.4438  0.3962
  653THY    CP216307   5.164   6.287   6.253 -0.5203  0.2981 -0.3686
  653THY    HP216308   5.255   6.244   6.296 -1.2199  0.5910  1.4803
  653THY    HP316309   5.177   6.319   6.149  0.6333  0.7374 -0.0955
  653THY    HP416310   5.154   6.372   6.321  1.0460 -0.3580  0.7403
  653THY    CP316311   4.921   6.259   6.217 -0.4094 -0.2712  0.2947
  653THY    HP516312   4.903   6.364   6.245  0.6634  0.3531 -1.2099
  653THY    HP616313   4.924   6.254   6.107 -2.2807  0.6812  0.1518
  653THY    HP716314   4.829   6.204   6.241 -1.5965 -0.5341 -3.9655
  653THY    CA316315   5.148   6.006   6.133 -0.1301 -0.8430  0.2643
  653THY    HA316316   5.216   6.072   6.081 -1.3542 -0.1211 -0.4949
  653THY    CA416317   5.149   5.871   6.108 -0.3745 -0.4783  0.3386
  653THY    HA416318   5.226   5.835   6.040 -0.0775 -0.1710  0.5099
  653THY    CA516319   5.064   5.781   6.175  0.2269 -0.5538 -0.6303
  653THY    CM116320   5.065   5.635   6.134 -0.7420 -0.7708  0.6275
  653THY    HM116321   5.048   5.619   6.027 -0.7026  1.0240  0.3322
  653THY    HM216322   5.158   5.583   6.158  1.0945  0.0538 -3.7142
  653THY    HM316323   4.987   5.577   6.186 -0.6938 -0.2811  1.2615
  653THY    CA616324   4.974   5.830   6.271 -0.7008 -0.0957 -0.4405
  653THY    HA616325   4.910   5.755   6.317 -0.8941 -0.5804 -1.4448
  654THY      O16326   7.680   4.062   0.266  0.2841 -0.1446  0.6949
  654THY     HO16327   7.605   4.110   0.226 -0.7407 -2.4760 -0.3637
  654THY    CA116328   7.624   4.044   0.381  0.0473  0.8211 -0.7198
  654THY    CA216329   7.698   4.027   0.501 -0.3263  0.4505  0.4099
  654THY    CP116330   7.851   4.034   0.507  0.4161 -0.6480  0.9684
  654THY    HP116331   7.890   4.050   0.406 -3.2572 -0.7610 -0.6464
  654THY    CP216332   7.904   4.143   0.597 -0.1562 -0.4298 -0.2227
  654THY    HP216333   7.866   4.242   0.565  0.4805 -0.1493 -0.1151
  654THY    HP316334   7.874   4.124   0.700 -1.0794  0.8187 -0.2364
  654THY    HP416335   8.013   4.150   0.592 -0.0853 -1.6165 -0.6393
  654THY    CP316336   7.917   3.911   0.558 -0.1098  0.2685  0.1256
  654THY    HP516337   7.886   3.822   0.502 -0.9608  0.5732  0.0951
  654THY    HP616338   8.019   3.929   0.521 -0.3576  1.7198  0.0904
  654THY    HP716339   7.912   3.886   0.665 -2.2769  1.2572  0.3022
  654THY    CA316340   7.627   4.002   0.619 -0.8032 -0.0284  0.5909
  654THY    HA316341   7.680   3.973   0.709  0.0009 -0.9739 -0.1600
  654THY    CA416342   7.492   4.014   0.620 -0.2398  0.2048  0.4192
  654THY    HA416343   7.433   3.995   0.709 -0.4106 -0.1188  0.2384
  654THY    CA516344   7.415   4.036   0.508  0.8305  0.1593 -0.0792
  654THY    CM116345   7.263   4.043   0.518 -0.5783  0.4501  0.1298
  654THY    HM116346   7.229   4.111   0.597 -4.8909 -0.7941 -0.3707
  654THY    HM216347   7.230   4.081   0.420  1.1669  2.8132  0.3642
  654THY    HM316348   7.226   3.940   0.524 -1.3937  0.5842 -1.7886
  654THY    CA616349   7.484   4.050   0.388 -0.0796 -0.3581 -0.7443
  654THY    HA616350   7.413   4.069   0.308 -1.2457  1.0857  0.5497
  655THY      O16351   3.080   4.129   8.939  0.8472 -0.4621 -0.7115
  655THY     HO16352   3.062   4.223   8.960  4.3871 -0.2063  1.9864
  655THY    CA116353   3.197   4.125   8.865  0.3849 -0.0544 -0.0978
  655THY    CA216354   3.268   4.001   8.842  0.2425  0.5267 -0.1844
  655THY    CP116355   3.230   3.872   8.910 -0.2475  0.8439 -0.6855
  655THY    HP116356   3.132   3.885   8.958 -0.7420 -2.2671 -0.6095
  655THY    CP216357   3.202   3.756   8.819  0.2738 -0.0953  0.3200
  655THY    HP216358   3.095   3.756   8.795  0.4952 -0.9659 -0.8094
  655THY    HP316359   3.241   3.769   8.717  2.1151  0.9305  1.1194
  655THY    HP416360   3.237   3.665   8.871  2.7625  1.1302  0.9425
  655THY    CP316361   3.341   3.819   9.014  0.2478 -0.0957  0.0597
  655THY    HP516362   3.423   3.778   8.955 -0.6504 -0.6813 -0.8174
  655THY    HP616363   3.380   3.908   9.065 -1.5704 -0.1170  1.6157
  655THY    HP716364   3.303   3.746   9.086  0.4168 -1.1225 -0.8593
  655THY    CA316365   3.380   3.997   8.757 -0.0544  0.1513 -0.0638
  655THY    HA316366   3.438   3.906   8.745 -0.7394 -0.1404 -1.2835
  655THY    CA416367   3.429   4.112   8.700  0.7154 -0.8726 -0.2434
  655THY    HA416368   3.524   4.117   8.649 -0.1474  1.3107 -1.7616
  655THY    CA516369   3.346   4.223   8.703  0.2788  0.5803 -0.5637
  655THY    CM116370   3.380   4.341   8.613 -0.0515 -0.0478 -0.6782
  655THY    HM116371   3.292   4.407   8.607  0.2673  0.3592 -0.8938
  655THY    HM216372   3.462   4.394   8.662  1.4074 -2.9097  0.2046
  655THY    HM316373   3.413   4.320   8.511 -1.7881 -1.2367 -1.0583
  655THY    CA616374   3.231   4.232   8.786 -1.4509  0.4364  0.7478
  655THY    HA616375   3.167   4.320   8.792 -1.6626  0.3717 -0.2648
  656THY      O16376   6.785   7.792   1.378 -0.4511  0.3101 -0.5275
  656THY     HO16377   6.872   7.752   1.398 -0.0096  0.9797 -1.0851
  656THY    CA116378   6.699   7.717   1.449  0.0767  0.0020 -0.4780
  656THY    CA216379   6.565   7.728   1.438 -0.6947 -0.0414  0.4316
  656THY    CP116380   6.505   7.837   1.343  0.2672 -0.2326  0.4929
  656THY    HP116381   6.574   7.887   1.275 -0.3995  1.3683  0.9537
  656THY    CP216382   6.393   7.776   1.248 -0.2553 -0.5028  0.3375
  656THY    HP216383   6.323   7.714   1.305 -0.2539 -2.0520 -1.2783
  656THY    HP316384   6.347   7.853   1.185 -0.5341 -3.1933 -3.0346
  656THY    HP416385   6.438   7.717   1.168 -0.2896  0.9677 -0.8238
  656THY    CP316386   6.444   7.952   1.425 -0.2631 -0.7808  0.0031
  656THY    HP516387   6.506   8.003   1.500 -1.2792 -0.4934  0.6630
  656THY    HP616388   6.405   8.038   1.370 -2.4588 -1.5306  0.2770
  656THY    HP716389   6.363   7.902   1.478 -0.7272  0.2293  0.2662
  656THY    CA316390   6.481   7.649   1.517  0.1934  0.1554 -0.0580
  656THY    HA316391   6.373   7.655   1.515 -0.0477 -0.7494  3.4870
  656THY    CA416392   6.536   7.550   1.604 -0.1839 -0.6313  0.6929
  656THY    HA416393   6.478   7.494   1.677 -0.6546 -1.9913 -0.6678
  656THY    CA516394   6.680   7.537   1.610  0.7052 -0.4532 -0.0007
  656THY    CM116395   6.747   7.441   1.702  0.5657 -0.4207 -1.1926
  656THY    HM116396   6.717   7.341   1.669  1.5746 -0.8102 -0.9670
  656THY    HM216397   6.856   7.447   1.707  0.9019 -3.3275 -2.6178
  656THY    HM316398   6.695   7.451   1.797 -0.6079 -0.1078 -1.8479
  656THY    CA616399   6.760   7.614   1.528 -0.0143 -0.2368 -1.0263
  656THY    HA616400   6.867   7.613   1.545 -0.0897  2.9153  0.1829
  657THY      O16401   2.751   9.352   9.385  0.5857  0.1445  0.3091
  657THY     HO16402   2.670   9.348   9.332  1.4220  1.8588 -1.2148
  657THY    CA116403   2.739   9.454   9.473 -0.0292 -0.2888  0.2768
  657THY    CA216404   2.813   9.458   9.592 -0.0711 -0.1469 -0.0300
  657THY    CP116405   2.920   9.352   9.616  0.3930  0.4659 -0.0015
  657THY    HP116406   2.961   9.328   9.517  0.1583  3.6103 -0.9715
  657THY    CP216407   3.040   9.389   9.705  0.6264  0.4663  0.1905
  657THY    HP216408   3.118   9.312   9.695  0.6643  0.2505  1.8685
  657THY    HP316409   3.080   9.487   9.679  1.5394  0.4732  1.5245
  657THY    HP416410   3.026   9.373   9.813  0.4599 -0.9648 -0.0188
  657THY    CP316411   2.849   9.230   9.684 -0.3355  0.1463  0.4029
  657THY    HP516412   2.801   9.263   9.777  1.7516  2.2981  0.8326
  657THY    HP616413   2.773   9.180   9.624  0.7569 -2.0636  0.7488
  657THY    HP716414   2.925   9.157   9.715 -0.9239  0.1231  1.8991
  657THY    CA316415   2.786   9.556   9.686 -0.0976  0.1619  0.2908
  657THY    HA316416   2.847   9.564   9.776 -0.8957  0.6382  0.8090
  657THY    CA416417   2.683   9.653   9.660  0.5906 -0.2910  0.6742
  657THY    HA416418   2.670   9.737   9.727  1.1568  1.3209 -1.1467
  657THY    CA516419   2.615   9.647   9.538  0.2773 -0.1121  0.4260
  657THY    CM116420   2.504   9.738   9.503  0.1832 -0.2858 -0.1165
  657THY    HM116421   2.490   9.812   9.583 -0.5390  1.2526 -1.6045
  657THY    HM216422   2.519   9.791   9.408  0.9246 -0.8384 -0.3192
  657THY    HM316423   2.406   9.688   9.501 -0.4887  0.9931 -0.2831
  657THY    CA616424   2.649   9.551   9.447  0.0543 -0.1252  0.2731
  657THY    HA616425   2.588   9.544   9.358 -0.4127  2.5471  0.3082
  658THY      O16426   6.235   1.813   8.255 -0.1702 -0.3343  0.1853
  658THY     HO16427   6.227   1.902   8.292 -0.1741  0.2071 -1.0597
  658THY    CA116428   6.364   1.781   8.261 -0.0341 -0.9326 -0.2039
  658THY    CA216429   6.412   1.651   8.236  0.1649  0.1499  0.3146
  658THY    CP116430   6.318   1.534   8.197  0.0139 -0.9256 -0.3330
  658THY    HP116431   6.212   1.558   8.212  0.3479 -0.0331  0.7273
  658THY    CP216432   6.352   1.481   8.056 -0.0337 -0.4462 -0.3401
  658THY    HP216433   6.453   1.438   8.053  1.5518  2.8797  1.1981
  658THY    HP316434   6.271   1.411   8.032  0.8320 -2.1016  1.2892
  658THY    HP416435   6.338   1.565   7.988  1.5144  1.1314  1.2039
  658THY    CP316436   6.334   1.411   8.287 -0.2123  0.3905 -0.3492
  658THY    HP516437   6.439   1.382   8.270 -0.0192  0.8960 -0.0374
  658THY    HP616438   6.324   1.423   8.396 -1.3613  1.4288 -0.5429
  658THY    HP716439   6.266   1.331   8.255  0.2888  0.0264 -0.5231
  658THY    CA316440   6.551   1.632   8.235 -0.1418  0.3109  0.2887
  658THY    HA316441   6.593   1.541   8.193  1.1394 -0.2498  2.5959
  658THY    CA416442   6.640   1.734   8.270 -0.2408 -0.3610 -0.3109
  658THY    HA416443   6.743   1.700   8.272 -0.5317 -1.2644 -0.1567
  658THY    CA516444   6.593   1.865   8.301  0.5820  0.2818 -0.1681
  658THY    CM116445   6.697   1.974   8.343  0.1644 -0.6036 -0.3672
  658THY    HM116446   6.665   2.057   8.406  2.3111 -0.9844  1.3379
  658THY    HM216447   6.786   1.934   8.393 -0.3917  1.4378  2.4393
  658THY    HM316448   6.735   2.014   8.248 -0.4660 -0.3367 -0.5100
  658THY    CA616449   6.452   1.890   8.293 -0.6046  0.2496 -0.1716
  658THY    HA616450   6.412   1.990   8.308  1.1865  1.2221 -1.5482
  659THY      O16451   4.304   2.642   2.452 -0.0627 -0.7709  0.2741
  659THY     HO16452   4.328   2.659   2.545 -0.3682  0.9995  0.0648
  659THY    CA116453   4.293   2.509   2.440 -0.2404  0.0183  0.2276
  659THY    CA216454   4.317   2.447   2.317 -0.2699 -0.2887 -0.1407
  659THY    CP116455   4.382   2.516   2.198  0.8030 -0.1995  0.3629
  659THY    HP116456   4.350   2.620   2.193  0.4577 -0.3834 -2.1669
  659THY    CP216457   4.537   2.520   2.199 -0.1087  0.3172 -0.1321
  659THY    HP216458   4.573   2.545   2.299 -4.1512  3.0993  0.8958
  659THY    HP316459   4.575   2.422   2.169  0.6947  0.0774  1.5737
  659THY    HP416460   4.587   2.592   2.133  2.7604 -0.3413  1.2123
  659THY    CP316461   4.317   2.463   2.064  0.2832  0.5835  0.0534
  659THY    HP516462   4.209   2.478   2.073  0.4742  1.2493  1.8306
  659THY    HP616463   4.358   2.511   1.975  1.0044 -1.7039 -0.9157
  659THY    HP716464   4.326   2.356   2.044 -1.6911 -0.0666  2.1970
  659THY    CA316465   4.312   2.306   2.316 -0.1605 -0.5515 -0.4324
  659THY    HA316466   4.335   2.258   2.221  1.1655 -0.5836 -0.1126
  659THY    CA416467   4.274   2.228   2.428 -0.3495  0.0021 -0.5929
  659THY    HA416468   4.268   2.120   2.422  1.1412 -0.0514 -1.3868
  659THY    CA516469   4.242   2.294   2.545  0.1981 -0.2146 -0.4883
  659THY    CM116470   4.210   2.224   2.673 -0.1056  0.5046 -0.6336
  659THY    HM116471   4.105   2.196   2.684 -0.1621  0.7521 -0.5048
  659THY    HM216472   4.261   2.131   2.700 -2.1278 -0.3465  0.5120
  659THY    HM316473   4.238   2.289   2.757  0.3471 -1.5815  0.9146
  659THY    CA616474   4.259   2.435   2.555 -0.2970  0.0324 -0.2089
  659THY    HA616475   4.234   2.488   2.647 -0.0267  1.5928 -1.0025
  660THY      O16476   7.010   3.573   6.094 -0.4552  0.6913  0.6539
  660THY     HO16477   6.928   3.567   6.044 -0.8397  0.6708  1.2732
  660THY    CA116478   7.012   3.453   6.163 -0.0017 -0.4010 -0.2126
  660THY    CA216479   7.121   3.384   6.207  0.0217 -0.7322 -0.4703
  660THY    CP116480   7.260   3.432   6.184  0.1565 -0.4783 -0.1108
  660THY    HP116481   7.249   3.539   6.164 -2.4059 -0.8763 -1.3225
  660THY    CP216482   7.354   3.421   6.305  0.2459  0.5702 -0.2940
  660THY    HP216483   7.319   3.486   6.386 -2.9555 -1.4005  0.1099
  660THY    HP316484   7.384   3.323   6.343  1.1178  1.1951  0.6915
  660THY    HP416485   7.450   3.468   6.281  0.7890 -0.5015 -0.2661
  660THY    CP316486   7.331   3.366   6.064  0.2860 -0.4424  0.7074
  660THY    HP516487   7.263   3.342   5.981  0.9879 -1.9990  0.5486
  660THY    HP616488   7.404   3.437   6.022 -1.5686  1.5066  0.5962
  660THY    HP716489   7.379   3.275   6.101  0.4627 -0.6593 -0.0505
  660THY    CA316490   7.103   3.271   6.295  0.9828  0.6474 -0.1927
  660THY    HA316491   7.186   3.220   6.343  0.1765 -0.7501 -0.2452
  660THY    CA416492   6.969   3.234   6.324  0.2398  0.2649  0.5512
  660THY    HA416493   6.952   3.159   6.402 -0.3194  0.3724  0.5360
  660THY    CA516494   6.859   3.294   6.263 -0.1804 -0.0689 -1.1080
  660THY    CM116495   6.717   3.253   6.302  0.2219 -0.3595  0.1744
  660THY    HM116496   6.679   3.153   6.276 -2.4818  0.7457 -0.4332
  660THY    HM216497   6.711   3.261   6.411 -0.9150  0.6475  0.0529
  660THY    HM316498   6.649   3.328   6.261 -0.3147 -0.7718  0.3005
  660THY    CA616499   6.880   3.402   6.183  0.3244 -0.8325  0.3084
  660THY    HA616500   6.797   3.451   6.134  0.9659 -1.5746 -1.5963
  661THY      O16501   4.043   1.619   7.691 -0.3853 -0.3342  0.5005
  661THY     HO16502   4.082   1.636   7.778  0.8079 -1.3017  0.1833
  661THY    CA116503   3.994   1.739   7.645  0.0333  0.5821  0.4773
  661THY    CA216504   3.904   1.744   7.537 -0.4135  0.0190 -0.2139
  661THY    CP116505   3.879   1.611   7.461  0.0462  0.3431  0.4362
  661THY    HP116506   3.945   1.529   7.489 -1.1649 -0.6772  0.4078
  661THY    CP216507   3.741   1.556   7.490 -0.1237 -0.1601 -0.4872
  661THY    HP216508   3.722   1.456   7.448  0.9001 -1.1916  1.3852
  661THY    HP316509   3.715   1.565   7.596  1.7121 -1.2891  0.1070
  661THY    HP416510   3.666   1.618   7.439  0.4228  0.1751 -0.8927
  661THY    CP316511   3.911   1.629   7.308 -0.2128  0.2815 -0.6858
  661THY    HP516512   3.926   1.528   7.266  0.1229  0.4359 -0.9374
  661THY    HP616513   3.827   1.677   7.257 -1.7652 -0.8646  0.6800
  661THY    HP716514   4.008   1.679   7.299  0.3332 -0.5911  0.0840
  661THY    CA316515   3.864   1.868   7.487  0.4329 -0.4976  0.0699
  661THY    HA316516   3.803   1.883   7.398 -1.3833  2.3391  1.6478
  661THY    CA416517   3.916   1.987   7.545 -0.5965  0.2119  0.2825
  661THY    HA416518   3.886   2.088   7.520  1.9786  0.5827 -1.7469
  661THY    CA516519   3.996   1.973   7.658 -0.6479  0.2674 -0.1949
  661THY    CM116520   4.042   2.092   7.739 -0.5801  0.1709 -0.4411
  661THY    HM116521   4.026   2.182   7.680  1.2768  0.5435 -0.4087
  661THY    HM216522   3.987   2.103   7.834  0.7452 -1.1345  0.5213
  661THY    HM316523   4.149   2.100   7.762 -0.3938  0.0147 -1.2362
  661THY    CA616524   4.043   1.855   7.705  0.1544  0.1624  0.7216
  661THY    HA616525   4.099   1.859   7.797 -1.2374 -1.9004  1.7395
  662THY      O16526   3.077   2.766   3.557  0.3142 -0.5664 -0.3179
  662THY     HO16527   3.117   2.687   3.517  1.8463 -0.8259  1.5781
  662THY    CA116528   2.942   2.746   3.566 -0.2890 -0.1756  0.4351
  662THY    CA216529   2.853   2.846   3.595 -0.7746  0.3387 -0.4724
  662THY    CP116530   2.901   2.992   3.613  0.0511 -0.7569  0.5312
  662THY    HP116531   3.009   3.006   3.601 -0.2595  0.4275 -1.2972
  662THY    CP216532   2.860   3.064   3.489 -0.0790  0.3786  0.3820
  662THY    HP216533   2.894   3.168   3.478 -3.0859  1.4100 -0.0948
  662THY    HP316534   2.902   3.014   3.401 -0.3650 -1.1156  1.0672
  662THY    HP416535   2.752   3.063   3.471 -0.0317  0.8118  0.0749
  662THY    CP316536   2.849   3.061   3.740 -0.3327  0.1180  0.8319
  662THY    HP516537   2.894   3.014   3.829 -1.6656 -0.4173  1.2463
  662THY    HP616538   2.876   3.167   3.743 -1.8724  0.5291  0.9588
  662THY    HP716539   2.740   3.057   3.746 -0.6212  0.0013 -2.6201
  662THY    CA316540   2.715   2.816   3.612  0.2056 -0.1599  0.6194
  662THY    HA316541   2.652   2.897   3.648  1.7546  2.3039 -1.7955
  662THY    CA416542   2.670   2.690   3.586  0.8960 -0.3256 -0.7430
  662THY    HA416543   2.568   2.661   3.611 -0.2591  2.1190 -2.2454
  662THY    CA516544   2.761   2.592   3.544 -0.5601  0.1582  0.4144
  662THY    CM116545   2.709   2.456   3.507  1.0666 -0.2830 -0.1008
  662THY    HM116546   2.795   2.388   3.501  1.1975 -0.1584  0.3265
  662THY    HM216547   2.653   2.427   3.597 -0.2900  1.4603 -0.3278
  662THY    HM316548   2.645   2.454   3.418  0.6370  2.7351  0.0219
  662THY    CA616549   2.897   2.619   3.540  0.4212  0.0185 -0.9187
  662THY    HA616550   2.966   2.536   3.528  1.4227  1.0555 -2.7330
  663THY      O16551   2.593   5.790   5.141  0.1792  0.2344 -0.3728
  663THY     HO16552   2.552   5.858   5.085 -0.8664 -0.4628 -0.4764
  663THY    CA116553   2.573   5.679   5.069 -0.2026  0.2623 -0.0064
  663THY    CA216554   2.640   5.557   5.115  0.0525 -0.3318 -0.0505
  663THY    CP116555   2.734   5.559   5.241 -0.2449  0.6871 -0.1190
  663THY    HP116556   2.781   5.658   5.243 -0.3422  0.7349 -0.2000
  663THY    CP216557   2.649   5.567   5.365 -0.4838  0.2014 -0.7885
  663THY    HP216558   2.707   5.562   5.457  0.9628  0.2788 -1.6611
  663THY    HP316559   2.593   5.661   5.363 -1.8551 -0.5593  0.2608
  663THY    HP416560   2.575   5.486   5.364 -1.9234  1.4494 -2.5295
  663THY    CP316561   2.845   5.456   5.238  0.4251  0.8912 -0.6926
  663THY    HP516562   2.924   5.472   5.312 -0.6036 -0.7940  0.8540
  663THY    HP616563   2.793   5.361   5.258  0.9102  1.1372  2.2394
  663THY    HP716564   2.896   5.460   5.142  0.0377 -0.8767 -1.0061
  663THY    CA316565   2.608   5.439   5.041  0.0763 -0.2883 -0.5115
  663THY    HA316566   2.653   5.346   5.076 -0.5549  0.1845  1.6987
  663THY    CA416567   2.510   5.442   4.936  0.0628  0.0720 -0.2597
  663THY    HA416568   2.476   5.350   4.888  1.9797  0.4593 -2.5170
  663THY    CA516569   2.466   5.568   4.889  0.2097  0.0911 -0.3493
  663THY    CM116570   2.379   5.579   4.767 -0.3196  0.5196  0.7300
  663THY    HM116571   2.311   5.664   4.756  0.4649  1.2445  1.4175
  663THY    HM216572   2.440   5.575   4.677 -0.6897  0.0220  0.4907
  663THY    HM316573   2.308   5.495   4.773  0.2369 -0.0222 -0.1537
  663THY    CA616574   2.491   5.683   4.960  0.1640  0.2546 -0.6387
  663THY    HA616575   2.433   5.771   4.933 -2.2201 -0.3724  2.0528
  664THY      O16576   8.282   1.098   1.873  0.1731 -0.5697  0.0768
  664THY     HO16577   8.336   1.070   1.949 -3.0720 -1.5934  2.2036
  664THY    CA116578   8.160   1.088   1.925 -0.0437  0.4530  0.4156
  664THY    CA216579   8.049   1.092   1.844  0.0789 -0.1151  0.2265
  664THY    CP116580   8.068   1.118   1.690 -0.3026  0.1028 -0.1119
  664THY    HP116581   8.159   1.178   1.678 -0.7475  0.7247 -0.4081
  664THY    CP216582   8.081   0.983   1.617 -0.2924 -1.4850 -0.1621
  664THY    HP216583   7.988   0.926   1.627  0.2080 -2.1211  1.1929
  664THY    HP316584   8.095   1.020   1.515 -0.5162  1.3492  0.7567
  664THY    HP416585   8.159   0.922   1.664 -0.2862 -0.6471  0.9673
  664THY    CP316586   7.949   1.196   1.637 -0.0485 -0.2408  0.6738
  664THY    HP516587   7.845   1.173   1.662 -0.7948  0.9881 -1.1196
  664THY    HP616588   7.971   1.302   1.655  3.5174 -0.7815  0.3062
  664THY    HP716589   7.965   1.197   1.529 -0.2726  1.2387  0.6478
  664THY    CA316590   7.925   1.066   1.906  0.1754  0.4870  0.0130
  664THY    HA316591   7.834   1.066   1.847  0.7244  1.8248 -0.8906
  664THY    CA416592   7.914   1.047   2.041 -1.0039 -0.2654 -0.3367
  664THY    HA416593   7.813   1.031   2.078 -1.0463  0.3479 -0.1733
  664THY    CA516594   8.026   1.044   2.120 -0.3162  0.5797 -0.3729
  664THY    CM116595   8.020   1.017   2.270  0.7269 -0.0829  0.5526
  664THY    HM116596   8.051   1.110   2.318 -1.2811  0.3067  1.1692
  664THY    HM216597   7.914   0.997   2.290 -0.2250  2.9712 -0.8945
  664THY    HM316598   8.091   0.934   2.283 -2.1299 -2.5747  1.2356
  664THY    CA616599   8.155   1.054   2.062  0.2345  0.1807  0.4422
  664THY    HA616600   8.246   1.029   2.116  0.5225 -2.8649 -1.2763
  665THY      O16601   1.787   3.295   1.933 -0.2339 -0.0586  0.2489
  665THY     HO16602   1.707   3.344   1.911  0.1536 -0.0440 -1.1872
  665THY    CA116603   1.777   3.169   1.874 -0.2631 -0.2921 -0.6865
  665THY    CA216604   1.881   3.076   1.869 -0.2386  0.2988  0.4395
  665THY    CP116605   2.017   3.128   1.920  0.3460 -0.6915 -0.4089
  665THY    HP116606   1.998   3.207   1.994  2.2300 -1.1856  0.6708
  665THY    CP216607   2.093   3.020   2.004 -0.5997 -0.0705  0.1910
  665THY    HP216608   2.082   2.924   1.952  0.1248 -1.2330  2.0741
  665THY    HP316609   2.199   3.047   2.012 -0.6416  0.8767 -1.6904
  665THY    HP416610   2.043   3.002   2.100  2.9127 -1.9640  1.8616
  665THY    CP316611   2.104   3.199   1.810  0.2278  0.5107  0.4647
  665THY    HP516612   2.183   3.259   1.856  0.3725  0.8343 -0.1998
  665THY    HP616613   2.151   3.119   1.751  2.0905  1.0398  1.1661
  665THY    HP716614   2.048   3.269   1.748  1.3115 -0.2605 -1.4871
  665THY    CA316615   1.859   2.954   1.797  0.1675  0.2859 -0.5380
  665THY    HA316616   1.942   2.885   1.784 -0.9398 -1.1631 -0.1961
  665THY    CA416617   1.733   2.931   1.740 -0.0837  0.0809  0.0569
  665THY    HA416618   1.714   2.839   1.685 -0.6555 -0.8404  1.7177
  665THY    CA516619   1.623   3.013   1.764 -0.8880 -0.5125 -0.5882
  665THY    CM116620   1.495   2.982   1.716  0.2315 -0.1704 -0.7585
  665THY    HM116621   1.439   2.968   1.809  0.5685  0.2374 -0.4858
  665THY    HM216622   1.458   3.073   1.668  1.1141 -0.0326 -1.2061
  665THY    HM316623   1.489   2.892   1.653 -0.3593 -2.0483  1.8157
  665THY    CA616624   1.648   3.129   1.836  0.6297 -0.2648  1.1858
  665THY    HA616625   1.568   3.203   1.841  0.7154  0.3143 -2.9597
  666THY      O16626   3.212   0.816   5.562 -0.1356  0.2023 -0.4137
  666THY     HO16627   3.172   0.839   5.476 -0.1891 -1.3983 -0.8341
  666THY    CA116628   3.237   0.923   5.643  0.4495  0.6434  0.0751
  666THY    CA216629   3.274   0.906   5.774  0.5151  0.0579  0.2398
  666THY    CP116630   3.287   0.761   5.833 -0.5768  0.6020  0.1953
  666THY    HP116631   3.220   0.694   5.778 -2.8314  2.8956 -0.0420
  666THY    CP216632   3.431   0.712   5.835  0.2200  0.1818  0.3402
  666THY    HP216633   3.469   0.706   5.732  0.6067 -1.0681  0.5292
  666THY    HP316634   3.487   0.777   5.903 -0.5113  0.4543  0.6840
  666THY    HP416635   3.438   0.607   5.867 -3.5305 -0.0851  0.6662
  666THY    CP316636   3.226   0.751   5.977 -0.5151 -0.3071  0.1076
  666THY    HP516637   3.120   0.772   5.958 -0.1416  0.7879 -0.8865
  666THY    HP616638   3.237   0.651   6.019  2.3954 -0.2856 -0.3736
  666THY    HP716639   3.274   0.822   6.046  0.7769 -0.0241 -1.0485
  666THY    CA316640   3.301   1.026   5.850 -0.0692  0.4674 -0.6785
  666THY    HA316641   3.338   1.022   5.952  0.4170  1.3226 -0.8182
  666THY    CA416642   3.277   1.149   5.798  0.2616  0.2432 -0.5420
  666THY    HA416643   3.296   1.233   5.865  0.9102 -1.4070  1.4615
  666THY    CA516644   3.230   1.167   5.668  0.1013  1.0186 -0.4010
  666THY    CM116645   3.199   1.305   5.617 -0.0267  0.4054 -0.4310
  666THY    HM116646   3.106   1.292   5.560 -0.4322 -1.3004  0.5483
  666THY    HM216647   3.173   1.375   5.698  1.0653  0.9342 -0.5317
  666THY    HM316648   3.275   1.346   5.550  0.8136 -1.1275 -0.4542
  666THY    CA616649   3.221   1.051   5.583  0.1927 -0.4504  0.1778
  666THY    HA616650   3.196   1.060   5.478 -1.5241 -1.6064  0.4407
  667THY      O16651   6.830   6.051   8.762  0.4370 -0.1390 -0.3600
  667THY     HO16652   6.922   6.084   8.754  0.6383 -0.2486  1.1321
  667THY    CA116653   6.741   6.154   8.776 -0.1333 -0.4887  0.3670
  667THY    CA216654   6.606   6.158   8.720  0.1445 -0.7491  0.3355
  667THY    CP116655   6.545   6.034   8.664 -0.1547 -0.4816  0.4533
  667THY    HP116656   6.609   5.949   8.691  1.9094  0.0128 -2.4338
  667THY    CP216657   6.422   5.997   8.750  0.2247 -0.7056  0.0004
  667THY    HP216658   6.339   6.065   8.726  0.3739 -0.3665  0.4468
  667THY    HP316659   6.395   5.894   8.726 -1.5275 -0.3877  0.4261
  667THY    HP416660   6.454   6.003   8.854  1.2592 -0.9912 -0.2985
  667THY    CP316661   6.513   6.041   8.517 -0.2518 -0.3536 -0.0830
  667THY    HP516662   6.420   6.094   8.496  1.0381  2.3337  0.6231
  667THY    HP616663   6.605   6.085   8.476  0.5000 -1.1845  0.6506
  667THY    HP716664   6.500   5.941   8.473 -0.5427 -0.6596  0.6915
  667THY    CA316665   6.543   6.284   8.712  0.3931  0.1863  0.4706
  667THY    HA316666   6.450   6.299   8.658  1.2065  0.9179 -0.7785
  667THY    CA416667   6.613   6.399   8.759 -0.2510 -0.4912 -0.2229
  667THY    HA416668   6.594   6.498   8.719  0.9305  0.8517  2.2958
  667THY    CA516669   6.733   6.390   8.826 -0.2148  0.0723 -0.4553
  667THY    CM116670   6.794   6.513   8.886 -0.0667  0.4831  1.2243
  667THY    HM116671   6.822   6.582   8.805 -1.5585 -0.3518 -0.0703
  667THY    HM216672   6.741   6.575   8.959 -0.5269  0.4276  0.9442
  667THY    HM316673   6.886   6.486   8.939 -0.1627 -0.1781  1.0585
  667THY    CA616674   6.797   6.265   8.830  0.3628 -0.3058  0.2165
  667THY    HA616675   6.899   6.254   8.867 -0.2004 -1.6748  1.4361
  668THY      O16676   5.810   1.744   4.290  0.1482 -0.2207  0.1734
  668THY     HO16677   5.726   1.757   4.338  1.7616  0.0626  3.1623
  668THY    CA116678   5.842   1.612   4.282 -0.6155  0.3681  0.0938
  668THY    CA216679   5.972   1.567   4.240  0.1561  0.5730 -0.0839
  668THY    CP116680   6.081   1.671   4.210 -0.9225 -0.1661 -0.0549
  668THY    HP116681   6.039   1.772   4.198 -0.0906 -0.1262 -3.4568
  668THY    CP216682   6.178   1.664   4.334  0.1430 -0.6710 -1.0280
  668THY    HP216683   6.120   1.683   4.425  0.8520 -0.5012 -0.6064
  668THY    HP316684   6.227   1.567   4.347  3.1482  1.0675  2.2462
  668THY    HP416685   6.246   1.750   4.341 -0.2633 -0.4165  5.0483
  668THY    CP316686   6.166   1.637   4.083  0.0978 -0.1508  0.0013
  668THY    HP516687   6.113   1.560   4.027  1.0429 -0.4471 -0.5125
  668THY    HP616688   6.169   1.728   4.021  0.2906 -0.2943 -0.2024
  668THY    HP716689   6.272   1.609   4.093  0.3744  0.8979  0.2050
  668THY    CA316690   5.998   1.425   4.225 -0.0186 -0.1820  0.1836
  668THY    HA316691   6.097   1.391   4.193 -0.1167 -0.4384  0.1446
  668THY    CA416692   5.899   1.335   4.264  0.2122 -0.0425  0.2561
  668THY    HA416693   5.913   1.227   4.266  1.4176  0.0908 -0.5060
  668THY    CA516694   5.768   1.383   4.302 -0.1162  0.6633 -0.6028
  668THY    CM116695   5.658   1.289   4.338  0.0664 -0.2211  0.0043
  668THY    HM116696   5.699   1.188   4.345 -0.1927 -0.4380 -1.2278
  668THY    HM216697   5.616   1.313   4.436  0.1333 -0.0650 -0.0049
  668THY    HM316698   5.581   1.294   4.260  0.3129 -0.3335 -0.2499
  668THY    CA616699   5.742   1.521   4.316 -0.2565 -0.0889 -0.0749
  668THY    HA616700   5.646   1.563   4.348 -0.2150  1.5805 -1.9547
  669THY      O16701   7.914   7.955   0.697  0.6116 -0.2521  0.1480
  669THY     HO16702   7.817   7.962   0.707 -0.0608 -0.6904 -4.0508
  669THY    CA116703   7.949   8.061   0.621  0.3572 -0.4240  0.2823
  669THY    CA216704   8.085   8.081   0.590  0.4808  0.2332 -0.5602
  669THY    CP116705   8.195   8.005   0.673 -0.7685  0.5753  0.9531
  669THY    HP116706   8.159   7.933   0.747  0.3166 -0.0869  0.8694
  669THY    CP216707   8.286   7.916   0.584 -0.3519  0.3380  0.1033
  669THY    HP216708   8.372   7.877   0.640 -0.3092 -0.9330 -0.7792
  669THY    HP316709   8.228   7.828   0.553  2.8460 -1.5757 -0.9612
  669THY    HP416710   8.319   7.985   0.505 -0.1828  1.0648  0.8030
  669THY    CP316711   8.277   8.104   0.755 -0.0275 -1.2228  0.6782
  669THY    HP516712   8.216   8.161   0.826 -0.7208 -1.1741  0.0565
  669THY    HP616713   8.350   8.058   0.822  1.2033  0.0095  0.2200
  669THY    HP716714   8.333   8.174   0.692  2.1843 -2.0472  1.6234
  669THY    CA316715   8.119   8.180   0.489  0.4041  0.2737 -0.3747
  669THY    HA316716   8.223   8.201   0.464  0.3028  1.5424  0.1761
  669THY    CA416717   8.015   8.255   0.425  0.1870  0.2130  0.4794
  669THY    HA416718   8.039   8.338   0.360  1.4660 -0.3340  0.2256
  669THY    CA516719   7.884   8.232   0.450 -0.0470  0.3810  0.2872
  669THY    CM116720   7.775   8.287   0.360  0.1631  0.6946  0.7271
  669THY    HM116721   7.675   8.255   0.390  0.6353 -0.3661  1.2248
  669THY    HM216722   7.782   8.396   0.357 -0.7430  0.7397 -1.4609
  669THY    HM316723   7.790   8.245   0.259 -0.0252 -1.6896  1.6255
  669THY    CA616724   7.852   8.133   0.542 -0.0238  0.3959 -0.1207
  669THY    HA616725   7.745   8.113   0.549  0.0033  0.8615  2.4753
  670THY      O16726   4.132   9.019   5.651 -0.0322 -0.3599 -0.0841
  670THY     HO16727   4.138   9.090   5.717  0.6883 -0.2522 -0.2564
  670THY    CA116728   4.028   8.937   5.680 -0.9039 -0.4223  0.9166
  670THY    CA216729   4.046   8.799   5.675  0.3652 -0.1044 -0.1209
  670THY    CP116730   4.183   8.742   5.638  0.2305  0.7966 -0.1496
  670THY    HP116731   4.223   8.803   5.556 -1.0111  3.6056  1.1932
  670THY    CP216732   4.284   8.748   5.755  0.0711  0.8820  0.5253
  670THY    HP216733   4.241   8.704   5.845  2.5828 -0.5711  1.1067
  670THY    HP316734   4.375   8.691   5.734 -0.0588  0.9606 -0.2860
  670THY    HP416735   4.309   8.852   5.782  2.4686  0.4067  0.3478
  670THY    CP316736   4.165   8.597   5.574  0.6887  1.0697  0.4529
  670THY    HP516737   4.260   8.577   5.522 -0.0736 -2.5234  0.1797
  670THY    HP616738   4.157   8.517   5.649 -0.9321 -0.5685 -1.3620
  670THY    HP716739   4.095   8.594   5.490 -2.4685 -2.0772  2.8885
  670THY    CA316740   3.934   8.715   5.698 -1.0738 -0.2330 -0.7182
  670THY    HA316741   3.949   8.608   5.713  2.3281  0.0978 -0.8716
  670THY    CA416742   3.814   8.780   5.720  0.0032  0.0388 -0.0866
  670THY    HA416743   3.734   8.711   5.743  0.2869 -0.0120  0.7952
  670THY    CA516744   3.801   8.917   5.722  0.2834  0.0714  0.0345
  670THY    CM116745   3.660   8.975   5.746  0.2127 -0.2329  0.1987
  670THY    HM116746   3.583   8.945   5.674 -1.0356 -0.4726  1.5893
  670THY    HM216747   3.618   8.923   5.833 -0.6622 -0.9983 -0.6459
  670THY    HM316748   3.652   9.084   5.753 -1.4003 -0.3201  0.1916
  670THY    CA616749   3.903   8.995   5.699  0.0481  0.0066  0.1609
  670THY    HA616750   3.907   9.104   5.695 -0.0943  0.0148  0.2304
  671THY      O16751   9.213   3.229   5.979 -0.0651  0.6003  0.0292
  671THY     HO16752   9.197   3.144   6.025 -0.5286 -0.1334 -1.4176
  671THY    CA116753   9.301   3.195   5.881 -1.2287 -0.9928  0.1798
  671THY    CA216754   9.339   3.284   5.780  0.5723 -0.2359 -0.3292
  671THY    CP116755   9.294   3.435   5.783 -0.0370 -0.0775  0.3600
  671THY    HP116756   9.280   3.465   5.887  1.2482  2.2147 -0.0691
  671THY    CP216757   9.395   3.531   5.738 -0.5497 -0.6537 -0.1554
  671THY    HP216758   9.388   3.628   5.789 -1.6147  0.4368 -2.2556
  671THY    HP316759   9.491   3.482   5.759  0.7100  0.7776 -2.1806
  671THY    HP416760   9.390   3.541   5.629 -0.1542  1.1086 -0.0394
  671THY    CP316761   9.162   3.462   5.700 -0.2879 -0.0738  0.0837
  671THY    HP516762   9.140   3.569   5.703  0.5247  0.1235 -0.6524
  671THY    HP616763   9.168   3.435   5.594 -3.5110  2.1538 -0.8099
  671THY    HP716764   9.087   3.401   5.751 -0.3762  2.0323  2.7295
  671THY    CA316765   9.426   3.240   5.679  0.5208 -0.3916 -0.1827
  671THY    HA316766   9.440   3.306   5.594 -1.2495  0.7466  0.3410
  671THY    CA416767   9.481   3.106   5.693 -0.4943 -0.3890  0.8670
  671THY    HA416768   9.557   3.077   5.621 -1.7213 -0.7204 -0.3479
  671THY    CA516769   9.451   3.029   5.799 -0.2379  0.3446 -0.2865
  671THY    CM116770   9.535   2.905   5.817  0.2798  0.2411  0.1858
  671THY    HM116771   9.631   2.923   5.867  2.4238 -2.8359 -2.3569
  671THY    HM216772   9.468   2.841   5.875  1.0768 -1.1583 -0.3684
  671THY    HM316773   9.558   2.864   5.718 -0.0380 -3.6936  1.5474
  671THY    CA616774   9.357   3.070   5.893  0.0590 -0.1323 -0.2712
  671THY    HA616775   9.334   3.009   5.980 -2.6966 -0.3314 -1.0577
  672THY      O16776   9.247   7.886   5.481 -0.3904  0.4862 -0.3855
  672THY     HO16777   9.344   7.878   5.490 -0.4749 -2.5709 -0.9634
  672THY    CA116778   9.221   7.832   5.366  0.4451  0.0700  0.2472
  672THY    CA216779   9.141   7.717   5.363  0.4926  0.1558  0.3149
  672THY    CP116780   9.094   7.647   5.492  0.0030  0.3406  0.0753
  672THY    HP116781   9.137   7.704   5.575 -0.6019 -0.0079  0.6252
  672THY    CP216782   8.939   7.641   5.516  0.4018 -0.0453 -0.3973
  672THY    HP216783   8.891   7.606   5.425 -1.2256 -0.9817  0.7694
  672THY    HP316784   8.911   7.587   5.607 -0.2266 -0.4820 -0.8449
  672THY    HP416785   8.906   7.746   5.514 -1.3158 -0.5741 -2.1401
  672THY    CP316786   9.162   7.511   5.515 -0.0643 -0.4559  0.2859
  672THY    HP516787   9.139   7.434   5.441  2.6255 -0.7394 -0.3433
  672THY    HP616788   9.271   7.523   5.518 -0.1857  1.1506 -0.2337
  672THY    HP716789   9.129   7.465   5.609 -2.1837 -1.3023 -0.7974
  672THY    CA316790   9.097   7.661   5.241 -0.4737 -0.1491 -0.4733
  672THY    HA316791   9.023   7.582   5.237 -1.6646  0.6791  2.4020
  672THY    CA416792   9.139   7.728   5.121  0.6998  0.0258 -0.4386
  672THY    HA416793   9.115   7.683   5.026 -0.0964  3.4140 -1.9995
  672THY    CA516794   9.232   7.837   5.132  0.9824 -0.0866  0.6211
  672THY    CM116795   9.292   7.895   5.005 -0.0563 -0.4871 -0.2625
  672THY    HM116796   9.235   7.984   4.976  1.1220  1.3781  2.7725
  672THY    HM216797   9.399   7.917   5.017 -0.2634 -0.0834  0.9267
  672THY    HM316798   9.291   7.829   4.917 -0.3396  0.1035 -0.7066
  672THY    CA616799   9.267   7.889   5.251  0.1380  0.3227 -0.2316
  672THY    HA616800   9.335   7.973   5.247  1.3919 -0.6867 -1.1290
  673THY      O16801   0.932   2.174   8.541  0.1341 -0.6216  0.5332
  673THY     HO16802   0.944   2.161   8.445 -0.9656  1.4987  0.0480
  673THY    CA116803   1.016   2.271   8.589  0.7573  0.5621  0.0312
  673THY    CA216804   1.024   2.302   8.726  0.0789  0.4240 -0.3767
  673THY    CP116805   0.943   2.223   8.825 -0.4689 -0.1161 -0.5865
  673THY    HP116806   0.864   2.169   8.772 -1.9441  0.8434  0.5515
  673THY    CP216807   1.023   2.119   8.903  0.0247  0.0044  0.6720
  673THY    HP216808   0.954   2.055   8.959  0.3190 -2.4433 -1.5724
  673THY    HP316809   1.080   2.055   8.834  1.4081  2.6202 -0.7627
  673THY    HP416810   1.099   2.161   8.971  0.0815  1.9292 -0.5035
  673THY    CP316811   0.862   2.303   8.922  0.0776  0.5425  0.3398
  673THY    HP516812   0.799   2.367   8.859  0.1405 -0.7072 -1.0593
  673THY    HP616813   0.797   2.238   8.983 -0.6363  0.6510 -0.2821
  673THY    HP716814   0.930   2.363   8.983  2.6210 -2.7840  1.0585
  673THY    CA316815   1.120   2.396   8.767  0.5871  0.1279  0.4418
  673THY    HA316816   1.133   2.406   8.875  2.4066 -3.3326  0.6865
  673THY    CA416817   1.201   2.456   8.671 -0.2689 -0.0387 -0.6084
  673THY    HA416818   1.256   2.539   8.716 -2.5898  0.5575  1.3255
  673THY    CA516819   1.191   2.424   8.536 -0.3809 -0.1471 -0.0138
  673THY    CM116820   1.272   2.501   8.438 -0.4073  0.4099  0.1685
  673THY    HM116821   1.330   2.426   8.382 -1.0356  0.3883 -0.4715
  673THY    HM216822   1.207   2.555   8.368 -1.0732  2.7371  2.4499
  673THY    HM316823   1.338   2.578   8.479  1.1216 -1.7056  1.9077
  673THY    CA616824   1.101   2.330   8.496 -0.5539  0.1269  0.1833
  673THY    HA616825   1.099   2.312   8.389  2.5503  0.0829  0.0356
  674THY      O16826   9.539   4.627   7.533  0.6057  0.3666 -0.4480
  674THY     HO16827   9.529   4.709   7.584 -2.1879  0.6427 -1.3021
  674THY    CA116828   9.410   4.591   7.499 -0.1956  0.3191 -0.4112
  674THY    CA216829   9.387   4.497   7.402 -0.7739 -0.8717  0.3154
  674THY    CP116830   9.507   4.434   7.323  0.7572  1.2528 -0.5133
  674THY    HP116831   9.601   4.473   7.362 -0.1698  1.5180  1.6044
  674THY    CP216832   9.498   4.279   7.349 -0.6668  0.2741 -0.3497
  674THY    HP216833   9.417   4.239   7.287 -0.4372 -2.7040  1.0969
  674THY    HP316834   9.596   4.236   7.321  0.2891  1.1483  1.5025
  674THY    HP416835   9.476   4.257   7.454 -2.8298  0.5862 -0.7041
  674THY    CP316836   9.496   4.469   7.178 -0.7374  0.1191  0.5342
  674THY    HP516837   9.510   4.578   7.180 -0.5510  0.0995  0.2937
  674THY    HP616838   9.589   4.424   7.140 -1.0011 -0.7166  0.8590
  674THY    HP716839   9.400   4.440   7.136 -0.5882 -0.2165  0.4194
  674THY    CA316840   9.253   4.470   7.357  0.1405  0.6052 -1.0265
  674THY    HA316841   9.231   4.394   7.283  1.2693  0.2369 -1.0011
  674THY    CA416842   9.143   4.535   7.410  0.7133 -0.6237  0.3747
  674THY    HA416843   9.043   4.511   7.375  0.9937 -0.7848 -0.3460
  674THY    CA516844   9.162   4.634   7.510 -0.7337 -0.0974 -0.9082
  674THY    CM116845   9.038   4.698   7.575  0.1765  0.2571  0.3512
  674THY    HM116846   9.060   4.803   7.596  1.8060 -0.0024  0.0346
  674THY    HM216847   8.955   4.696   7.503 -0.3222 -2.3374  0.9175
  674THY    HM316848   9.005   4.645   7.665 -0.4354  1.5704  0.9296
  674THY    CA616849   9.295   4.654   7.560 -0.6457  0.6030 -0.1870
  674THY    HA616850   9.311   4.731   7.636 -1.0525 -0.5390  1.1027
  675THY      O16851   9.248   3.580   5.128  0.3701  0.0168 -0.0766
  675THY     HO16852   9.288   3.540   5.050 -0.4523 -0.5993 -0.1837
  675THY    CA116853   9.236   3.713   5.089  1.1823  0.3403 -0.6513
  675THY    CA216854   9.212   3.826   5.184 -0.7110  0.1283 -0.2407
  675THY    CP116855   9.183   3.793   5.331 -0.7400 -0.3281 -0.1446
  675THY    HP116856   9.174   3.684   5.337  0.5136 -0.3777  1.5083
  675THY    CP216857   9.305   3.822   5.416  0.0560  0.4105  0.7693
  675THY    HP216858   9.389   3.764   5.377 -0.2304 -0.9870  2.1529
  675THY    HP316859   9.320   3.931   5.417 -0.6055  0.5131  0.4709
  675THY    HP416860   9.290   3.780   5.516 -2.4191 -0.0380  0.2738
  675THY    CP316861   9.058   3.865   5.372  0.6443 -0.2381  0.4574
  675THY    HP516862   9.079   3.969   5.401  1.6011 -0.1212 -0.6137
  675THY    HP616863   8.978   3.869   5.297  1.3769  0.5210 -0.3097
  675THY    HP716864   9.019   3.828   5.467 -0.0965  3.6429  1.8592
  675THY    CA316865   9.211   3.955   5.130 -0.0242 -0.2373  0.4003
  675THY    HA316866   9.210   4.036   5.203  1.5884 -0.3758  0.6238
  675THY    CA416867   9.218   3.978   4.989  0.7841  0.1735 -0.2079
  675THY    HA416868   9.211   4.075   4.940  0.5365  1.4590  2.2224
  675THY    CA516869   9.246   3.867   4.904  0.5193  0.2079  0.4647
  675THY    CM116870   9.260   3.887   4.746  0.8233 -0.4659 -0.2235
  675THY    HM116871   9.322   3.810   4.699  0.8788 -0.7188  0.2505
  675THY    HM216872   9.164   3.886   4.694  0.9287 -0.5675 -0.4163
  675THY    HM316873   9.318   3.980   4.737  0.8808 -0.4954 -0.1697
  675THY    CA616874   9.255   3.738   4.960  0.2021 -0.2233  0.7120
  675THY    HA616875   9.277   3.661   4.886 -1.8413  1.2539 -1.5761
  676THY      O16876   0.251   9.899   8.608  0.1188  0.2843  0.3014
  676THY     HO16877   0.335   9.883   8.653  0.4913  1.1051 -0.0912
  676THY    CA116878   0.168   9.844   8.701 -1.1580  0.2710  0.4678
  676THY    CA216879   0.085   9.734   8.672 -0.2499  0.1358 -0.3647
  676THY    CP116880   0.077   9.691   8.522  0.7219  0.7648 -0.6052
  676THY    HP116881   0.102   9.774   8.455 -1.6870  1.0363 -1.2363
  676THY    CP216882   0.193   9.603   8.478 -0.0602  0.2727 -0.7580
  676THY    HP216883   0.202   9.526   8.556  2.3192  1.5062  0.2901
  676THY    HP316884   0.176   9.540   8.390 -1.4827 -0.1759 -0.1950
  676THY    HP416885   0.290   9.655   8.478  2.0547 -3.3043 -1.5004
  676THY    CP316886  -0.064   9.632   8.489 -0.6203  0.2240 -0.4616
  676THY    HP516887  -0.155   9.683   8.523  0.4801 -0.1222  3.5571
  676THY    HP616888  -0.066   9.637   8.380 -2.2332  2.4098 -0.3874
  676THY    HP716889  -0.077   9.529   8.526 -3.6334  1.0715  1.1785
  676THY    CA316890   0.025   9.659   8.778  0.2078  0.4835  0.5940
  676THY    HA316891  -0.030   9.570   8.749 -1.3239  1.9661 -1.3056
  676THY    CA416892   0.041   9.702   8.906  0.3527 -0.1848  1.4463
  676THY    HA416893  -0.009   9.650   8.987  0.0196 -0.6573  0.9394
  676THY    CA516894   0.111   9.817   8.930 -0.6191 -0.2473 -0.0358
  676THY    CM116895   0.120   9.867   9.077  0.2001 -0.0942 -0.1898
  676THY    HM116896   0.211   9.926   9.095  0.3601 -0.8484  1.8262
  676THY    HM216897   0.033   9.932   9.090  0.0430 -0.0257 -1.4947
  676THY    HM316898   0.119   9.778   9.142  0.1799  1.2051  1.6938
  676THY    CA616899   0.177   9.888   8.832  0.7517 -0.0652  0.0767
  676THY    HA616900   0.231   9.980   8.849  0.3400  0.2643 -0.3829
  677THY      O16901   0.294   3.171   3.989 -0.4055 -1.3355 -0.0386
  677THY     HO16902   0.366   3.194   3.928  0.0580  1.8991  1.5453
  677THY    CA116903   0.238   3.293   4.032  0.0115  1.0947  0.4016
  677THY    CA216904   0.149   3.289   4.142 -0.2451  0.4069 -0.2492
  677THY    CP116905   0.117   3.154   4.219  0.2606 -0.1059  0.3973
  677THY    HP116906   0.134   3.067   4.155 -1.4102 -1.3780  1.5944
  677THY    CP216907   0.227   3.126   4.324 -0.2280 -0.1745  0.2811
  677THY    HP216908   0.202   3.032   4.374 -1.4646  0.2982  0.5684
  677THY    HP316909   0.320   3.107   4.268 -1.5977 -2.3511 -1.4497
  677THY    HP416910   0.245   3.217   4.383  0.5649  0.4598 -0.8937
  677THY    CP316911  -0.026   3.141   4.286 -0.1037  0.0713  0.1624
  677THY    HP516912  -0.104   3.188   4.225 -3.0214  0.2569  3.6725
  677THY    HP616913  -0.064   3.039   4.301 -3.9867  1.2975 -0.1971
  677THY    HP716914  -0.017   3.189   4.384  1.4606 -2.1310  1.1979
  677THY    CA316915   0.078   3.405   4.175 -0.2734 -0.4308  0.4691
  677THY    HA316916   0.014   3.422   4.261 -1.4019  2.6142 -0.8535
  677THY    CA416917   0.118   3.525   4.117  0.6750  0.6280 -1.0050
  677THY    HA416918   0.068   3.614   4.152 -0.7423  0.2121 -1.8746
  677THY    CA516919   0.207   3.523   4.012  0.2497  0.0525 -0.2709
  677THY    CM116920   0.264   3.650   3.967 -1.0037 -0.7409  0.1853
  677THY    HM116921   0.253   3.736   4.033  2.5758  0.6189 -0.7586
  677THY    HM216922   0.374   3.652   3.964 -1.0415  0.8626 -1.3250
  677THY    HM316923   0.235   3.675   3.864 -2.0975 -1.6850  0.2505
  677THY    CA616924   0.257   3.405   3.959  0.6410  0.4638  0.0350
  677THY    HA616925   0.314   3.399   3.867 -0.2222 -2.0975 -0.4189
  678THY      O16926   8.311   6.726   9.788 -0.4091 -0.8160  1.1911
  678THY     HO16927   8.332   6.681   9.872  0.0459  1.1053  2.1630
  678THY    CA116928   8.333   6.854   9.813 -0.8690 -0.4324 -1.0213
  678THY    CA216929   8.350   6.956   9.715 -0.6496 -0.2372 -0.3086
  678THY    CP116930   8.344   6.908   9.572 -0.0660 -0.2217  0.2065
  678THY    HP116931   8.254   6.846   9.578 -0.0339 -0.6546 -2.4161
  678THY    CP216932   8.300   7.016   9.470 -0.2330 -0.9385  0.3906
  678THY    HP216933   8.299   6.976   9.367  3.3268  1.7095 -0.8910
  678THY    HP316934   8.209   7.072   9.495  1.4505  1.3737  1.8039
  678THY    HP416935   8.382   7.088   9.457 -2.3436  1.4385 -0.6316
  678THY    CP316936   8.469   6.828   9.524  0.7341  0.3504 -0.4584
  678THY    HP516937   8.482   6.741   9.589  0.0513 -0.1201 -0.9431
  678THY    HP616938   8.459   6.793   9.420 -1.4372  0.1155 -0.2075
  678THY    HP716939   8.559   6.892   9.529  1.0932 -0.1827 -0.0458
  678THY    CA316940   8.384   7.085   9.757  0.0036  0.4674  0.5839
  678THY    HA316941   8.407   7.159   9.680 -1.6662  0.1733 -0.2395
  678THY    CA416942   8.375   7.114   9.895 -0.3264 -0.7574  0.3095
  678THY    HA416943   8.397   7.216   9.926 -0.1341 -0.3733 -1.0030
  678THY    CA516944   8.357   7.016   9.990  0.6846  0.0181 -0.1492
  678THY    CM116945   8.350   7.045  10.134 -0.6089 -0.0076 -0.3580
  678THY    HM116946   8.292   6.970  10.189 -0.2169 -0.4304 -0.5071
  678THY    HM216947   8.449   7.049  10.180  0.7153  0.4811 -3.0108
  678THY    HM316948   8.315   7.145  10.160  0.0139 -0.0030  0.4919
  678THY    CA616949   8.340   6.887   9.948 -0.2079  0.7222  0.1259
  678THY    HA616950   8.325   6.817  10.030  0.1867 -0.2265 -0.5927
  679THY      O16951   4.341   0.655   8.613 -0.7699 -0.2332  0.2503
  679THY     HO16952   4.244   0.647   8.605 -0.8648  0.3225  0.7866
  679THY    CA116953   4.388   0.664   8.489 -0.0139  0.0049  0.9142
  679THY    CA216954   4.516   0.616   8.452  0.0705  0.0334 -0.4016
  679THY    CP116955   4.606   0.561   8.561  0.3674  0.1604  0.7631
  679THY    HP116956   4.588   0.602   8.661  1.1317  0.4640  0.7864
  679THY    CP216957   4.579   0.412   8.584  0.0079 -0.2642  0.1723
  679THY    HP216958   4.639   0.368   8.664  0.5263  0.0773 -0.0229
  679THY    HP316959   4.474   0.408   8.615  0.0395  2.3265  0.8776
  679THY    HP416960   4.598   0.349   8.497  0.1956 -0.1036  0.0973
  679THY    CP316961   4.756   0.603   8.537 -0.0342 -0.0512  0.2768
  679THY    HP516962   4.769   0.706   8.503  0.2260 -0.6722 -1.5985
  679THY    HP616963   4.810   0.603   8.632 -1.1212  2.4739  0.9851
  679THY    HP716964   4.798   0.535   8.463 -1.3755  0.0088 -0.5671
  679THY    CA316965   4.548   0.602   8.319  0.5048 -0.0745  0.0567
  679THY    HA316966   4.643   0.556   8.293  1.1578  1.5144 -0.5173
  679THY    CA416967   4.459   0.653   8.224  0.7983  0.1547  0.3719
  679THY    HA416968   4.491   0.647   8.120  0.8460  0.0607  0.3924
  679THY    CA516969   4.340   0.715   8.259 -0.5331  0.5033 -0.7225
  679THY    CM116970   4.250   0.758   8.157 -0.3438  0.5138  0.3999
  679THY    HM116971   4.307   0.779   8.066 -0.2104  1.4449  0.6869
  679THY    HM216972   4.191   0.672   8.122 -0.8658  1.3643 -0.9063
  679THY    HM316973   4.186   0.843   8.182 -3.1706 -0.5404 -2.4843
  679THY    CA616974   4.299   0.711   8.393  0.5454 -0.5504 -0.6959
  679THY    HA616975   4.202   0.748   8.424  1.3889  0.2493  1.1821
  680THY      O16976   6.501   1.580   3.209  0.4986 -0.0499 -0.1813
  680THY     HO16977   6.452   1.662   3.226  0.3896 -0.0811 -0.3504
  680THY    CA116978   6.533   1.521   3.327  0.3721 -0.0554  0.4506
  680THY    CA216979   6.637   1.421   3.333 -0.4067  0.3408  0.2145
  680THY    CP116980   6.715   1.386   3.203  0.0731  0.1104 -0.5732
  680THY    HP116981   6.646   1.376   3.119 -1.2741  0.1647  0.4854
  680THY    CP216982   6.820   1.493   3.180 -0.1333 -0.1943  0.2504
  680THY    HP216983   6.777   1.589   3.151 -1.7586 -1.5915 -2.3660
  680THY    HP316984   6.883   1.485   3.270 -1.1759 -0.2914  0.9999
  680THY    HP416985   6.888   1.469   3.098 -0.9774  1.5605 -1.0118
  680THY    CP316986   6.786   1.248   3.206 -0.0123 -0.5915  1.3366
  680THY    HP516987   6.711   1.177   3.243 -1.0375  0.4251  1.2389
  680THY    HP616988   6.812   1.216   3.104  0.2729  1.0483  0.8669
  680THY    HP716989   6.881   1.250   3.260  0.0662 -0.8068  1.2098
  680THY    CA316990   6.658   1.348   3.451  0.7247 -0.3860 -0.7548
  680THY    HA316991   6.731   1.268   3.455  1.8694  0.6665  0.1847
  680THY    CA416992   6.566   1.371   3.554  0.5470 -0.0360 -0.1042
  680THY    HA416993   6.579   1.310   3.643  1.4591 -0.8486 -0.7829
  680THY    CA516994   6.478   1.480   3.554 -0.1112  0.0614 -0.3103
  680THY    CM116995   6.390   1.509   3.668 -0.3640 -0.6238 -0.0111
  680THY    HM116996   6.451   1.495   3.757  0.1961  2.4091  0.1867
  680THY    HM216997   6.356   1.614   3.672 -0.3757 -0.6505  0.6490
  680THY    HM316998   6.303   1.442   3.671 -1.7603  1.1006 -0.0759
  680THY    CA616999   6.459   1.546   3.436 -0.4305  0.3383 -0.2141
  680THY    HA617000   6.386   1.625   3.439 -2.0986 -1.1425 -0.4648
  681THY      O17001   8.896   9.357   0.692 -0.2908  0.1417 -0.3676
  681THY     HO17002   8.800   9.351   0.704 -0.4003  1.4698 -0.4878
  681THY    CA117003   8.941   9.443   0.784 -0.1671  0.5354  0.2165
  681THY    CA217004   9.079   9.472   0.797 -0.5320 -0.2617 -0.4212
  681THY    CP117005   9.184   9.396   0.705 -0.2881 -0.2253 -0.6416
  681THY    HP117006   9.128   9.323   0.646 -2.0591 -1.1264  2.0168
  681THY    CP217007   9.245   9.494   0.610  0.3076  0.0140 -0.2320
  681THY    HP217008   9.175   9.512   0.528 -0.8490 -0.8260  0.5440
  681THY    HP317009   9.258   9.593   0.656  0.3261 -0.6340  1.2256
  681THY    HP417010   9.340   9.463   0.565  0.2268  2.2205 -2.0776
  681THY    CP317011   9.293   9.321   0.783  0.4973 -0.0496 -0.4411
  681THY    HP517012   9.368   9.282   0.714 -1.2027 -1.5932 -1.5231
  681THY    HP617013   9.339   9.395   0.849  0.2234 -0.7806  0.5865
  681THY    HP717014   9.252   9.237   0.840  0.8401 -0.9056 -1.4203
  681THY    CA317015   9.125   9.568   0.889  0.8759  0.3503 -0.2608
  681THY    HA317016   9.230   9.595   0.886  0.9471  0.0516 -0.6792
  681THY    CA417017   9.031   9.621   0.980  0.2011 -0.8574  0.0703
  681THY    HA417018   9.061   9.691   1.057 -0.6118 -0.1777 -0.2094
  681THY    CA517019   8.895   9.581   0.979 -0.0936  0.4816  0.1339
  681THY    CM117020   8.791   9.647   1.069  0.5048 -0.0672  0.9556
  681THY    HM117021   8.787   9.754   1.044  1.3430  0.0600  1.3297
  681THY    HM217022   8.694   9.606   1.038  0.9879  0.6000 -1.7561
  681THY    HM317023   8.830   9.647   1.171 -0.1364  0.7692  1.2161
  681THY    CA617024   8.852   9.494   0.878 -0.1319  0.8190 -0.2276
  681THY    HA617025   8.745   9.483   0.860 -0.3826  2.9620 -0.3668
  682THY      O17026   9.622   8.576   4.821  0.3060  0.4508 -0.2209
  682THY     HO17027   9.543   8.615   4.862 -0.4561 -2.7109  1.6657
  682THY    CA117028   9.577   8.456   4.769  0.3286 -0.1158 -0.3165
  682THY    CA217029   9.671   8.361   4.718  0.6818 -0.7978 -0.0786
  682THY    CP117030   9.819   8.403   4.699 -0.9140 -0.1709 -0.3583
  682THY    HP117031   9.838   8.501   4.745 -1.4552  0.4673 -1.4488
  682THY    CP217032   9.894   8.309   4.790  0.1435  0.5387  0.1535
  682THY    HP217033   9.886   8.201   4.771  1.2981  0.5827 -0.7273
  682THY    HP317034  10.001   8.329   4.775  0.2397 -0.6727 -0.9857
  682THY    HP417035   9.890   8.321   4.899 -0.9246 -2.0366  0.4776
  682THY    CP317036   9.861   8.410   4.553  0.9138 -0.2110  0.0348
  682THY    HP517037   9.970   8.398   4.545  0.8391  0.0149 -1.7878
  682THY    HP617038   9.805   8.333   4.498 -1.6072  0.1591  1.9072
  682THY    HP717039   9.828   8.511   4.526 -0.3071  0.0308  2.2057
  682THY    CA317040   9.621   8.233   4.671 -0.8841 -0.1430  0.4745
  682THY    HA317041   9.681   8.166   4.611  0.2401  0.2507  1.1222
  682THY    CA417042   9.485   8.204   4.699 -0.1752 -0.3617 -0.4689
  682THY    HA417043   9.442   8.110   4.667  0.9720 -0.9994 -0.1898
  682THY    CA517044   9.397   8.295   4.761 -0.5250 -0.0951 -0.1376
  682THY    CM117045   9.258   8.257   4.797 -0.2841 -0.5855 -1.0803
  682THY    HM117046   9.244   8.156   4.838 -2.1358  0.4218  0.9655
  682THY    HM217047   9.223   8.334   4.866 -0.8030 -1.1980 -0.6483
  682THY    HM317048   9.182   8.257   4.718 -0.0333  0.3591 -1.3352
  682THY    CA617049   9.444   8.424   4.786 -0.5077 -0.0654 -1.0307
  682THY    HA617050   9.377   8.498   4.830 -1.5072 -2.1235  1.1263
  683THY      O17051   5.321   7.650   7.395  0.3146  0.5446  0.5872
  683THY     HO17052   5.260   7.726   7.397 -0.2873  0.1555 -1.1679
  683THY    CA117053   5.306   7.592   7.277  0.3450  0.3188  0.7016
  683THY    CA217054   5.353   7.461   7.253  0.4680  0.1138  0.4063
  683THY    CP117055   5.436   7.383   7.355 -0.1214 -0.2994  0.0752
  683THY    HP117056   5.488   7.449   7.426  0.7251 -1.6362  0.7538
  683THY    CP217057   5.352   7.285   7.446 -0.4933  0.5540 -0.6513
  683THY    HP217058   5.416   7.209   7.493  1.1442  2.4116  0.2773
  683THY    HP317059   5.289   7.337   7.518 -0.2314  1.6244 -1.1661
  683THY    HP417060   5.295   7.223   7.375 -0.5997  3.0546 -2.9124
  683THY    CP317061   5.546   7.323   7.278  0.3268  0.2086 -0.6229
  683THY    HP517062   5.614   7.289   7.358 -1.9653 -0.5745  1.1005
  683THY    HP617063   5.507   7.229   7.237 -0.0436  0.1283 -0.0929
  683THY    HP717064   5.595   7.389   7.205 -0.1937  0.4293 -0.7735
  683THY    CA317065   5.302   7.388   7.144  0.0649  0.6564  0.9897
  683THY    HA317066   5.334   7.287   7.121 -0.4022  0.4411  1.2795
  683THY    CA417067   5.228   7.455   7.045  0.4697 -0.9185 -0.1567
  683THY    HA417068   5.184   7.411   6.956 -0.9225 -0.3140  0.1997
  683THY    CA517069   5.193   7.589   7.060 -0.0955  0.7709 -0.0748
  683THY    CM117070   5.123   7.659   6.951  0.0373 -0.0006 -0.4253
  683THY    HM117071   5.195   7.724   6.901  1.4265 -1.0826  0.1234
  683THY    HM217072   5.082   7.592   6.875 -2.0170 -0.6437  1.1389
  683THY    HM317073   5.042   7.720   6.994  2.3020  1.4656  2.1352
  683THY    CA617074   5.217   7.649   7.182 -0.1108  0.4427 -0.2917
  683THY    HA617075   5.192   7.754   7.195 -0.7267  0.2833 -0.1237
  684THY      O17076   5.324   2.336   9.602 -0.4861 -0.0373 -0.4122
  684THY     HO17077   5.280   2.249   9.591 -0.6959  0.1591 -1.1545
  684THY    CA117078   5.224   2.430   9.589 -0.3218  0.5567  0.3134
  684THY    CA217079   5.234   2.542   9.511  0.5120  0.2748 -0.0923
  684THY    CP117080   5.362   2.576   9.438  0.1571 -0.2590  0.3568
  684THY    HP117081   5.414   2.480   9.421 -1.8781 -1.0208 -2.2512
  684THY    CP217082   5.340   2.644   9.299 -0.2866 -0.6608  0.6647
  684THY    HP217083   5.309   2.748   9.312 -0.8862 -0.8784  1.0340
  684THY    HP317084   5.428   2.638   9.234 -1.4368  0.1648 -1.0383
  684THY    HP417085   5.264   2.590   9.241  0.5153 -0.5339 -0.5326
  684THY    CP317086   5.439   2.672   9.527 -0.3166 -0.2445 -0.2753
  684THY    HP517087   5.472   2.628   9.622  2.8059 -0.8233 -1.4898
  684THY    HP617088   5.519   2.713   9.464 -1.3082  1.2246 -0.6409
  684THY    HP717089   5.380   2.762   9.551  0.7523  0.9613 -1.8932
  684THY    CA317090   5.130   2.642   9.515  0.5176  0.8775  0.0953
  684THY    HA317091   5.142   2.737   9.464  2.4394  0.1425 -0.9114
  684THY    CA417092   5.024   2.628   9.600 -0.2300 -0.7176 -0.1117
  684THY    HA417093   4.946   2.703   9.602 -0.2853 -0.7733  1.2032
  684THY    CA517094   5.014   2.513   9.678 -0.5138  0.9966 -0.5414
  684THY    CM117095   4.899   2.492   9.769  0.1615 -0.4350  0.2093
  684THY    HM117096   4.915   2.430   9.858  1.0259  0.2886  0.5709
  684THY    HM217097   4.860   2.589   9.802  1.2807  0.4678 -1.0123
  684THY    HM317098   4.820   2.457   9.701  0.6271 -2.3375  0.5746
  684THY    CA617099   5.111   2.411   9.669  0.5067  0.2349  0.1290
  684THY    HA617100   5.096   2.318   9.722 -3.4781  1.5661  1.6567
  685THY      O17101   1.740   6.111   7.336  0.1440 -0.4006 -0.3577
  685THY     HO17102   1.715   6.055   7.261  0.4478 -1.2752  0.1858
  685THY    CA117103   1.734   6.240   7.294 -1.1683 -0.1665  0.4936
  685THY    CA217104   1.754   6.345   7.385  0.0914 -0.8383  0.0083
  685THY    CP117105   1.785   6.309   7.530  0.1615 -0.1524  0.1951
  685THY    HP117106   1.777   6.203   7.554 -0.1497 -0.0469  0.5786
  685THY    CP217107   1.931   6.348   7.577  0.6830 -0.0742  0.8020
  685THY    HP217108   1.956   6.318   7.679  0.5704  1.2887  1.2598
  685THY    HP317109   2.004   6.296   7.513  2.4767  3.1677 -0.0300
  685THY    HP417110   1.955   6.455   7.565  0.1911 -0.1085 -0.7079
  685THY    CP317111   1.681   6.377   7.628 -0.1341  1.1653 -0.1491
  685THY    HP517112   1.698   6.347   7.732  2.1061  1.2014 -0.4651
  685THY    HP617113   1.672   6.486   7.617 -0.3237  0.9783 -2.5311
  685THY    HP717114   1.580   6.340   7.607 -0.6202  0.8126  2.5573
  685THY    CA317115   1.742   6.476   7.329 -0.1450  0.1160 -0.5491
  685THY    HA317116   1.751   6.561   7.396  0.5680 -0.3694 -0.0049
  685THY    CA417117   1.698   6.496   7.201  0.3992  0.4434  0.1605
  685THY    HA417118   1.684   6.594   7.156 -1.3214 -0.5843 -1.7069
  685THY    CA517119   1.678   6.388   7.114  0.3405 -0.9390 -0.5965
  685THY    CM117120   1.623   6.414   6.975 -0.4709 -0.1805 -0.3381
  685THY    HM117121   1.554   6.499   6.980  0.2550  0.3614  1.3158
  685THY    HM217122   1.699   6.436   6.899 -1.3717  0.7875 -0.9756
  685THY    HM317123   1.554   6.335   6.945 -1.2901  0.0084  0.9690
  685THY    CA617124   1.700   6.260   7.159 -0.0689  0.2192 -0.4808
  685THY    HA617125   1.678   6.174   7.097  0.4732  1.4695 -2.4743
  686THY      O17126   2.093   6.017   8.164  0.0491 -0.1363 -0.6768
  686THY     HO17127   2.147   5.959   8.220 -0.5760 -0.4370 -0.3795
  686THY    CA117128   1.971   6.050   8.224 -0.9194  0.6042 -0.7526
  686THY    CA217129   1.875   6.134   8.158 -0.1718 -0.1113 -0.1962
  686THY    CP117130   1.903   6.196   8.025  0.3346 -0.2691  0.5620
  686THY    HP117131   1.999   6.155   7.990  0.9957  1.4813  0.2090
  686THY    CP217132   1.794   6.152   7.923  0.3533  0.3345 -0.7907
  686THY    HP217133   1.844   6.139   7.827 -0.3943 -1.6186 -0.9573
  686THY    HP317134   1.743   6.058   7.950  2.0096 -0.5447 -0.5532
  686THY    HP417135   1.712   6.224   7.922 -0.5085 -0.5775  0.7568
  686THY    CP317136   1.908   6.353   8.017 -0.0997  0.7604 -0.4654
  686THY    HP517137   1.811   6.404   8.023 -0.2438  0.5204 -0.7804
  686THY    HP617138   1.954   6.395   8.108  1.1270 -1.4920  0.0255
  686THY    HP717139   1.964   6.385   7.929 -0.1913 -0.5118 -1.0001
  686THY    CA317140   1.753   6.160   8.225  0.2063  0.0364 -0.4030
  686THY    HA317141   1.667   6.215   8.189  0.9902  1.7444  0.2102
  686THY    CA417142   1.727   6.087   8.344 -0.2789  0.0801  0.5118
  686THY    HA417143   1.635   6.108   8.397  0.5484 -0.6514  2.3120
  686THY    CA517144   1.816   5.993   8.399  0.5136  0.1175 -0.8018
  686THY    CM117145   1.792   5.908   8.525  0.5062  0.6437  0.3967
  686THY    HM117146   1.864   5.825   8.526 -0.9350 -0.7069 -1.4460
  686THY    HM217147   1.796   5.959   8.622  1.1540 -1.0119  1.2783
  686THY    HM317148   1.691   5.864   8.522 -0.1453  1.8328  2.5437
  686THY    CA617149   1.945   5.983   8.341  0.8283 -0.1166 -0.4867
  686THY    HA617150   2.012   5.906   8.379 -0.6909  0.3010  3.4189
  687THY      O17151   6.622   6.919   2.109  0.1234  0.2598 -0.3153
  687THY     HO17152   6.676   6.955   2.181  0.4393 -0.7958 -0.0135
  687THY    CA117153   6.695   6.873   2.006  0.6134  0.0358  0.0134
  687THY    CA217154   6.641   6.874   1.876  0.7727  0.4264 -0.1944
  687THY    CP117155   6.508   6.940   1.837  0.4894 -0.3870  0.3178
  687THY    HP117156   6.451   6.974   1.924  0.1608 -1.2502  0.4515
  687THY    CP217157   6.535   7.056   1.745  0.4172  0.4831  0.2980
  687THY    HP217158   6.449   7.122   1.726 -0.2658 -0.9367 -1.8666
  687THY    HP317159   6.618   7.108   1.795 -0.7397  1.5619  1.1440
  687THY    HP417160   6.576   7.022   1.649 -1.3480  0.1690 -0.3747
  687THY    CP317161   6.412   6.836   1.771 -0.3069 -0.7989 -1.3451
  687THY    HP517162   6.333   6.901   1.733  0.5619  0.0149 -1.8163
  687THY    HP617163   6.457   6.783   1.686 -0.9345 -2.4955 -0.6549
  687THY    HP717164   6.385   6.766   1.850  0.0478 -0.4521 -0.9096
  687THY    CA317165   6.716   6.813   1.767 -0.0031 -0.5696  0.1008
  687THY    HA317166   6.683   6.823   1.664 -1.0435  1.6360  0.5837
  687THY    CA417167   6.848   6.759   1.796  0.1658  0.4956 -0.2568
  687THY    HA417168   6.919   6.725   1.720 -0.3786  0.7748 -0.9045
  687THY    CA517169   6.888   6.747   1.930 -0.3004 -0.5043 -0.3934
  687THY    CM117170   7.005   6.667   1.965  0.2554 -0.2903 -0.3309
  687THY    HM117171   7.007   6.577   1.904 -1.4477 -1.7337  1.5905
  687THY    HM217172   7.098   6.724   1.950  0.1840 -0.2878 -0.7867
  687THY    HM317173   7.000   6.644   2.072 -0.9603  0.7452 -0.1332
  687THY    CA617174   6.815   6.806   2.032 -0.1919 -0.0484  0.7048
  687THY    HA617175   6.856   6.803   2.133 -0.7513 -0.5739  0.9214
  688THY      O17176   4.472   8.549   8.258 -0.2962 -0.3076 -0.2325
  688THY     HO17177   4.419   8.468   8.267 -2.6718  0.9846 -1.5467
  688THY    CA117178   4.393   8.654   8.247  0.8153  0.0229 -0.4574
  688THY    CA217179   4.434   8.787   8.284  0.4910 -0.1209 -0.1303
  688THY    CP117180   4.581   8.814   8.308  0.6103 -0.3871  0.5198
  688THY    HP117181   4.633   8.735   8.362 -0.7275 -2.3989 -0.9950
  688THY    CP217182   4.666   8.826   8.173  0.0186 -0.3217  0.2211
  688THY    HP217183   4.691   8.731   8.123 -0.8430  0.1715 -1.1876
  688THY    HP317184   4.614   8.892   8.103 -1.3074 -1.1082  0.4213
  688THY    HP417185   4.757   8.877   8.207 -0.7163  1.3674 -0.2895
  688THY    CP317186   4.600   8.932   8.404  0.2375  0.2435  0.2084
  688THY    HP517187   4.701   8.950   8.444  0.7388  0.8682 -1.2841
  688THY    HP617188   4.576   9.031   8.362  0.5110 -0.6210 -2.1044
  688THY    HP717189   4.534   8.910   8.489 -1.3487  1.2743 -0.7011
  688THY    CA317190   4.342   8.889   8.278  0.6783  0.9119  0.0510
  688THY    HA317191   4.370   8.994   8.284  1.3479  0.7783 -0.5525
  688THY    CA417192   4.206   8.848   8.253  0.0123 -0.1457 -0.1887
  688THY    HA417193   4.129   8.924   8.259 -0.1788 -0.4769  2.8619
  688THY    CA517194   4.168   8.721   8.224 -0.8058 -0.1974  0.5188
  688THY    CM117195   4.021   8.692   8.210  0.7534 -0.0594  0.2602
  688THY    HM117196   3.968   8.782   8.177 -1.2338 -0.9735  0.8080
  688THY    HM217197   3.999   8.600   8.154 -1.1663  1.4884 -1.6700
  688THY    HM317198   3.980   8.665   8.308 -3.5968 -1.1441 -1.6435
  688THY    CA617199   4.262   8.625   8.210 -0.0598  0.4468  0.4200
  688THY    HA617200   4.231   8.523   8.190 -0.5318  0.7247 -0.2966
  689THY      O17201   6.788   4.430   8.118  0.6837  0.6755  0.1793
  689THY     HO17202   6.716   4.365   8.108  0.5736  0.9360 -0.8127
  689THY    CA117203   6.719   4.530   8.187  0.0057  0.5464  0.2203
  689THY    CA217204   6.750   4.669   8.164 -0.1474 -0.0742 -0.6384
  689THY    CP117205   6.867   4.704   8.067 -0.2567 -0.1230 -0.0262
  689THY    HP117206   6.888   4.614   8.007 -0.6688 -1.9124  2.3302
  689THY    CP217207   6.858   4.818   7.956 -0.2798 -0.2879 -0.4134
  689THY    HP217208   6.834   4.918   7.995 -0.0775  0.1168 -1.3005
  689THY    HP317209   6.955   4.827   7.905 -1.2049 -2.7221 -2.7810
  689THY    HP417210   6.785   4.803   7.877  0.0774  1.5904 -1.1477
  689THY    CP317211   6.988   4.721   8.155 -0.5561 -0.0657 -0.6144
  689THY    HP517212   7.068   4.754   8.088  0.0154 -0.9991 -0.4075
  689THY    HP617213   6.973   4.797   8.233  0.0310 -1.1051  0.5323
  689THY    HP717214   7.019   4.629   8.205 -0.4524  0.6510  0.6806
  689THY    CA317215   6.681   4.769   8.241  0.7074 -0.7224  0.2903
  689THY    HA317216   6.705   4.874   8.227 -1.2401 -0.0395  1.6185
  689THY    CA417217   6.574   4.727   8.324  0.7917  0.6144  0.0676
  689THY    HA417218   6.503   4.806   8.351  1.5839  0.9069  1.4269
  689THY    CA517219   6.539   4.588   8.330  0.7887  0.0706 -0.0352
  689THY    CM117220   6.432   4.546   8.424 -0.7023  0.9665  0.7525
  689THY    HM117221   6.353   4.496   8.367  0.1877  0.0216  0.2993
  689THY    HM217222   6.471   4.487   8.508 -0.2215  2.1992  1.4163
  689THY    HM317223   6.390   4.632   8.476 -3.2331  1.6627 -2.2050
  689THY    CA617224   6.611   4.488   8.262 -0.4050 -0.4004  0.8322
  689THY    HA617225   6.593   4.381   8.267  0.6801 -0.6679 -0.4484
  690THY      O17226   6.816   4.563   6.688  0.7136  0.4647  0.1177
  690THY     HO17227   6.742   4.509   6.656  0.3542 -0.3921  2.2556
  690THY    CA117228   6.747   4.662   6.751  0.7271  0.0786  0.9143
  690THY    CA217229   6.776   4.726   6.870  0.5830  0.1822  0.2532
  690THY    CP117230   6.912   4.698   6.949 -0.5436 -0.6207  0.0017
  690THY    HP117231   6.944   4.601   6.909 -0.5318 -0.7661  0.3584
  690THY    CP217232   7.007   4.814   6.914 -0.0172  0.3986 -0.6988
  690THY    HP217233   7.101   4.812   6.970  0.0972 -2.6933 -0.8170
  690THY    HP317234   7.039   4.801   6.810  3.6701  1.7230  0.1276
  690THY    HP417235   6.944   4.902   6.931 -0.1779 -0.2249  2.5138
  690THY    CP317236   6.905   4.688   7.100  0.0061 -0.2853 -0.4789
  690THY    HP517237   6.840   4.763   7.148 -0.2626  0.1184 -1.4509
  690THY    HP617238   6.881   4.584   7.124 -0.4432  0.1199  0.9711
  690THY    HP717239   7.006   4.698   7.142 -1.3142 -0.5592  3.1257
  690THY    CA317240   6.680   4.815   6.929 -0.6734  0.7431 -0.4482
  690THY    HA317241   6.686   4.856   7.029 -1.3827  0.8718 -0.4510
  690THY    CA417242   6.554   4.823   6.870  0.2819 -0.3671 -0.5074
  690THY    HA417243   6.479   4.876   6.928 -1.4538 -2.4713 -0.6789
  690THY    CA517244   6.518   4.757   6.752 -1.5572 -0.0215 -0.8126
  690THY    CM117245   6.375   4.765   6.707 -0.4704 -0.3434 -0.3192
  690THY    HM117246   6.309   4.801   6.787  2.2654 -0.2546  2.0718
  690THY    HM217247   6.370   4.824   6.615 -1.8351 -0.2579 -0.2201
  690THY    HM317248   6.336   4.667   6.676  0.4557 -0.7135 -0.3402
  690THY    CA617249   6.618   4.676   6.694 -0.1973 -0.4141  0.4582
  690THY    HA617250   6.599   4.611   6.609 -1.4481 -2.4061  2.1687
  691THY      O17251   5.568   4.350   0.173  0.1468  0.2226 -0.0233
  691THY     HO17252   5.475   4.368   0.196  0.1820 -0.2350  0.4974
  691THY    CA117253   5.617   4.254   0.247  0.0698  0.4079 -0.4293
  691THY    CA217254   5.741   4.199   0.220  0.6443 -0.2684  0.0536
  691THY    CP117255   5.825   4.254   0.105  0.1902  0.1039  0.2373
  691THY    HP117256   5.766   4.328   0.049  0.1831  1.0011  1.3985
  691THY    CP217257   5.951   4.331   0.167  0.3370  0.3902 -0.4478
  691THY    HP217258   6.024   4.346   0.087 -0.6970 -0.6819 -1.6463
  691THY    HP317259   5.923   4.421   0.222 -1.0333 -0.7667  0.8368
  691THY    HP417260   6.007   4.267   0.237 -0.9403  0.3766  0.5979
  691THY    CP317261   5.860   4.143   0.008  0.6248  0.6647  0.0881
  691THY    HP517262   5.762   4.108  -0.026  0.4235  1.3695 -0.0617
  691THY    HP617263   5.910   4.179  -0.083 -1.0405  1.2890 -0.6239
  691THY    HP717264   5.917   4.059   0.052 -0.4080 -1.7349 -2.8363
  691THY    CA317265   5.783   4.099   0.307 -0.4735  0.0351  0.2980
  691THY    HA317266   5.884   4.059   0.309 -0.5147 -0.0935 -0.0528
  691THY    CA417267   5.702   4.041   0.401  0.5997 -0.7983 -0.2004
  691THY    HA417268   5.744   3.957   0.455  2.1610  0.0847  0.0152
  691THY    CA517269   5.573   4.094   0.422  0.1401 -1.0023  1.0073
  691THY    CM117270   5.483   4.045   0.527  0.0858 -0.2367  0.5599
  691THY    HM117271   5.431   3.955   0.493  0.3176 -0.2338  0.1859
  691THY    HM217272   5.524   4.012   0.623  0.4658  0.8096  0.7745
  691THY    HM317273   5.400   4.111   0.553 -0.5023 -0.6681 -0.1699
  691THY    CA617274   5.530   4.199   0.351 -0.0228 -0.0343  0.5994
  691THY    HA617275   5.443   4.256   0.381 -0.0671  1.5380 -2.1663
  692THY      O17276   3.896   4.155   9.276  0.1113  0.3038  0.6773
  692THY     HO17277   3.980   4.132   9.321  0.5447  0.3719 -0.0732
  692THY    CA117278   3.811   4.056   9.303 -0.1702  0.3067 -0.4019
  692THY    CA217279   3.683   4.052   9.253 -0.6194 -0.1887 -0.1511
  692THY    CP117280   3.634   4.170   9.160  0.1244  0.7020 -0.2481
  692THY    HP117281   3.708   4.251   9.157 -0.1400  0.9596  0.0096
  692THY    CP217282   3.598   4.133   9.014 -0.4635  0.0935  0.8947
  692THY    HP217283   3.533   4.045   9.005  0.1834 -0.3596  0.6038
  692THY    HP317284   3.556   4.217   8.957  1.1164  1.3331  1.5048
  692THY    HP417285   3.693   4.112   8.964 -0.0534 -0.2498  1.8077
  692THY    CP317286   3.512   4.223   9.236 -1.1641 -0.2548  0.0118
  692THY    HP517287   3.514   4.328   9.205  2.4334 -0.0558  0.4744
  692THY    HP617288   3.413   4.184   9.210 -0.6266 -1.5357 -0.1505
  692THY    HP717289   3.530   4.214   9.344 -1.3682 -1.3074 -0.0352
  692THY    CA317290   3.598   3.947   9.285  0.2110  0.7553  0.1136
  692THY    HA317291   3.497   3.939   9.245  0.2882 -1.6638  0.2563
  692THY    CA417292   3.649   3.849   9.371 -0.3743 -0.1383  0.8336
  692THY    HA417293   3.585   3.775   9.417 -0.4368 -0.0618  0.8686
  692THY    CA517294   3.780   3.855   9.422 -0.3187  0.1272 -0.1805
  692THY    CM117295   3.830   3.749   9.510 -0.5744  0.0174  0.0244
  692THY    HM117296   3.937   3.757   9.529 -0.5680  0.2612 -0.1096
  692THY    HM217297   3.768   3.746   9.600  0.7240  1.3134  1.0042
  692THY    HM317298   3.823   3.653   9.456  1.7839  1.5502 -3.3721
  692THY    CA617299   3.861   3.953   9.385 -0.2917  0.0647  0.0957
  692THY    HA617300   3.963   3.969   9.419 -0.2528  4.2210 -1.3328
  693THY      O17301   6.001   1.391   3.131 -0.4916 -0.0049 -0.0619
  693THY     HO17302   6.088   1.383   3.089 -0.7262 -3.1033 -0.1730
  693THY    CA117303   5.937   1.272   3.148 -0.2772  0.1710  0.1627
  693THY    CA217304   5.801   1.261   3.186 -0.4339  0.0219  0.1991
  693THY    CP117305   5.722   1.393   3.209 -0.4085  0.3749 -1.1035
  693THY    HP117306   5.767   1.474   3.152  0.4044 -0.0934 -1.1480
  693THY    CP217307   5.570   1.392   3.164 -1.3228  0.3698 -0.2943
  693THY    HP217308   5.512   1.335   3.237 -1.9878  0.4863 -0.7202
  693THY    HP317309   5.530   1.494   3.166 -0.4723  0.7266 -0.8345
  693THY    HP417310   5.569   1.354   3.062 -1.8145 -0.7942  0.1381
  693THY    CP317311   5.718   1.441   3.354 -0.6562 -0.7284  0.3732
  693THY    HP517312   5.705   1.549   3.368 -0.9562 -0.8546  1.0900
  693THY    HP617313   5.636   1.393   3.407  0.7149 -1.5254  1.8614
  693THY    HP717314   5.811   1.411   3.405 -0.0432  0.1708 -0.1775
  693THY    CA317315   5.747   1.133   3.203  0.6277  0.2727  0.6735
  693THY    HA317316   5.642   1.123   3.231  0.2390 -0.0902 -0.8186
  693THY    CA417317   5.831   1.018   3.199 -0.6095 -0.4630 -1.0240
  693THY    HA417318   5.795   0.921   3.231 -2.1123  0.4710  0.3197
  693THY    CA517319   5.965   1.027   3.157  0.6094  0.2551  0.0075
  693THY    CM117320   6.050   0.906   3.149 -0.7022 -0.0445 -0.8522
  693THY    HM117321   6.028   0.844   3.060 -2.9462 -0.5891 -0.0012
  693THY    HM217322   6.158   0.918   3.161 -0.5161 -0.9460 -1.4933
  693THY    HM317323   6.013   0.846   3.233  1.9411 -2.3754 -1.2063
  693THY    CA617324   6.010   1.154   3.120 -0.5895  0.1567  0.4900
  693THY    HA617325   6.113   1.158   3.086 -0.6059 -0.3733  0.3752
  694THY      O17326   2.299   5.802   2.032  0.0657 -0.0256  0.1265
  694THY     HO17327   2.242   5.752   1.971 -1.2569  0.8979  0.5489
  694THY    CA117328   2.216   5.880   2.105  0.0259 -0.5768  0.4602
  694THY    CA217329   2.265   5.946   2.224 -0.3107  0.3401 -0.2107
  694THY    CP117330   2.411   5.922   2.256  0.1513 -0.2289 -0.3568
  694THY    HP117331   2.453   5.835   2.204  1.2260 -0.4811  0.8633
  694THY    CP217332   2.499   6.042   2.224  0.4058  0.4103  0.0876
  694THY    HP217333   2.469   6.139   2.266  2.0236  0.0668  2.1536
  694THY    HP317334   2.602   6.018   2.252 -0.1243  0.6559  2.4512
  694THY    HP417335   2.498   6.046   2.114 -0.2969 -0.3858  0.0545
  694THY    CP317336   2.438   5.867   2.397  0.8150 -1.3907 -0.1791
  694THY    HP517337   2.368   5.787   2.423  2.0656 -2.2183  0.6945
  694THY    HP617338   2.540   5.829   2.409  0.9151 -0.6221  1.8171
  694THY    HP717339   2.413   5.944   2.471  0.4533 -1.4843 -0.1998
  694THY    CA317340   2.185   6.036   2.292 -0.3277 -0.0999  0.7612
  694THY    HA317341   2.230   6.102   2.366 -0.5924  1.0141 -0.0319
  694THY    CA417342   2.051   6.051   2.244  0.6931 -0.2086  0.5263
  694THY    HA417343   1.986   6.118   2.300 -1.2500 -0.9864 -0.6920
  694THY    CA517344   2.007   5.986   2.128 -0.1291  0.5159  0.2134
  694THY    CM117345   1.871   6.007   2.076  0.1127  0.2976  0.2433
  694THY    HM117346   1.797   6.035   2.153  0.4332 -2.4723  1.6669
  694THY    HM217347   1.874   6.090   2.004  3.5492 -2.0182 -2.5743
  694THY    HM317348   1.839   5.913   2.031  0.5140  1.0528 -1.7036
  694THY    CA617349   2.088   5.907   2.049  0.0937  0.6373 -0.1834
  694THY    HA617350   2.058   5.865   1.954  1.4656 -1.8123  0.3973
  695THY      O17351   8.246   1.046   9.542  0.9774 -0.7688 -0.8272
  695THY     HO17352   8.338   1.074   9.523  2.3692 -2.6172  2.2982
  695THY    CA117353   8.177   1.160   9.536 -0.2956 -0.1021  0.8705
  695THY    CA217354   8.038   1.169   9.526  0.0825  0.5312 -0.3892
  695THY    CP117355   7.954   1.039   9.517 -0.1207 -0.4790 -0.4035
  695THY    HP117356   8.027   0.958   9.508  1.2931  0.5325  1.2750
  695THY    CP217357   7.871   1.015   9.644 -0.3303  0.0859  0.1522
  695THY    HP217358   7.802   1.095   9.672 -1.5117 -0.2098 -1.7803
  695THY    HP317359   7.815   0.922   9.631 -0.5043  0.4400 -1.9562
  695THY    HP417360   7.926   0.992   9.736 -0.8487 -1.0454  0.1971
  695THY    CP317361   7.864   1.035   9.398 -0.2852  0.0355 -0.1421
  695THY    HP517362   7.798   1.122   9.394  1.3466  1.5684  2.6341
  695THY    HP617363   7.932   1.044   9.312 -0.7024  0.1510 -0.4612
  695THY    HP717364   7.804   0.945   9.380  0.7666 -0.3326 -2.1155
  695THY    CA317365   7.979   1.298   9.529  0.4341  0.8316  0.1747
  695THY    HA317366   7.871   1.302   9.515  0.4841  2.7547  0.1719
  695THY    CA417367   8.062   1.409   9.545 -0.2028 -0.3344  0.3151
  695THY    HA417368   8.019   1.509   9.538 -0.2833 -0.4310 -0.7340
  695THY    CA517369   8.200   1.395   9.556  0.0135  0.6400  0.4181
  695THY    CM117370   8.291   1.515   9.552 -0.2558 -0.4588 -0.2665
  695THY    HM117371   8.388   1.482   9.592 -0.6010 -1.1133  0.0402
  695THY    HM217372   8.306   1.553   9.450  2.7558  1.7850  0.8487
  695THY    HM317373   8.245   1.591   9.616 -0.9211 -0.7941 -0.3396
  695THY    CA617374   8.255   1.271   9.548 -0.0054  0.2528  0.0020
  695THY    HA617375   8.363   1.259   9.554  0.2265  2.1735  0.2171
  696THY      O17376   9.652   2.379   5.957  0.4849 -0.0788  0.2015
  696THY     HO17377   9.723   2.315   5.942 -0.2419 -1.1883  1.2561
  696THY    CA117378   9.704   2.492   6.014  0.4915  0.0268  0.6286
  696THY    CA217379   9.621   2.577   6.089 -0.2333 -0.5909 -0.8598
  696THY    CP117380   9.484   2.536   6.137 -0.3445  0.5474  0.3449
  696THY    HP117381   9.427   2.473   6.068 -0.2897  1.2226 -0.3399
  696THY    CP217382   9.489   2.460   6.269 -0.7759  0.2448 -0.6385
  696THY    HP217383   9.395   2.423   6.312 -0.4669  0.8069  0.5899
  696THY    HP317384   9.545   2.368   6.251 -1.2842 -0.0903 -0.5330
  696THY    HP417385   9.522   2.523   6.353 -1.2562  0.6970 -0.7834
  696THY    CP317386   9.388   2.658   6.147  0.3112 -0.9440 -0.4794
  696THY    HP517387   9.362   2.703   6.050  0.9362 -1.0479 -0.6979
  696THY    HP617388   9.292   2.624   6.188  0.7825 -0.5765  0.9915
  696THY    HP717389   9.423   2.732   6.219 -0.5596  1.0219 -1.9609
  696THY    CA317390   9.681   2.700   6.132  0.4594  0.7351 -1.0093
  696THY    HA317391   9.624   2.767   6.196  0.5010 -1.4705  1.5098
  696THY    CA417392   9.816   2.718   6.115 -0.1642  0.5097  0.4260
  696THY    HA417393   9.859   2.815   6.139 -0.3055  0.3298  1.4556
  696THY    CA517394   9.896   2.633   6.037  0.2531  0.3734 -0.1196
  696THY    CM117395  10.036   2.673   5.998  0.0561  0.0314  0.0079
  696THY    HM117396  10.042   2.781   5.980 -2.6423  0.4985  1.3134
  696THY    HM217397  10.108   2.664   6.079  0.8096 -0.3551 -0.6873
  696THY    HM317398  10.074   2.611   5.916  1.6309  1.4985 -0.4252
  696THY    CA617399   9.836   2.524   5.980 -0.0013  0.4937  0.5115
  696THY    HA617400   9.899   2.452   5.927 -0.1092  1.1800 -0.5855
  697THY      O17401   9.085   7.023   8.743 -0.1902 -0.9414 -0.3793
  697THY     HO17402   9.032   6.945   8.766 -0.1871 -0.6114  0.8319
  697THY    CA117403   9.216   6.987   8.722  0.0816 -0.3218 -0.4277
  697THY    CA217404   9.312   7.084   8.684 -0.5643 -0.2021  0.2703
  697THY    CP117405   9.260   7.225   8.640  0.2836  0.2366 -0.6861
  697THY    HP117406   9.189   7.270   8.710  1.7596  1.0047  0.3736
  697THY    CP217407   9.372   7.330   8.641  0.6801  0.5115  0.0400
  697THY    HP217408   9.337   7.423   8.594  1.7654  0.9267  0.0264
  697THY    HP317409   9.406   7.347   8.744  0.1901 -1.8551  0.6544
  697THY    HP417410   9.459   7.294   8.585 -1.9458  0.0544 -4.1661
  697THY    CP317411   9.213   7.198   8.492  0.4662 -0.1212  0.4992
  697THY    HP517412   9.288   7.135   8.445  1.6753  0.7194  1.2369
  697THY    HP617413   9.125   7.132   8.494 -0.0745  0.3192 -3.0058
  697THY    HP717414   9.196   7.286   8.429  2.1638 -1.4991 -2.0143
  697THY    CA317415   9.446   7.039   8.671  0.0839 -0.2397  1.2054
  697THY    HA317416   9.525   7.102   8.631 -2.7015  2.1272 -1.0102
  697THY    CA417417   9.472   6.904   8.688  0.2990  0.3033  0.9986
  697THY    HA417418   9.568   6.872   8.649 -1.1520  0.7679 -3.5615
  697THY    CA517419   9.375   6.812   8.725  0.3845 -0.0995  0.4139
  697THY    CM117420   9.414   6.670   8.736 -1.0354 -0.5052 -0.4347
  697THY    HM117421   9.488   6.624   8.669 -0.6405 -1.3041  0.5113
  697THY    HM217422   9.427   6.640   8.841  0.9827 -0.8108 -0.7275
  697THY    HM317423   9.322   6.614   8.714 -2.3779 -0.4546  4.0125
  697THY    CA617424   9.245   6.854   8.742  0.6291 -0.3583 -0.4968
  697THY    HA617425   9.163   6.789   8.774 -0.4380  1.6966  1.2155
  698THY      O17426   3.325   3.774   3.143  0.0270  0.0400  0.6713
  698THY     HO17427   3.417   3.799   3.165 -0.5285  1.0114  2.0475
  698THY    CA117428   3.268   3.894   3.144  0.4347  0.1877  0.0475
  698THY    CA217429   3.153   3.921   3.069 -0.2571  0.0496 -0.2506
  698THY    CP117430   3.098   3.815   2.970  0.0808  0.1774  0.2151
  698THY    HP117431   3.162   3.726   2.970 -0.5126 -0.2742  1.6836
  698THY    CP217432   2.959   3.770   3.005  0.3463 -0.2106 -1.0769
  698THY    HP217433   2.895   3.845   2.957  1.3914  1.1272 -0.4401
  698THY    HP317434   2.933   3.672   2.962  1.6035 -0.0395 -2.3001
  698THY    HP417435   2.955   3.768   3.115  2.9674  0.2321 -0.9121
  698THY    CP317436   3.093   3.868   2.823 -0.1013  0.3319  0.0948
  698THY    HP517437   3.191   3.913   2.807 -1.0561  2.7937  0.6817
  698THY    HP617438   3.064   3.786   2.756 -1.2257  2.1994 -1.8181
  698THY    HP717439   3.011   3.941   2.823 -0.9954 -0.6311  0.7161
  698THY    CA317440   3.082   4.045   3.097  0.4584  0.3176  0.1235
  698THY    HA317441   2.981   4.057   3.060 -0.2835 -1.5673  1.3628
  698THY    CA417442   3.130   4.134   3.197  0.5880  0.3620 -0.1534
  698THY    HA417443   3.081   4.224   3.234  1.1703  0.9732 -0.8274
  698THY    CA517444   3.251   4.109   3.267  0.4056  1.2749  0.1578
  698THY    CM117445   3.313   4.200   3.369 -0.1336  0.7007 -0.5460
  698THY    HM117446   3.317   4.305   3.338  2.3951  1.2179  1.2849
  698THY    HM217447   3.257   4.186   3.462 -0.8379  1.3028 -0.8670
  698THY    HM317448   3.418   4.179   3.390 -0.6602 -2.4568 -0.5843
  698THY    CA617449   3.315   3.979   3.245  0.0586 -0.6446  0.7556
  698THY    HA617450   3.398   3.951   3.309 -0.6235 -0.8537  1.5698
  699THY      O17451   5.447   3.244   6.512 -0.1012 -0.2323 -0.4726
  699THY     HO17452   5.479   3.153   6.501  0.5939 -0.0040 -0.3802
  699THY    CA117453   5.313   3.253   6.523 -0.6289  0.2484 -0.3948
  699THY    CA217454   5.258   3.380   6.550 -0.3864  1.0349 -0.4630
  699THY    CP117455   5.353   3.499   6.547 -0.0321 -0.1471 -0.5530
  699THY    HP117456   5.455   3.473   6.515  0.0945 -0.2898 -0.0391
  699THY    CP217457   5.313   3.612   6.444  0.0018  0.8718  0.3650
  699THY    HP217458   5.227   3.671   6.476  0.0344  0.0241  2.0946
  699THY    HP317459   5.393   3.681   6.416  1.2895  0.0671  1.9269
  699THY    HP417460   5.284   3.572   6.346  0.5260  1.9929 -0.2680
  699THY    CP317461   5.361   3.569   6.689 -1.2056 -0.5243  0.8579
  699THY    HP517462   5.389   3.493   6.763 -1.4077  1.9119  3.6170
  699THY    HP617463   5.428   3.655   6.680  1.2368 -2.4981 -1.4212
  699THY    HP717464   5.265   3.619   6.706 -0.6972  1.0358 -0.5720
  699THY    CA317465   5.119   3.385   6.568  0.5085 -0.1632  0.1688
  699THY    HA317466   5.075   3.485   6.572  0.2806 -0.3241  2.5429
  699THY    CA417467   5.045   3.270   6.579 -0.3693  1.0487 -0.5467
  699THY    HA417468   4.940   3.278   6.607 -0.4249 -0.9511 -0.0199
  699THY    CA517469   5.099   3.138   6.561 -0.6214 -0.0100 -0.2089
  699THY    CM117470   5.012   3.023   6.563 -0.4446  0.3311 -0.6130
  699THY    HM117471   5.030   2.961   6.475 -2.5348 -0.3409 -0.6215
  699THY    HM217472   5.034   2.963   6.651 -3.0417 -1.2435 -0.9290
  699THY    HM317473   4.907   3.047   6.539 -0.5257 -0.9354 -1.6290
  699THY    CA617474   5.239   3.134   6.518 -0.0611  0.0354  0.5067
  699THY    HA617475   5.282   3.038   6.490  1.5872  1.1631 -1.0208
  700THY      O17476   6.817   8.527   7.973  0.2428 -0.4209 -0.3500
  700THY     HO17477   6.906   8.557   7.946 -0.0194  1.9180  1.0934
  700THY    CA117478   6.782   8.447   7.872  0.3600  0.1786  0.0806
  700THY    CA217479   6.648   8.395   7.865  0.2107  0.0033 -0.6239
  700THY    CP117480   6.551   8.416   7.982 -0.3244  0.0577  0.0698
  700THY    HP117481   6.584   8.497   8.049 -1.4666  1.0581 -0.5419
  700THY    CP217482   6.415   8.464   7.933  1.1333 -0.3505  0.1968
  700THY    HP217483   6.363   8.527   8.007 -0.4115 -1.2370 -0.0898
  700THY    HP317484   6.430   8.519   7.840 -0.0418  0.0654  0.2385
  700THY    HP417485   6.349   8.376   7.932  0.7729 -0.1569  2.2541
  700THY    CP317486   6.535   8.294   8.065 -0.2178  0.1282 -0.3836
  700THY    HP517487   6.456   8.304   8.140  0.6290  2.9270  0.2587
  700THY    HP617488   6.516   8.205   8.004 -1.2642 -0.8017  1.2356
  700THY    HP717489   6.627   8.280   8.123  0.1313  0.4053 -0.8643
  700THY    CA317490   6.612   8.326   7.743 -0.5775  0.3812 -0.0454
  700THY    HA317491   6.508   8.300   7.730 -0.9453  2.1424 -0.9693
  700THY    CA417492   6.709   8.309   7.637 -0.2869 -0.2886  0.2879
  700THY    HA417493   6.679   8.259   7.546  0.4351 -1.2557  0.5691
  700THY    CA517494   6.834   8.365   7.649 -0.4834  0.1090  0.2762
  700THY    CM117495   6.937   8.353   7.539  0.3621 -0.3027  0.4817
  700THY    HM117496   6.972   8.454   7.513  2.2657 -0.4828  2.1400
  700THY    HM217497   7.020   8.291   7.573 -1.5471 -1.8949  2.5041
  700THY    HM317498   6.892   8.326   7.442  0.6783  2.3990 -0.5127
  700THY    CA617499   6.873   8.430   7.766 -0.4998 -0.1740 -0.2310
  700THY    HA617500   6.972   8.473   7.776 -1.7416  2.5462  1.7085
  701THY      O17501   0.590   8.318   6.930  0.0734 -0.2937 -0.4318
  701THY     HO17502   0.595   8.323   7.027 -0.2439  3.2106 -0.4757
  701THY    CA117503   0.716   8.286   6.892  0.0706  0.2264 -0.2689
  701THY    CA217504   0.747   8.166   6.828  0.7471  1.2284  0.0950
  701THY    CP117505   0.631   8.062   6.792  0.0869 -0.5248  0.0243
  701THY    HP117506   0.535   8.103   6.827  1.1528  1.2640  1.0191
  701THY    CP217507   0.613   8.053   6.641 -0.3731 -0.0089  0.0072
  701THY    HP217508   0.560   8.143   6.609 -1.6032 -1.0739 -1.1290
  701THY    HP317509   0.708   8.048   6.587 -0.2816  0.9603  0.0725
  701THY    HP417510   0.544   7.971   6.613 -0.9381  0.4155  0.1388
  701THY    CP317511   0.656   7.926   6.867 -0.3941 -0.5702  0.2125
  701THY    HP517512   0.650   7.935   6.976  1.0199  2.3722  0.1407
  701THY    HP617513   0.577   7.856   6.839 -0.8972 -0.5451  1.4957
  701THY    HP717514   0.753   7.883   6.841 -0.7040 -0.7015 -0.7434
  701THY    CA317515   0.876   8.142   6.787 -0.7888  0.0188  0.7469
  701THY    HA317516   0.913   8.059   6.728  0.1291  1.6251 -1.0729
  701THY    CA417517   0.971   8.233   6.823 -0.6807  0.1917  0.5405
  701THY    HA417518   1.074   8.220   6.794 -1.0633 -1.2447 -0.3039
  701THY    CA517519   0.943   8.363   6.878 -0.2581 -0.2405 -0.2259
  701THY    CM117520   1.055   8.462   6.900 -0.0597  0.1159  0.5265
  701THY    HM117521   1.114   8.476   6.810  0.0608  2.7364  0.9287
  701THY    HM217522   1.022   8.557   6.945 -0.8902 -0.3003  0.8295
  701THY    HM317523   1.125   8.422   6.975 -0.1591  2.2312  1.8412
  701THY    CA617524   0.809   8.387   6.916 -0.0663 -0.2145  0.2822
  701THY    HA617525   0.771   8.476   6.966 -0.2896 -0.6781  0.9679
  702THY      O17526   5.753   4.065   3.433  0.5904 -0.3423 -0.3777
  702THY     HO17527   5.772   4.133   3.500  2.4669 -0.7943 -0.4068
  702THY    CA117528   5.783   3.944   3.476 -0.0318  1.1738  0.4214
  702THY    CA217529   5.734   3.824   3.410 -0.7233  0.0309 -0.4922
  702THY    CP117530   5.634   3.828   3.292  0.3679 -0.7860 -0.4897
  702THY    HP117531   5.653   3.922   3.238 -2.5784  1.1503  1.5230
  702THY    CP217532   5.657   3.719   3.193 -0.5439 -0.0537  0.0774
  702THY    HP217533   5.592   3.742   3.108 -0.5078  2.4955  0.6574
  702THY    HP317534   5.763   3.714   3.165 -0.7640 -1.2168 -0.6102
  702THY    HP417535   5.633   3.617   3.227  1.0772 -0.6303 -0.4391
  702THY    CP317536   5.490   3.828   3.350  0.8880  0.0434 -0.0647
  702THY    HP517537   5.486   3.737   3.412  3.6125 -1.4751 -1.9202
  702THY    HP617538   5.459   3.915   3.408 -0.7185  0.7863 -1.9157
  702THY    HP717539   5.415   3.827   3.270  2.3413  1.9611 -1.5429
  702THY    CA317540   5.773   3.700   3.456  0.2767  0.4689  0.1378
  702THY    HA317541   5.750   3.608   3.402  2.3706 -1.1774  1.8414
  702THY    CA417542   5.862   3.687   3.572 -0.0774  0.6789  0.4512
  702THY    HA417543   5.895   3.586   3.597 -2.8610 -0.4474  0.0062
  702THY    CA517544   5.904   3.805   3.635  0.4580 -0.3700  0.3376
  702THY    CM117545   5.991   3.799   3.752  0.4970 -0.0628 -0.5358
  702THY    HM117546   6.095   3.769   3.736  1.7725  3.5188  0.2104
  702THY    HM217547   5.993   3.891   3.811 -2.4548  1.4787 -2.5859
  702THY    HM317548   5.951   3.723   3.821 -0.3855  0.1278 -0.8249
  702THY    CA617549   5.866   3.934   3.592  0.2530 -0.2660  0.1111
  702THY    HA617550   5.900   4.022   3.646 -1.5728  0.6792 -0.1893
  703THY      O17551   0.723   2.507   9.752  0.0427  0.2398  0.2167
  703THY     HO17552   0.819   2.517   9.739  0.3430 -1.4903  0.8320
  703THY    CA117553   0.703   2.398   9.830  0.1702  0.6570 -0.0313
  703THY    CA217554   0.592   2.316   9.819  0.0833  0.4470  0.0366
  703THY    CP117555   0.479   2.331   9.710 -0.4710 -1.0149 -0.6380
  703THY    HP117556   0.493   2.436   9.682 -0.1051 -0.8755  0.0560
  703THY    CP217557   0.524   2.239   9.593  0.0128  0.0266  0.0482
  703THY    HP217558   0.541   2.135   9.624  2.1539  1.1047  3.0535
  703THY    HP317559   0.447   2.241   9.515 -1.7064  0.1277  1.6841
  703THY    HP417560   0.621   2.269   9.552  0.1665 -0.8312 -0.2409
  703THY    CP317561   0.343   2.304   9.766  0.2123  0.1645 -0.7172
  703THY    HP517562   0.324   2.380   9.843 -2.4134 -0.4579 -0.6350
  703THY    HP617563   0.264   2.316   9.691  0.4688 -0.0235 -1.0183
  703THY    HP717564   0.342   2.205   9.812 -1.4601  0.6584  0.4077
  703THY    CA317565   0.586   2.196   9.895 -0.8738 -0.1868 -0.6407
  703THY    HA317566   0.507   2.122   9.894  0.9580 -2.3370  1.0342
  703THY    CA417567   0.698   2.158   9.975 -0.2027  0.9222 -0.1011
  703THY    HA417568   0.690   2.059  10.020 -2.6770  1.4410  0.7552
  703THY    CA517569   0.811   2.241   9.978 -0.2954 -0.3010  0.2791
  703THY    CM117570   0.926   2.195  10.050 -0.8558  0.0319 -0.2329
  703THY    HM117571   1.018   2.236  10.007 -2.1742  2.1444 -1.2279
  703THY    HM217572   0.921   2.222  10.157  1.4984  3.8246 -0.8920
  703THY    HM317573   0.933   2.086  10.042  0.2564  0.1990 -1.7694
  703THY    CA617574   0.813   2.361   9.903  0.2934 -0.3074  0.0009
  703THY    HA617575   0.900   2.426   9.910 -0.1850  0.2497  1.0173
  704THY      O17576   7.837   4.012   0.051 -0.4205  0.4272  0.1551
  704THY     HO17577   7.826   4.034   0.145 -0.1427  0.3827  0.1996
  704THY    CA117578   7.929   3.912   0.052 -0.1211  0.0903 -0.4927
  704THY    CA217579   8.036   3.906  -0.042 -0.4930  0.7660 -0.1807
  704THY    CP117580   8.060   4.000  -0.141 -0.5625 -0.3489  0.9929
  704THY    HP117581   7.975   4.068  -0.159  0.8668  1.6008  1.3277
  704THY    CP217582   8.186   4.085  -0.119  0.4685 -0.3486  0.5485
  704THY    HP217583   8.187   4.158  -0.200 -0.3571  4.1161  4.1522
  704THY    HP317584   8.190   4.141  -0.025 -0.8159  1.3778 -0.3678
  704THY    HP417585   8.273   4.019  -0.121  1.1496  0.5056  1.2267
  704THY    CP317586   8.067   3.927  -0.277  0.0353 -0.4347  0.1757
  704THY    HP517587   7.994   3.845  -0.276 -0.0414 -0.3906 -0.8431
  704THY    HP617588   8.038   3.986  -0.364  2.0888 -1.6392 -1.4384
  704THY    HP717589   8.168   3.885  -0.290  0.0569 -0.2250 -0.3498
  704THY    CA317590   8.137   3.800  -0.020  0.4241  0.1273  0.5298
  704THY    HA317591   8.219   3.795  -0.091 -1.6670  0.5754 -2.1075
  704THY    CA417592   8.120   3.713   0.091 -0.3816 -0.1728  0.2236
  704THY    HA417593   8.200   3.644   0.116  0.4017  0.4953 -0.3820
  704THY    CA517594   8.016   3.728   0.178 -0.4925 -0.4157  0.1258
  704THY    CM117595   8.008   3.632   0.284  0.4745 -0.1084 -0.2376
  704THY    HM117596   8.093   3.646   0.351 -0.2650 -0.2099  0.7561
  704THY    HM217597   7.914   3.635   0.342  0.1463 -1.0151 -0.7016
  704THY    HM317598   8.011   3.538   0.228  1.8531  0.5855 -1.3758
  704THY    CA617599   7.918   3.827   0.153  0.6944  0.3519  0.3693
  704THY    HA617600   7.839   3.844   0.226  0.1906 -0.4131  0.0240
  705THY      O17601   4.187   6.898   6.704  0.0423  0.2643  0.6732
  705THY     HO17602   4.240   6.842   6.645 -0.0669  1.1146 -0.2665
  705THY    CA117603   4.108   6.816   6.772  0.1905  0.3623 -0.5908
  705THY    CA217604   3.999   6.873   6.847 -0.3153 -0.4393 -0.7519
  705THY    CP117605   3.974   7.031   6.858 -0.5764  0.0066 -0.1283
  705THY    HP117606   4.067   7.085   6.835 -1.8832  2.7395  0.6782
  705THY    CP217607   3.861   7.081   6.771  0.0247 -0.3262  0.5058
  705THY    HP217608   3.884   7.059   6.666 -0.1675  2.7239 -0.2961
  705THY    HP317609   3.771   7.026   6.799 -0.1660 -1.4824 -2.0946
  705THY    HP417610   3.847   7.190   6.778  3.0956  0.1320  0.6944
  705THY    CP317611   3.950   7.084   7.003 -0.7818  0.4948 -0.9164
  705THY    HP517612   4.048   7.093   7.051 -1.5307 -1.0646  1.0763
  705THY    HP617613   3.908   7.183   7.024 -0.4721 -0.1748  4.2128
  705THY    HP717614   3.902   7.017   7.076  0.3332 -0.1413 -0.7561
  705THY    CA317615   3.911   6.783   6.908  0.4180  0.5076 -0.2511
  705THY    HA317616   3.832   6.820   6.972  2.8164  1.0128  2.6378
  705THY    CA417617   3.921   6.645   6.885  0.1123  0.1383  0.1733
  705THY    HA417618   3.855   6.570   6.927  0.8752 -0.9123 -0.4423
  705THY    CA517619   4.038   6.592   6.817  0.2543  0.5195 -0.5589
  705THY    CM117620   4.063   6.453   6.790 -0.5065  0.2436 -0.0644
  705THY    HM117621   3.972   6.406   6.754 -0.3449 -1.1684  1.2615
  705THY    HM217622   4.145   6.447   6.717 -0.9691  1.5146 -0.7040
  705THY    HM317623   4.081   6.397   6.883 -0.6296 -0.3051 -0.3722
  705THY    CA617624   4.117   6.682   6.761 -0.0487 -0.4612  0.3355
  705THY    HA617625   4.213   6.646   6.723 -0.4627 -0.2615 -0.9523
  706THY      O17626   5.937   0.765   5.962  0.6498  0.0243 -0.2493
  706THY     HO17627   5.914   0.817   6.041 -2.6713  2.9765 -2.7905
  706THY    CA117628   5.913   0.841   5.857  0.0511  0.1284  0.2604
  706THY    CA217629   5.943   0.809   5.720 -0.0490 -0.1960  0.8002
  706THY    CP117630   5.994   0.666   5.690  0.2362  1.1464  0.0785
  706THY    HP117631   5.948   0.599   5.764 -2.1451  1.6699 -0.8337
  706THY    CP217632   5.963   0.600   5.554  0.2614 -0.2927  0.4058
  706THY    HP217633   6.002   0.499   5.540  0.1821  0.0538 -3.6389
  706THY    HP317634   5.854   0.591   5.557  0.0446  1.9202  1.1088
  706THY    HP417635   5.987   0.671   5.473 -1.2232  0.8285  0.8992
  706THY    CP317636   6.148   0.666   5.704  0.3617  0.4904 -0.2552
  706THY    HP517637   6.195   0.731   5.629 -0.4363 -0.1379 -1.3334
  706THY    HP617638   6.186   0.692   5.803  0.9198  0.0068 -0.3429
  706THY    HP717639   6.180   0.563   5.688 -1.4171 -0.0880 -0.3799
  706THY    CA317640   5.922   0.904   5.621  1.0554 -0.0859  0.7273
  706THY    HA317641   5.948   0.879   5.519 -0.9028  0.4842  0.0324
  706THY    CA417642   5.853   1.028   5.649 -0.4902 -0.4250 -0.8118
  706THY    HA417643   5.820   1.102   5.577 -0.1679  2.1187  1.4802
  706THY    CA517644   5.831   1.055   5.788 -0.0974 -0.0244  0.6066
  706THY    CM117645   5.775   1.192   5.840  0.1609  0.4404 -0.1171
  706THY    HM117646   5.671   1.180   5.871  0.0060  1.3313 -0.2826
  706THY    HM217647   5.841   1.215   5.925 -1.3475  3.7671  0.2923
  706THY    HM317648   5.785   1.269   5.763 -0.7593  0.9873  0.3013
  706THY    CA617649   5.857   0.967   5.886 -0.4324  0.8967 -0.6098
  706THY    HA617650   5.835   1.002   5.986 -0.8817 -2.6056  0.6752
  707THY      O17651   5.104   4.453   9.886 -0.2169  0.5511 -0.1049
  707THY     HO17652   5.199   4.475   9.878  0.2363 -1.2636 -0.0558
  707THY    CA117653   5.047   4.569   9.852  0.3567  0.3457 -0.0681
  707THY    CA217654   4.921   4.569   9.778  0.2497 -0.1713  0.1046
  707THY    CP117655   4.848   4.443   9.748  0.1026  0.3587 -0.1241
  707THY    HP117656   4.918   4.359   9.751 -0.0780  0.2214  0.1769
  707THY    CP217657   4.745   4.426   9.863  0.2042  0.2417 -0.0620
  707THY    HP217658   4.709   4.323   9.856  3.4368 -1.1758  1.7938
  707THY    HP317659   4.801   4.441   9.957 -0.3415  1.6647  0.0662
  707THY    HP417660   4.676   4.511   9.867  2.1601  1.9353 -0.5541
  707THY    CP317661   4.776   4.437   9.616  0.7358  0.3099 -0.2700
  707THY    HP517662   4.757   4.335   9.582 -1.6811  0.2551  1.0623
  707THY    HP617663   4.676   4.482   9.622  0.9957  1.1768 -1.8391
  707THY    HP717664   4.838   4.490   9.542 -0.8274  1.6576 -0.6860
  707THY    CA317665   4.874   4.694   9.734 -0.0032  0.4206 -0.2240
  707THY    HA317666   4.780   4.703   9.680 -0.9834 -1.3195  1.1054
  707THY    CA417667   4.934   4.808   9.792 -0.2963  0.1102 -0.0017
  707THY    HA417668   4.890   4.903   9.761  0.1455  0.2713 -0.1406
  707THY    CA517669   5.052   4.811   9.860  0.2347  0.3804 -0.1858
  707THY    CM117670   5.113   4.935   9.910 -1.1116  0.0105 -0.5976
  707THY    HM117671   5.138   5.003   9.829 -0.1848 -0.6221 -0.8635
  707THY    HM217672   5.041   4.982   9.978 -1.8777  0.7646 -1.8954
  707THY    HM317673   5.209   4.909   9.957 -0.2541  1.4868 -1.4671
  707THY    CA617674   5.115   4.687   9.879  0.2419  0.1720  0.7298
  707THY    HA617675   5.215   4.684   9.922 -0.1321 -1.8287  1.5668
  708THY      O17676   3.108   2.518   6.645 -1.0555 -0.0188 -0.2099
  708THY     HO17677   3.146   2.583   6.706 -1.2758 -0.3473  0.2854
  708THY    CA117678   2.973   2.526   6.639  0.1494 -0.2125  0.2211
  708THY    CA217679   2.899   2.413   6.590  0.5542  0.4828 -0.1203
  708THY    CP117680   2.955   2.275   6.555  0.2944 -0.4617  0.1543
  708THY    HP117681   3.064   2.277   6.564  0.4308  0.3755 -1.2141
  708THY    CP217682   2.896   2.174   6.657  0.4456 -0.0594 -0.4041
  708THY    HP217683   2.881   2.215   6.758  0.8065  2.0141 -1.1504
  708THY    HP317684   2.794   2.151   6.627 -1.8062  3.2677  3.6259
  708THY    HP417685   2.968   2.093   6.678  0.1413 -0.1556  0.2799
  708THY    CP317686   2.928   2.227   6.407 -0.3573 -0.0174 -0.3106
  708THY    HP517687   2.835   2.170   6.406 -0.6729  0.4378  0.9489
  708THY    HP617688   2.915   2.317   6.346  1.7637  0.4180 -0.2178
  708THY    HP717689   3.014   2.171   6.367 -0.5902 -0.0110 -0.8197
  708THY    CA317690   2.761   2.433   6.583 -0.3776  0.4583  0.0046
  708THY    HA317691   2.692   2.353   6.555 -2.5699  2.2127  0.0795
  708THY    CA417692   2.705   2.557   6.613  0.3229  0.2145 -0.5268
  708THY    HA417693   2.598   2.572   6.601  0.6777  3.2862 -0.5740
  708THY    CA517694   2.782   2.664   6.655 -0.2315  0.4422 -0.0612
  708THY    CM117695   2.719   2.793   6.693 -0.4755  0.6705 -0.4928
  708THY    HM117696   2.620   2.809   6.650 -0.5965  0.5312 -0.2690
  708THY    HM217697   2.704   2.792   6.802  0.8568 -1.2066 -0.2745
  708THY    HM317698   2.784   2.877   6.667 -0.5843  1.9080  2.7888
  708THY    CA617699   2.921   2.648   6.668  0.0824 -0.5448  0.5861
  708THY    HA617700   2.976   2.722   6.725  0.8905  1.2368 -2.2961
  709THY      O17701   4.163   3.277   6.409 -0.2445 -0.0461 -0.3657
  709THY     HO17702   4.244   3.325   6.386  0.0900 -1.2515 -1.8027
  709THY    CA117703   4.164   3.161   6.341 -0.1484  0.1201  1.2670
  709THY    CA217704   4.109   3.041   6.390  0.5423 -0.0841  0.3452
  709THY    CP117705   4.008   3.045   6.510 -1.1584  0.3853  0.4756
  709THY    HP117706   3.992   3.147   6.545 -0.4381  0.3817  0.8244
  709THY    CP217707   3.874   2.988   6.465 -0.0125 -0.8904 -0.4217
  709THY    HP217708   3.802   3.001   6.546  0.0861  1.7563 -0.6611
  709THY    HP317709   3.828   3.058   6.395 -0.6403 -1.2272 -0.3494
  709THY    HP417710   3.887   2.885   6.431  1.2368 -0.9537  0.1904
  709THY    CP317711   4.073   2.986   6.634  0.2284  0.1393  0.3192
  709THY    HP517712   4.150   3.051   6.675 -0.7942  1.6712 -0.1192
  709THY    HP617713   3.998   2.971   6.713  0.3087 -2.3084  0.0371
  709THY    HP717714   4.102   2.881   6.621  1.8339  0.2901  2.2351
  709THY    CA317715   4.129   2.924   6.325 -0.1127 -0.3417 -0.1326
  709THY    HA317716   4.101   2.833   6.378  1.8742  0.5076  2.5990
  709THY    CA417717   4.195   2.931   6.198 -0.3524 -0.4477  1.0929
  709THY    HA417718   4.211   2.838   6.144  1.9048  1.2003 -1.2629
  709THY    CA517719   4.245   3.054   6.147 -0.3318  0.8361 -0.0809
  709THY    CM117720   4.306   3.060   6.016  0.1629 -0.1837 -0.1540
  709THY    HM117721   4.409   3.025   6.024 -0.1451 -1.1573 -0.2528
  709THY    HM217722   4.256   2.988   5.950  1.6955 -1.2870 -0.1672
  709THY    HM317723   4.290   3.160   5.975 -2.1453 -0.9816 -1.3618
  709THY    CA617724   4.230   3.167   6.221 -0.7073  0.2646 -0.1392
  709THY    HA617725   4.252   3.266   6.181 -0.2435  0.1409 -0.2013
  710THY      O17726   3.046   4.751   2.157 -0.2862 -0.3204  0.2200
  710THY     HO17727   3.123   4.803   2.129 -0.4019 -0.2794 -0.0218
  710THY    CA117728   3.013   4.656   2.072  0.6838 -0.3184 -0.1128
  710THY    CA217729   2.892   4.578   2.090 -0.8028  1.2641 -0.1180
  710THY    CP117730   2.787   4.619   2.195 -0.9462 -0.4032 -0.3952
  710THY    HP117731   2.839   4.694   2.257  1.8880 -0.5445 -2.4412
  710THY    CP217732   2.672   4.698   2.128  0.1015 -0.5423 -0.1552
  710THY    HP217733   2.589   4.724   2.195 -0.0036  3.1085 -1.4805
  710THY    HP317734   2.714   4.786   2.078 -0.9268  0.7700  1.1941
  710THY    HP417735   2.625   4.639   2.048  1.0353 -1.0380 -0.3487
  710THY    CP317736   2.738   4.506   2.286  0.2557  0.6621 -0.2832
  710THY    HP517737   2.667   4.552   2.355  1.3601  0.7927  0.7969
  710THY    HP617738   2.692   4.435   2.217  0.0907  0.2081  0.2856
  710THY    HP717739   2.818   4.458   2.344 -0.5107 -1.6113 -1.0115
  710THY    CA317740   2.870   4.473   1.993 -0.1044  0.3476  0.3079
  710THY    HA317741   2.777   4.416   1.997 -0.7181  1.1587 -1.4533
  710THY    CA417742   2.957   4.444   1.896  0.1416 -0.2448  0.0076
  710THY    HA417743   2.917   4.365   1.834 -1.5891 -0.7192  1.6215
  710THY    CA517744   3.067   4.523   1.876 -0.3734  0.0106  0.1797
  710THY    CM117745   3.165   4.500   1.772 -0.1277 -0.1107  0.4144
  710THY    HM117746   3.191   4.594   1.723 -1.0668  0.5975  1.2308
  710THY    HM217747   3.248   4.445   1.818 -1.1057 -0.1837  2.1912
  710THY    HM317748   3.132   4.419   1.706  1.9346 -2.0635  1.6251
  710THY    CA617749   3.099   4.628   1.963  0.2562  0.3816  0.9692
  710THY    HA617750   3.179   4.698   1.941  0.4306 -0.4481 -1.3990
  711THY      O17751   9.644   5.348   3.287  0.0445 -0.4385  0.3575
  711THY     HO17752   9.668   5.299   3.368  1.2159  0.6720  0.7172
  711THY    CA117753   9.537   5.289   3.229 -0.0810  0.1943 -0.0903
  711THY    CA217754   9.457   5.355   3.140  0.1260  0.3108 -1.0169
  711THY    CP117755   9.474   5.499   3.104  0.0500 -0.0800 -0.2592
  711THY    HP117756   9.565   5.544   3.144 -0.6615  0.3644  0.9221
  711THY    CP217757   9.482   5.530   2.959  0.9160  0.3312  0.0907
  711THY    HP217758   9.488   5.635   2.927 -0.3225  0.2232 -0.5887
  711THY    HP317759   9.561   5.476   2.906 -1.1476  0.0113 -2.9190
  711THY    HP417760   9.387   5.495   2.916  0.5428  1.2879  0.0992
  711THY    CP317761   9.359   5.574   3.161 -0.6118 -0.6962 -0.1329
  711THY    HP517762   9.344   5.557   3.268 -0.1980 -0.3419 -0.0166
  711THY    HP617763   9.392   5.679   3.166 -0.2094 -0.8018 -0.4447
  711THY    HP717764   9.265   5.575   3.105  0.1673  0.0958 -1.4724
  711THY    CA317765   9.342   5.289   3.081  0.0402  0.1853 -0.1471
  711THY    HA317766   9.276   5.344   3.014 -0.2524 -0.2612 -0.2340
  711THY    CA417767   9.310   5.160   3.120 -1.0569 -0.2541 -0.8354
  711THY    HA417768   9.227   5.103   3.077 -0.2332 -0.5998 -2.0438
  711THY    CA517769   9.391   5.091   3.213  0.8114  0.2359  0.1079
  711THY    CM117770   9.361   4.947   3.250 -0.1046 -0.3195 -0.1742
  711THY    HM117771   9.450   4.887   3.269 -0.1980 -0.9615 -1.6639
  711THY    HM217772   9.294   4.942   3.337  0.4834 -0.7572  0.2633
  711THY    HM317773   9.298   4.903   3.171  1.3771 -1.9649 -0.4982
  711THY    CA617774   9.506   5.152   3.265  0.4295  0.9048 -0.5856
  711THY    HA617775   9.563   5.101   3.342 -3.7556 -0.7611  1.7451
  712THY      O17776   8.417   6.707   2.297 -0.5697  0.4780  0.0256
  712THY     HO17777   8.477   6.782   2.284 -1.7264  1.8189  1.8779
  712THY    CA117778   8.485   6.629   2.380 -0.6271  0.2754 -0.1858
  712THY    CA217779   8.440   6.499   2.417 -0.2627 -0.0047  0.1969
  712THY    CP117780   8.310   6.442   2.361  0.3235  0.1406 -0.1721
  712THY    HP117781   8.305   6.460   2.253 -0.1814 -1.2138 -0.3923
  712THY    CP217782   8.289   6.291   2.389 -0.2712  0.2405 -0.5856
  712THY    HP217783   8.382   6.237   2.370  1.4106  1.9972  2.0755
  712THY    HP317784   8.260   6.271   2.493  0.6203  2.1137  0.0618
  712THY    HP417785   8.207   6.252   2.327  0.9797 -4.0962  0.1609
  712THY    CP317786   8.198   6.512   2.436 -0.0712 -0.3975  0.0647
  712THY    HP517787   8.210   6.480   2.540 -1.1837 -2.3406 -0.3379
  712THY    HP617788   8.212   6.620   2.424  0.8769 -0.4641  0.4959
  712THY    HP717789   8.099   6.477   2.403 -0.6410  0.4374  0.8518
  712THY    CA317790   8.526   6.430   2.505 -0.6363 -0.7235 -0.1952
  712THY    HA317791   8.499   6.336   2.553  0.0344  0.5237  2.8191
  712THY    CA417792   8.651   6.478   2.547 -0.7433 -0.1540 -0.1173
  712THY    HA417793   8.718   6.417   2.607 -1.5545 -0.8584  0.1071
  712THY    CA517794   8.678   6.615   2.511  0.9811  0.1579 -0.1297
  712THY    CM117795   8.810   6.677   2.543 -1.0975 -0.7075  0.3924
  712THY    HM117796   8.850   6.664   2.644  0.5498  0.5945 -0.0303
  712THY    HM217797   8.881   6.634   2.471  0.1077 -0.1764  1.2382
  712THY    HM317798   8.824   6.785   2.531 -0.8151 -0.4139  2.8102
  712THY    CA617799   8.598   6.691   2.435 -0.3908  0.3060  0.5062
  712THY    HA617800   8.627   6.794   2.416  2.2996 -0.4352  0.2846
  713THY      O17801   5.298   2.113   0.350 -0.2307  0.4909 -0.0326
  713THY     HO17802   5.367   2.161   0.399 -0.4995  0.3835  0.4504
  713THY    CA117803   5.267   2.194   0.245  0.8328 -0.3118  0.1061
  713THY    CA217804   5.141   2.195   0.192 -0.2582 -0.3963 -0.0148
  713THY    CP117805   5.026   2.122   0.260  0.1269  0.7724  0.3235
  713THY    HP117806   5.051   2.047   0.336 -1.2333  1.1754  1.2019
  713THY    CP217807   4.935   2.221   0.327  0.4947  0.7021  0.3847
  713THY    HP217808   4.890   2.291   0.257 -3.1050 -2.5167 -0.9000
  713THY    HP317809   4.854   2.174   0.384  0.8148  0.3900  0.5882
  713THY    HP417810   5.001   2.275   0.396  1.4742 -0.1502  0.1567
  713THY    CP317811   4.949   2.036   0.161 -0.5368 -0.0435 -0.0907
  713THY    HP517812   4.873   1.974   0.210  2.0235 -0.1942  4.2421
  713THY    HP617813   4.907   2.100   0.084 -0.3025 -0.3008 -0.4352
  713THY    HP717814   5.022   1.966   0.118 -0.5546 -0.7626  1.0053
  713THY    CA317815   5.125   2.287   0.086 -0.0759  0.2528  0.4541
  713THY    HA317816   5.031   2.299   0.034 -0.3647  1.6064  1.2555
  713THY    CA417817   5.225   2.375   0.040 -0.3754 -0.0479 -0.2505
  713THY    HA417818   5.209   2.441  -0.045  0.7545 -0.6139 -0.9138
  713THY    CA517819   5.343   2.386   0.110  0.1086  0.2943  0.6404
  713THY    CM117820   5.452   2.468   0.059  0.8312 -0.0386  0.0467
  713THY    HM117821   5.553   2.450   0.099  1.4036  2.1970 -0.2167
  713THY    HM217822   5.458   2.472  -0.050 -0.7173  0.5813 -0.0462
  713THY    HM317823   5.424   2.571   0.087  3.4463  1.0725 -1.0938
  713THY    CA617824   5.368   2.284   0.205  0.3938  0.0434  0.7109
  713THY    HA617825   5.468   2.280   0.247  1.1186  3.4463 -0.3617
  714THY      O17826   7.758   7.154   5.388  0.6600 -0.1729  0.2640
  714THY     HO17827   7.760   7.181   5.481 -1.1122 -0.1311  0.3135
  714THY    CA117828   7.789   7.255   5.306  0.4717  0.1489  0.3163
  714THY    CA217829   7.776   7.388   5.346 -0.4963  0.1946  0.2703
  714THY    CP117830   7.725   7.437   5.480 -0.5191 -0.4771  0.4017
  714THY    HP117831   7.736   7.357   5.554  0.1301 -1.2519 -0.5092
  714THY    CP217832   7.797   7.559   5.545 -0.2345  0.4605  0.4287
  714THY    HP217833   7.777   7.552   5.652  0.0532  1.6944  0.5843
  714THY    HP317834   7.906   7.552   5.531  0.1157 -0.7446  3.1821
  714THY    HP417835   7.765   7.649   5.491  1.2605  0.2701 -0.8520
  714THY    CP317836   7.575   7.488   5.473 -0.1662  1.0003  0.1659
  714THY    HP517837   7.533   7.497   5.574 -1.0486  2.8111 -0.3112
  714THY    HP617838   7.565   7.586   5.425 -1.1779 -0.4037 -2.7053
  714THY    HP717839   7.511   7.418   5.418  1.6502  1.3250 -2.5275
  714THY    CA317840   7.828   7.485   5.261  0.3081  0.1217  0.3551
  714THY    HA317841   7.836   7.589   5.291  1.1743 -0.3231  1.8164
  714THY    CA417842   7.865   7.456   5.129  0.4015  0.5726 -0.3448
  714THY    HA417843   7.901   7.539   5.069  2.3588 -0.6706 -0.9427
  714THY    CA517844   7.857   7.326   5.084  0.1128 -0.2043 -0.4087
  714THY    CM117845   7.882   7.293   4.937 -0.6879 -0.4156  0.2407
  714THY    HM117846   7.846   7.369   4.867  2.5526 -0.6176 -1.8635
  714THY    HM217847   7.990   7.300   4.921 -0.8157  4.7596 -0.0216
  714THY    HM317848   7.831   7.202   4.904 -2.2236 -0.1130  1.6296
  714THY    CA617849   7.823   7.221   5.175 -0.0209  0.1768 -0.2232
  714THY    HA617850   7.833   7.117   5.146  2.0426  0.1214  0.5416
  715THY      O17851   7.258   2.464   2.837 -0.2044 -0.0835  0.0187
  715THY     HO17852   7.167   2.490   2.859 -0.2437  0.2850 -0.5381
  715THY    CA117853   7.280   2.489   2.702  0.3895  0.0236 -0.4408
  715THY    CA217854   7.409   2.492   2.643 -0.2099 -0.2429 -0.4091
  715THY    CP117855   7.526   2.465   2.737  0.6174  0.8193 -0.3845
  715THY    HP117856   7.493   2.496   2.836 -1.7362 -0.9102 -0.5306
  715THY    CP217857   7.554   2.317   2.755 -0.1565 -0.0161  0.2699
  715THY    HP217858   7.480   2.271   2.822 -0.4551 -0.6891 -0.5049
  715THY    HP317859   7.561   2.279   2.653 -0.0629 -1.1200  0.6788
  715THY    HP417860   7.650   2.308   2.808 -0.4409 -0.7066  0.6774
  715THY    CP317861   7.651   2.538   2.687  0.6340 -0.6354  0.0182
  715THY    HP517862   7.676   2.517   2.582 -3.3595 -0.1285 -1.1974
  715THY    HP617863   7.630   2.644   2.705 -1.1958 -0.8297 -0.7507
  715THY    HP717864   7.742   2.520   2.745  0.8649 -0.5669 -0.3200
  715THY    CA317865   7.420   2.503   2.500  0.6096  0.3469 -0.4063
  715THY    HA317866   7.513   2.496   2.443 -0.1231 -0.7184 -1.4906
  715THY    CA417867   7.300   2.511   2.429  0.2468 -0.0120  0.0415
  715THY    HA417868   7.312   2.533   2.323  0.8142 -1.4979 -0.2402
  715THY    CA517869   7.177   2.506   2.489  0.6428 -0.3665  0.2412
  715THY    CM117870   7.050   2.528   2.409 -0.0265  0.3230 -0.2582
  715THY    HM117871   7.063   2.620   2.351 -0.3957  2.4232  2.7422
  715THY    HM217872   7.028   2.442   2.344  2.6328 -0.1660 -0.6327
  715THY    HM317873   6.972   2.532   2.485  1.6025 -4.2370  2.0426
  715THY    CA617874   7.166   2.480   2.624 -0.5754 -0.5381  0.5437
  715THY    HA617875   7.069   2.458   2.666 -1.9764 -1.0685 -2.7059
  716THY      O17876   1.001   5.857   7.697  0.4726 -0.2663  0.1673
  716THY     HO17877   1.049   5.841   7.779 -1.2571 -0.8242  1.1149
  716THY    CA117878   1.028   5.757   7.618 -0.4799 -0.6184 -0.0882
  716THY    CA217879   0.969   5.738   7.493 -0.1056  0.2793  0.1371
  716THY    CP117880   0.862   5.833   7.437  0.1577  0.2669  0.2462
  716THY    HP117881   0.874   5.928   7.489  1.0271 -0.4971  1.5197
  716THY    CP217882   0.882   5.862   7.286 -0.2498  0.6069  0.5868
  716THY    HP217883   0.863   5.765   7.238 -0.0125  0.1269  1.4342
  716THY    HP317884   0.812   5.943   7.263 -0.2497  0.1523 -1.1743
  716THY    HP417885   0.985   5.892   7.264  0.0391 -0.6384  0.1221
  716THY    CP317886   0.716   5.784   7.463  0.6864  0.2648 -0.3146
  716THY    HP517887   0.716   5.765   7.571 -0.0225 -0.4616 -0.4257
  716THY    HP617888   0.640   5.856   7.429  0.4167 -0.7447 -1.9549
  716THY    HP717889   0.701   5.688   7.412  1.2791 -0.6869  1.2596
  716THY    CA317890   1.008   5.628   7.421  0.6282 -0.0472  0.4959
  716THY    HA317891   0.958   5.598   7.330 -0.4492 -3.5574  2.0624
  716THY    CA417892   1.114   5.547   7.460 -0.0740 -0.1858  0.0888
  716THY    HA417893   1.140   5.460   7.401  0.7462  0.2171 -0.1550
  716THY    CA517894   1.179   5.570   7.586 -0.1735 -0.9658  0.6666
  716THY    CM117895   1.299   5.493   7.635 -0.1919 -0.4235  0.5908
  716THY    HM117896   1.400   5.535   7.623 -1.4144  1.9725 -2.4330
  716THY    HM217897   1.288   5.470   7.742 -0.9575  0.6026  0.7487
  716THY    HM317898   1.305   5.400   7.578  0.8615 -0.6608  1.0531
  716THY    CA617899   1.134   5.680   7.665  0.6830  0.4687  0.1177
  716THY    HA617900   1.177   5.690   7.764 -1.4862  0.0658  1.1563
  717THY      O17901   5.224   0.425   9.546 -0.0587 -0.2830 -0.1136
  717THY     HO17902   5.198   0.374   9.467 -1.1882  1.2039 -0.7576
  717THY    CA117903   5.108   0.477   9.590  0.7282 -0.1317  0.2988
  717THY    CA217904   5.104   0.571   9.703  0.3104  0.0279  0.4755
  717THY    CP117905   5.227   0.607   9.781 -0.1391  0.5578 -0.6242
  717THY    HP117906   5.318   0.554   9.750 -0.1380 -1.7467  2.7673
  717THY    CP217907   5.256   0.765   9.777 -0.3420  0.5329 -0.3045
  717THY    HP217908   5.242   0.805   9.676 -3.6770  1.9002  0.5821
  717THY    HP317909   5.190   0.822   9.843  0.4248  2.7269 -1.3291
  717THY    HP417910   5.361   0.781   9.805 -0.3459  0.9549 -0.5262
  717THY    CP317911   5.211   0.553   9.919  0.3016  0.4110 -0.7149
  717THY    HP517912   5.139   0.609   9.980  0.9719  0.2867  0.2049
  717THY    HP617913   5.175   0.449   9.916 -0.0947  0.5607 -1.7294
  717THY    HP717914   5.303   0.547   9.977  0.3269 -1.1147 -0.8760
  717THY    CA317915   4.978   0.632   9.730 -0.1968 -0.1708  0.7324
  717THY    HA317916   4.973   0.705   9.811 -0.6559  3.1296 -2.0533
  717THY    CA417917   4.860   0.604   9.652 -0.4685  0.5601 -0.6134
  717THY    HA417918   4.767   0.657   9.668 -0.8708  0.1583 -1.5707
  717THY    CA517919   4.872   0.521   9.543  0.3102  0.4175  0.8967
  717THY    CM117920   4.756   0.500   9.441 -0.6689 -0.5761  0.4186
  717THY    HM117921   4.656   0.505   9.486 -0.8246 -0.2796  0.0417
  717THY    HM217922   4.751   0.577   9.364 -1.1977 -1.2027 -0.1902
  717THY    HM317923   4.765   0.407   9.384  0.5100 -0.6205  0.6600
  717THY    CA617924   4.996   0.457   9.510  0.1980  0.6195 -0.0513
  717THY    HA617925   5.009   0.398   9.421  3.2937  0.8032  0.1748
  718THY      O17926   8.736   5.074   1.556  0.2175 -0.3080  0.3508
  718THY     HO17927   8.826   5.080   1.521 -0.7974  1.3583 -2.3134
  718THY    CA117928   8.724   4.949   1.609  0.0864  0.0602 -0.6509
  718THY    CA217929   8.601   4.884   1.606 -0.3485 -0.0498 -0.2724
  718THY    CP117930   8.475   4.941   1.537 -1.1198  0.4549  0.0425
  718THY    HP117931   8.514   5.011   1.463  1.2660  1.7229  2.3623
  718THY    CP217932   8.387   4.834   1.474 -0.0226 -0.0544  0.3842
  718THY    HP217933   8.425   4.769   1.395 -0.2512  1.7102 -1.2515
  718THY    HP317934   8.346   4.765   1.550 -2.8252  0.8377 -0.2174
  718THY    HP417935   8.296   4.883   1.438 -0.2830 -0.5128  0.4076
  718THY    CP317936   8.390   5.020   1.632  0.7296 -0.1684 -0.3779
  718THY    HP517937   8.354   4.954   1.712 -1.1041  1.5053  0.2509
  718THY    HP617938   8.454   5.097   1.678 -0.9786  2.9802 -2.8834
  718THY    HP717939   8.314   5.080   1.583  0.2089  0.0914  0.7096
  718THY    CA317940   8.595   4.763   1.676 -0.4455  0.5059 -0.5535
  718THY    HA317941   8.502   4.709   1.690 -1.2081  1.7829 -0.5202
  718THY    CA417942   8.708   4.711   1.736 -0.2904  0.1368 -0.5001
  718THY    HA417943   8.709   4.625   1.802  0.4177  0.7475  0.3078
  718THY    CA517944   8.835   4.778   1.727  0.6214  0.1583  0.0146
  718THY    CM117945   8.962   4.711   1.772  0.0232  0.3569 -0.4135
  718THY    HM117946   8.955   4.687   1.879  0.2555 -0.1121 -0.5024
  718THY    HM217947   8.978   4.618   1.716  2.3866 -0.7206  1.8242
  718THY    HM317948   9.050   4.776   1.766 -0.2600  1.0670  2.0025
  718THY    CA617949   8.842   4.898   1.659  0.0241  0.7360 -0.3783
  718THY    HA617950   8.935   4.951   1.640  0.4443 -0.7331 -2.7838
  719THY      O17951   5.049   7.852   8.674  0.2907 -0.0036 -0.6135
  719THY     HO17952   5.113   7.874   8.603  0.8728 -3.0722 -1.1854
  719THY    CA117953   5.072   7.944   8.773  0.2546  0.0326  0.0674
  719THY    CA217954   5.039   7.917   8.912 -0.3061 -0.2276 -0.1493
  719THY    CP117955   4.982   7.784   8.955 -0.3157 -0.1461  1.2372
  719THY    HP117956   4.924   7.738   8.874  0.9416  0.2486  0.0731
  719THY    CP217957   5.103   7.698   8.984 -0.1459  0.0115 -0.7322
  719THY    HP217958   5.065   7.596   8.989 -1.5340  0.5282 -0.1110
  719THY    HP317959   5.185   7.707   8.912  0.6570  0.0993  0.1657
  719THY    HP417960   5.139   7.723   9.085 -2.3788  1.2035 -0.1756
  719THY    CP317961   4.887   7.785   9.075 -0.2844  0.9366 -0.3454
  719THY    HP517962   4.867   7.681   9.104  0.7815  0.7743 -0.1576
  719THY    HP617963   4.929   7.830   9.165 -0.1028  0.2036 -0.0544
  719THY    HP717964   4.787   7.827   9.061 -1.5595 -1.5396  0.6113
  719THY    CA317965   5.063   8.022   9.002  0.3323  0.2651  0.0254
  719THY    HA317966   5.041   8.016   9.108 -1.0368  1.6831 -0.1318
  719THY    CA417967   5.127   8.140   8.965 -0.1755  0.2369 -0.1372
  719THY    HA417968   5.157   8.209   9.043  0.8825 -1.9561  1.5431
  719THY    CA517969   5.167   8.161   8.833 -0.0581 -0.0299  1.1133
  719THY    CM117970   5.221   8.292   8.778 -0.0670 -0.5224 -0.2678
  719THY    HM117971   5.218   8.294   8.668  0.5796 -0.1259 -0.2837
  719THY    HM217972   5.159   8.371   8.822 -0.1250 -0.7166 -0.0002
  719THY    HM317973   5.327   8.301   8.804  0.6327 -1.4043 -2.5435
  719THY    CA617974   5.120   8.070   8.731  0.2315  0.1137 -0.4880
  719THY    HA617975   5.136   8.084   8.624  1.6847 -2.0160 -0.6136
  720THY      O17976   3.149   9.858   7.579 -0.5568  0.0175 -0.5726
  720THY     HO17977   3.115   9.839   7.668  1.2068  1.5415  0.4970
  720THY    CA117978   3.066   9.954   7.542 -0.3618  0.0040 -0.8448
  720THY    CA217979   3.081  10.027   7.422 -0.2829  0.4823  0.3167
  720THY    CP117980   3.199  10.005   7.327  0.0797 -0.0997  0.0829
  720THY    HP117981   3.213   9.896   7.330  0.0537 -0.0806  1.6099
  720THY    CP217982   3.173  10.041   7.184  0.0068 -0.2594  0.5688
  720THY    HP217983   3.077   9.997   7.154 -0.1171  0.1248  0.3961
  720THY    HP317984   3.170  10.150   7.179  0.9329 -0.2591 -0.5086
  720THY    HP417985   3.263  10.008   7.130  1.0259  5.4073 -1.8203
  720THY    CP317986   3.335  10.064   7.368  0.3827  0.0302  0.1504
  720THY    HP517987   3.324  10.165   7.408 -2.1119  0.1638 -0.7002
  720THY    HP617988   3.374   9.991   7.440  0.5199 -0.8226 -0.7547
  720THY    HP717989   3.410  10.068   7.288  0.3967  1.8138  0.2007
  720THY    CA317990   2.971  10.118   7.389 -0.8693  1.0292  0.6476
  720THY    HA317991   2.966  10.153   7.286 -2.6091  0.4809  0.5107
  720THY    CA417992   2.867  10.141   7.478 -0.1069 -0.1614 -0.4923
  720THY    HA417993   2.785  10.209   7.456  0.4727  1.3481  1.6329
  720THY    CA517994   2.873  10.073   7.600  0.0621 -0.4788 -0.4148
  720THY    CM117995   2.764  10.107   7.697 -0.2345 -0.1701  0.7744
  720THY    HM117996   2.812  10.110   7.796  0.5657 -0.4191  0.4027
  720THY    HM217997   2.711  10.200   7.675  2.3856  0.9686 -1.3175
  720THY    HM317998   2.688  10.030   7.709 -0.3873 -0.2388 -0.4870
  720THY    CA617999   2.963   9.979   7.627 -0.0760  0.3911  0.0727
  720THY    HA618000   2.958   9.928   7.723 -0.4219 -0.7251 -0.5279
  721THY      O18001   2.470   4.060   2.743  0.2280  0.4022 -0.2761
  721THY     HO18002   2.479   4.095   2.834 -0.2767  1.1847 -0.5187
  721THY    CA118003   2.340   4.049   2.708 -0.8771 -0.2701 -0.1827
  721THY    CA218004   2.311   4.008   2.579 -0.7888 -0.2180  0.0171
  721THY    CP118005   2.434   3.951   2.491 -0.0092 -0.0728  0.5608
  721THY    HP118006   2.520   4.014   2.518 -0.5974  1.3693 -0.7643
  721THY    CP218007   2.471   3.799   2.512  0.5385 -0.2406  0.3822
  721THY    HP218008   2.511   3.770   2.609  2.3909  1.3903  0.1662
  721THY    HP318009   2.382   3.739   2.491  0.7816  0.1664 -2.2121
  721THY    HP418010   2.544   3.779   2.433  1.0409  1.7256  0.2930
  721THY    CP318011   2.399   3.968   2.337 -0.1725 -0.6720  0.0515
  721THY    HP518012   2.368   4.072   2.323 -1.2885 -1.1433 -1.1196
  721THY    HP618013   2.485   3.949   2.271 -0.5157 -0.9753 -0.3166
  721THY    HP718014   2.326   3.897   2.299 -0.7282  0.1758 -0.5145
  721THY    CA318015   2.178   4.013   2.535  0.0243 -0.6544 -0.3118
  721THY    HA318016   2.145   3.976   2.438 -0.6616 -2.4920  0.5715
  721THY    CA418017   2.077   4.061   2.629 -0.3656 -0.5061  0.8404
  721THY    HA418018   1.977   4.045   2.590 -0.7163 -0.1536  1.5796
  721THY    CA518019   2.110   4.096   2.755  0.4284 -0.0102 -0.6910
  721THY    CM118020   2.009   4.118   2.861  0.1443  0.2554  0.6244
  721THY    HM118021   1.959   4.216   2.860 -1.0975 -0.3092 -2.4470
  721THY    HM218022   1.936   4.036   2.851 -0.9797  1.4605 -1.9831
  721THY    HM318023   2.045   4.111   2.964 -0.1777 -0.0726  0.7198
  721THY    CA618024   2.243   4.090   2.794 -0.4705 -0.4894  0.4491
  721THY    HA618025   2.274   4.112   2.896  0.8957  0.5874 -0.1712
  722THY      O18026   4.669   8.704   2.108 -0.5203  0.1659  0.5151
  722THY     HO18027   4.617   8.624   2.089  1.6614 -0.8763 -1.6038
  722THY    CA118028   4.622   8.791   2.014  0.2737  0.4354 -0.1483
  722THY    CA218029   4.673   8.922   1.993 -1.1644  0.7708  0.1022
  722THY    CP118030   4.796   8.953   2.073  0.2002 -0.0047  0.3011
  722THY    HP118031   4.865   8.868   2.063  1.9996  1.3037  1.1238
  722THY    CP218032   4.883   9.068   2.028  0.7602 -0.0570  0.1094
  722THY    HP218033   4.836   9.166   2.036 -2.1472 -1.1931 -1.5877
  722THY    HP318034   4.978   9.063   2.083  0.8934 -1.5133 -0.2039
  722THY    HP418035   4.899   9.053   1.921 -1.8713 -0.9718 -0.2359
  722THY    CP318036   4.766   8.983   2.222  0.2287  0.3878  0.2169
  722THY    HP518037   4.697   9.068   2.227  0.8068  0.8131  1.2039
  722THY    HP618038   4.733   8.891   2.270 -0.4865  1.4174  1.7831
  722THY    HP718039   4.856   8.998   2.283  0.3275  1.1869 -0.1124
  722THY    CA318040   4.609   9.003   1.899 -1.3398  0.6835 -0.4293
  722THY    HA318041   4.658   9.093   1.861  1.9427 -0.6355  0.3749
  722THY    CA418042   4.505   8.949   1.821 -0.4057 -0.2517 -0.6073
  722THY    HA418043   4.453   9.008   1.746  1.2879 -1.0075 -2.4775
  722THY    CA518044   4.459   8.820   1.843 -0.2782 -0.4208 -0.2360
  722THY    CM118045   4.346   8.771   1.754  0.0894 -0.1201  0.1395
  722THY    HM118046   4.376   8.773   1.649  0.4276  1.4911  0.2446
  722THY    HM218047   4.313   8.672   1.790  2.4393 -0.4458  1.6119
  722THY    HM318048   4.265   8.844   1.760 -0.2049 -0.4826  0.7261
  722THY    CA618049   4.514   8.740   1.942 -0.3259 -0.0665  0.7917
  722THY    HA618050   4.478   8.639   1.960 -1.9267  0.3076 -0.0704
  723THY      O18051   5.902   2.136   4.942 -0.6796  0.2666  0.2307
  723THY     HO18052   5.853   2.093   5.014  0.1599  1.9367  1.8847
  723THY    CA118053   5.903   2.274   4.954 -0.0419 -0.3820 -0.9441
  723THY    CA218054   5.962   2.359   4.862 -0.0732  0.0351 -0.0871
  723THY    CP118055   6.040   2.305   4.742 -0.2756  0.6730  0.1343
  723THY    HP118056   6.049   2.196   4.748 -0.7310  0.5914 -0.5080
  723THY    CP218057   5.957   2.315   4.617 -1.0387 -0.7382  0.0316
  723THY    HP218058   5.862   2.262   4.627  0.4455 -3.7031 -0.5466
  723THY    HP318059   5.941   2.423   4.609 -1.6796 -0.8847 -0.7383
  723THY    HP418060   6.009   2.295   4.523 -0.7202  1.3409 -0.2877
  723THY    CP318061   6.177   2.360   4.725 -0.5358 -0.2702 -0.5594
  723THY    HP518062   6.240   2.309   4.799 -0.0366  0.5075 -0.4301
  723THY    HP618063   6.219   2.336   4.627  0.9096  2.4695 -0.7054
  723THY    HP718064   6.178   2.468   4.745  2.8807 -0.2006 -0.5673
  723THY    CA318065   5.958   2.496   4.886  0.0936  0.2413 -1.0885
  723THY    HA318066   6.003   2.564   4.815  0.1006  1.4159  0.0056
  723THY    CA418067   5.901   2.545   5.011 -0.1312  0.3572  0.2979
  723THY    HA418068   5.896   2.651   5.034  2.3652  0.8319 -1.0142
  723THY    CA518069   5.846   2.458   5.099  0.9063  0.9204  0.4014
  723THY    CM118070   5.784   2.511   5.227  0.2144 -0.5281 -0.6363
  723THY    HM118071   5.683   2.471   5.241  0.7406 -2.2910 -1.5516
  723THY    HM218072   5.846   2.483   5.313 -0.5468 -0.1767  0.0439
  723THY    HM318073   5.774   2.620   5.228 -1.9351 -0.6840  0.6634
  723THY    CA618074   5.839   2.325   5.071  0.0209  0.0613 -0.1259
  723THY    HA618075   5.789   2.261   5.143  1.1736 -2.2838 -1.2977
  724THY      O18076   9.005   8.867   6.346  0.2721  0.3247  0.1569
  724THY     HO18077   9.042   8.950   6.382 -2.2857  2.8167 -2.3959
  724THY    CA118078   8.932   8.926   6.247  0.2823  0.0158  0.0509
  724THY    CA218079   8.888   8.857   6.130 -0.2960 -0.2348 -0.0516
  724THY    CP118080   8.905   8.710   6.113 -0.4056  0.0037 -0.1204
  724THY    HP118081   8.966   8.671   6.195 -0.8942  1.4531  0.9763
  724THY    CP218082   8.773   8.640   6.115 -0.2428  0.3529  0.2870
  724THY    HP218083   8.715   8.649   6.208  0.1604  1.2603  0.4686
  724THY    HP318084   8.718   8.672   6.026  0.3535 -1.1434 -0.6465
  724THY    HP418085   8.782   8.531   6.107  0.5794  0.3726  0.8101
  724THY    CP318086   8.977   8.669   5.989 -0.3217 -0.2028  0.1117
  724THY    HP518087   9.073   8.721   5.974  0.1660 -1.4912 -1.5155
  724THY    HP618088   8.973   8.559   5.991 -1.9295 -0.2807 -2.7431
  724THY    HP718089   8.915   8.695   5.903  2.0817  1.5341 -1.2272
  724THY    CA318090   8.809   8.930   6.035 -0.1967  0.5866  0.0063
  724THY    HA318091   8.777   8.877   5.946  2.4007  0.2631 -0.8176
  724THY    CA418092   8.789   9.067   6.052  0.6185 -0.1031  0.1131
  724THY    HA418093   8.726   9.114   5.977 -0.1213 -0.7771  0.2963
  724THY    CA518094   8.842   9.130   6.155  0.0163  0.0749  0.3810
  724THY    CM118095   8.826   9.278   6.161  0.3140 -0.2567 -0.1375
  724THY    HM118096   8.735   9.312   6.211 -0.5869 -1.2874 -1.0174
  724THY    HM218097   8.921   9.315   6.201  0.2692 -0.8402  0.5187
  724THY    HM318098   8.814   9.323   6.062 -0.6054  0.6018  0.3499
  724THY    CA618099   8.913   9.062   6.252 -0.2475  0.5928 -0.1387
  724THY    HA618100   8.961   9.113   6.336 -0.4940 -1.4256  1.3111
  725THY      O18101   0.780   2.761   1.611 -0.1719 -0.0268  0.2121
  725THY     HO18102   0.710   2.775   1.545  1.5938  0.6043 -1.6174
  725THY    CA118103   0.766   2.878   1.679  0.6657  0.1685  0.0016
  725THY    CA218104   0.831   2.893   1.801  0.0405  0.4056  0.7018
  725THY    CP118105   0.918   2.778   1.853  0.3353  0.2326  0.3328
  725THY    HP118106   0.923   2.697   1.779 -0.9343  1.0347 -0.6738
  725THY    CP218107   1.067   2.818   1.881  0.0801 -0.2418  0.2115
  725THY    HP218108   1.078   2.917   1.926  2.9445 -1.4071  2.4468
  725THY    HP318109   1.112   2.747   1.952 -0.2829 -1.0805 -0.3813
  725THY    HP418110   1.126   2.820   1.788 -1.5380 -1.0880 -0.8755
  725THY    CP318111   0.870   2.724   1.988 -0.0341 -0.4414  0.2847
  725THY    HP518112   0.884   2.812   2.051 -2.7294 -0.3781  0.8831
  725THY    HP618113   0.763   2.702   1.986  0.1064 -1.0890 -0.9917
  725THY    HP718114   0.938   2.644   2.019  1.5993  0.5881 -0.4712
  725THY    CA318115   0.808   3.012   1.872  0.1472 -0.3710  0.6823
  725THY    HA318116   0.847   3.025   1.973  4.7800 -1.6021 -0.6927
  725THY    CA418117   0.721   3.101   1.818 -0.3587  0.4111 -0.4003
  725THY    HA418118   0.712   3.190   1.881 -0.2812 -1.3082  2.1844
  725THY    CA518119   0.652   3.080   1.702  0.1976 -0.1600 -0.5114
  725THY    CM118120   0.554   3.176   1.644 -0.6865 -0.0517  0.2852
  725THY    HM118121   0.510   3.231   1.728 -1.4463  0.3529 -0.3562
  725THY    HM218122   0.589   3.248   1.570  1.4250 -1.7804 -0.5073
  725THY    HM318123   0.471   3.130   1.589 -1.4613  3.4307 -1.7643
  725THY    CA618124   0.679   2.970   1.626  0.5050 -0.0424 -0.1048
  725THY    HA618125   0.625   2.957   1.532 -3.0871 -0.7991  1.8835
  726THY      O18126   5.566   9.756   8.456  0.1075 -0.6228  0.6757
  726THY     HO18127   5.484   9.781   8.411  0.6360 -0.2039 -0.0703
  726THY    CA118128   5.615   9.869   8.520  0.1697  0.4744  0.4116
  726THY    CA218129   5.730   9.868   8.597  0.1662  0.5893 -0.1913
  726THY    CP118130   5.814   9.740   8.609  0.4312  0.8044 -0.1453
  726THY    HP118131   5.766   9.666   8.544 -0.7649  0.2524  1.3162
  726THY    CP218132   5.954   9.761   8.550  0.1549  0.6801 -0.2385
  726THY    HP218133   5.945   9.822   8.459 -1.0604  0.4079 -0.3304
  726THY    HP318134   6.029   9.804   8.617  1.3554 -0.9893 -0.4314
  726THY    HP418135   5.992   9.662   8.521  1.1548  1.2534 -0.9125
  726THY    CP318136   5.817   9.676   8.748 -0.0334  0.2262  0.1796
  726THY    HP518137   5.880   9.731   8.819  0.0813  0.8661 -0.4057
  726THY    HP618138   5.712   9.669   8.777 -0.3253  1.5854 -0.4521
  726THY    HP718139   5.855   9.574   8.736 -0.8315 -0.1962  1.1754
  726THY    CA318140   5.757   9.983   8.669  0.6003  0.2060  0.0322
  726THY    HA318141   5.842   9.978   8.737  1.7279  2.4153 -1.1245
  726THY    CA418142   5.669  10.095   8.660 -0.1494  0.1545  0.3614
  726THY    HA418143   5.693  10.184   8.717  2.3830  2.3045 -3.5971
  726THY    CA518144   5.548  10.088   8.597 -0.2345  0.4365  0.1940
  726THY    CM118145   5.451  10.196   8.605  0.2409  0.2441 -0.0425
  726THY    HM118146   5.491  10.285   8.554  1.9459 -0.1881  0.4690
  726THY    HM218147   5.361  10.169   8.549 -1.3942  0.8430  2.1736
  726THY    HM318148   5.417  10.229   8.703  0.3335  2.5959 -0.7249
  726THY    CA618149   5.516   9.969   8.528  0.3216  0.2385 -0.0654
  726THY    HA618150   5.417   9.959   8.485  0.8005  3.0299 -2.1149
  727THY      O18151   8.032   6.911   1.643 -0.9887 -0.0656 -0.1007
  727THY     HO18152   8.020   6.978   1.713  1.6188 -1.3333  1.7137
  727THY    CA118153   7.937   6.823   1.672 -0.2998  0.2897 -1.1058
  727THY    CA218154   7.900   6.716   1.584  0.4905 -0.7596  0.1805
  727THY    CP118155   7.954   6.697   1.436 -0.3005 -0.2215  0.5825
  727THY    HP118156   7.985   6.792   1.389  2.5503 -2.4276 -2.4594
  727THY    CP218157   8.075   6.601   1.446  0.6101  0.4136  0.4978
  727THY    HP218158   8.111   6.574   1.347  1.3595 -0.0900  0.8938
  727THY    HP318159   8.161   6.639   1.503  0.2981  0.5694  0.8777
  727THY    HP418160   8.049   6.505   1.493  2.8488 -0.7111 -0.4258
  727THY    CP318161   7.856   6.636   1.335 -0.0200 -0.3917 -0.1605
  727THY    HP518162   7.914   6.640   1.242  3.9335 -1.0314  2.0540
  727THY    HP618163   7.854   6.528   1.353  2.1676 -0.0735  2.6623
  727THY    HP718164   7.758   6.685   1.332  0.3676  0.8247  3.2391
  727THY    CA318165   7.803   6.625   1.629 -0.1978  0.4816  0.0345
  727THY    HA318166   7.766   6.539   1.574 -0.3972  0.3455  0.3824
  727THY    CA418167   7.753   6.637   1.763 -0.6901 -0.3603 -0.5067
  727THY    HA418168   7.685   6.566   1.809  0.4233 -1.3205 -0.3035
  727THY    CA518169   7.797   6.739   1.846 -0.6325  0.4944 -0.7990
  727THY    CM118170   7.742   6.760   1.980 -0.3727  0.3003  0.2822
  727THY    HM118171   7.633   6.758   1.985 -0.4224  1.6583  0.2895
  727THY    HM218172   7.771   6.677   2.046  0.8945  0.4721 -0.0281
  727THY    HM318173   7.763   6.857   2.028 -2.2005  0.9220 -0.0867
  727THY    CA618174   7.895   6.822   1.805 -0.6814  0.8262 -0.4978
  727THY    HA618175   7.929   6.885   1.887 -3.0457 -1.7506  2.7185
  728THY      O18176   3.826   8.123   5.706 -0.0955 -0.7259  0.0742
  728THY     HO18177   3.782   8.109   5.792 -2.1074  0.5464 -0.6613
  728THY    CA118178   3.953   8.169   5.734 -0.2401  0.0305  0.1748
  728THY    CA218179   4.039   8.192   5.622 -0.1451  0.0011  0.2767
  728THY    CP118180   4.005   8.150   5.476  0.4693 -0.7185  0.2293
  728THY    HP118181   3.897   8.168   5.476  0.6440  0.9091  2.8399
  728THY    CP218182   4.071   8.241   5.366  0.3559  0.0087  0.4674
  728THY    HP218183   4.172   8.214   5.334  0.4066  2.1182 -1.3784
  728THY    HP318184   4.007   8.242   5.277 -0.5312 -3.2135  0.9371
  728THY    HP418185   4.075   8.347   5.396 -0.6989  0.3516 -0.5210
  728THY    CP318186   4.044   8.004   5.447  0.3175  0.9261  0.0244
  728THY    HP518187   4.042   7.936   5.533  1.7972 -1.1416 -1.4912
  728THY    HP618188   3.978   7.972   5.366  0.3683 -1.3305  0.8142
  728THY    HP718189   4.146   8.009   5.407  0.6347  0.1048  0.6937
  728THY    CA318190   4.158   8.252   5.650 -0.5232  0.1941 -0.5066
  728THY    HA318191   4.226   8.271   5.567  0.4684  0.8359  0.4320
  728THY    CA418192   4.191   8.283   5.784  0.3323  0.3447 -0.1547
  728THY    HA418193   4.286   8.333   5.799  0.9680 -0.8289 -0.0839
  728THY    CA518194   4.110   8.254   5.892 -0.1556  0.5120 -0.3203
  728THY    CM118195   4.145   8.305   6.031 -0.0256 -0.2293 -0.1360
  728THY    HM118196   4.132   8.412   6.052  1.8492 -0.0179  0.1853
  728THY    HM218197   4.094   8.247   6.109  2.5622 -2.2843  0.1953
  728THY    HM318198   4.252   8.294   6.056  0.6202  1.1136 -2.0429
  728THY    CA618199   3.990   8.188   5.866  0.0873 -0.1847  0.1724
  728THY    HA618200   3.940   8.151   5.954 -0.1928 -0.8588 -0.2641
  729THY      O18201   8.369   0.803   3.770  0.0968  0.0259  0.5057
  729THY     HO18202   8.277   0.782   3.795 -1.1341 -0.2189 -3.5567
  729THY    CA118203   8.454   0.708   3.819 -0.4705  0.2309  0.0718
  729THY    CA218204   8.587   0.743   3.830  1.1861  0.3595  0.5885
  729THY    CP118205   8.636   0.879   3.784 -0.0595 -0.1006 -0.4532
  729THY    HP118206   8.560   0.951   3.753  1.3073  0.6071 -2.3371
  729THY    CP218207   8.696   0.945   3.912 -0.7642 -0.2084 -0.5723
  729THY    HP218208   8.704   1.051   3.884 -1.4213 -0.4594 -1.7767
  729THY    HP318209   8.645   0.931   4.008  2.6411 -0.4678  1.3620
  729THY    HP418210   8.798   0.913   3.936 -0.8524  1.1781  1.9964
  729THY    CP318211   8.748   0.890   3.681 -0.0400  0.0836  0.1309
  729THY    HP518212   8.829   0.819   3.698 -0.5660 -0.8551 -1.1417
  729THY    HP618213   8.698   0.886   3.583 -0.9315 -0.6664  0.6035
  729THY    HP718214   8.793   0.990   3.681  1.4953 -0.5326  2.4276
  729THY    CA318215   8.679   0.652   3.879 -0.6521  0.3682  0.2531
  729THY    HA318216   8.785   0.672   3.867 -0.4305 -2.0149 -3.5423
  729THY    CA418217   8.634   0.531   3.930  0.7168 -0.0755  0.0976
  729THY    HA418218   8.706   0.458   3.968  2.5935  1.9530  0.6537
  729THY    CA518219   8.500   0.491   3.919  0.0844  0.0519 -0.1292
  729THY    CM118220   8.456   0.356   3.968  0.0562  0.0933 -0.1941
  729THY    HM118221   8.533   0.279   3.957 -1.0117 -0.8958 -1.1573
  729THY    HM218222   8.446   0.364   4.077  0.0150  1.1807 -0.2651
  729THY    HM318223   8.362   0.317   3.927 -0.6994  1.5936  0.0459
  729THY    CA618224   8.410   0.586   3.867  0.5577 -0.2056  0.4741
  729THY    HA618225   8.303   0.568   3.872  0.4166  0.6730  0.8049
  730THY      O18226   0.413   3.579   5.078  0.4516  0.3204 -0.3066
  730THY     HO18227   0.412   3.500   5.021 -2.1553  0.8957 -1.2230
  730THY    CA118228   0.527   3.642   5.055 -0.3577 -0.0745 -0.0065
  730THY    CA218229   0.568   3.748   5.142 -0.4683  0.5504  0.9476
  730THY    CP118230   0.467   3.803   5.236 -0.1126 -1.0726 -0.4573
  730THY    HP118231   0.424   3.722   5.296 -1.4519  0.5029  0.8130
  730THY    CP218232   0.515   3.911   5.329 -0.7333 -0.3240 -0.6440
  730THY    HP218233   0.598   3.868   5.388  0.3450  0.5114 -1.5055
  730THY    HP318234   0.559   3.986   5.263  0.2802  0.5959  0.9957
  730THY    HP418235   0.439   3.942   5.402  0.1044  0.5148 -0.0935
  730THY    CP318236   0.351   3.884   5.153  0.0831 -0.1395  0.4256
  730THY    HP518237   0.287   3.811   5.103  0.0173 -1.7250  2.6864
  730THY    HP618238   0.284   3.923   5.230 -0.4141 -0.6172  0.2399
  730THY    HP718239   0.393   3.961   5.087 -1.2774  0.5348  0.3209
  730THY    CA318240   0.704   3.790   5.134  0.0379 -0.1960 -0.1878
  730THY    HA318241   0.737   3.864   5.206 -0.4596 -0.0097 -0.1476
  730THY    CA418242   0.792   3.747   5.032 -0.4228  0.6318  0.1352
  730THY    HA418243   0.894   3.781   5.044 -0.4479  0.7931 -0.1245
  730THY    CA518244   0.739   3.655   4.938 -0.6697  0.3841  0.0390
  730THY    CM118245   0.829   3.595   4.831 -0.0777  0.6957 -0.2237
  730THY    HM118246   0.915   3.662   4.821  1.0749 -0.6021  0.6589
  730THY    HM218247   0.875   3.499   4.857  1.3879  1.2146 -0.7916
  730THY    HM318248   0.765   3.567   4.747  0.5180  0.8614 -0.7431
  730THY    CA618249   0.609   3.610   4.949 -0.2647 -0.0661 -0.3683
  730THY    HA618250   0.571   3.552   4.865 -3.9229 -0.3860  1.3326
  731THY      O18251   0.004   3.821   2.591 -0.0569  0.1730 -0.0750
  731THY     HO18252  -0.021   3.915   2.599 -0.5288  0.3509 -2.7315
  731THY    CA118253  -0.058   3.781   2.484  0.4721 -0.0878  0.3904
  731THY    CA218254  -0.015   3.681   2.396 -0.6856 -0.8087 -0.4091
  731THY    CP118255   0.120   3.627   2.412 -0.0312  0.2179 -0.1472
  731THY    HP118256   0.184   3.698   2.466 -0.2865  0.5703 -0.3040
  731THY    CP218257   0.122   3.505   2.508  0.1401  0.6270 -0.0772
  731THY    HP218258   0.100   3.408   2.460  2.2621 -0.5893  1.2182
  731THY    HP318259   0.226   3.499   2.542  1.0779 -0.8376 -2.8216
  731THY    HP418260   0.058   3.510   2.596 -0.5053  0.7362 -0.5440
  731THY    CP318261   0.206   3.601   2.293  0.0562 -0.5506  0.0234
  731THY    HP518262   0.208   3.689   2.228 -0.9425 -0.3749  0.2213
  731THY    HP618263   0.311   3.584   2.320  0.7671  0.7915 -1.7313
  731THY    HP718264   0.176   3.517   2.229 -0.8062  2.0027 -3.2206
  731THY    CA318265  -0.086   3.643   2.281 -0.4339  0.5473  0.0636
  731THY    HA318266  -0.057   3.564   2.213 -0.7778 -1.6201  2.2799
  731THY    CA418267  -0.202   3.715   2.255 -0.1085 -0.1817 -0.2651
  731THY    HA418268  -0.271   3.686   2.176  1.1495 -0.8580 -1.1558
  731THY    CA518269  -0.243   3.820   2.343  0.2637 -0.7616  0.2175
  731THY    CM118270  -0.379   3.884   2.320 -0.4211 -0.2890  0.4496
  731THY    HM118271  -0.394   3.984   2.362 -2.4948  0.1926 -1.2815
  731THY    HM218272  -0.418   3.877   2.218 -0.2082  0.0855  0.3403
  731THY    HM318273  -0.450   3.814   2.366 -1.8699 -0.0998 -1.3882
  731THY    CA618274  -0.178   3.849   2.455  0.3769  0.4158  0.4568
  731THY    HA618275  -0.218   3.925   2.520  1.5504  0.5684  1.0302
  732THY      O18276   5.376   0.195   0.876 -0.0209  0.2187 -0.1354
  732THY     HO18277   5.461   0.231   0.907 -0.1575 -0.7558  1.4969
  732THY    CA118278   5.360   0.229   0.747  0.5816 -0.3368 -0.3224
  732THY    CA218279   5.245   0.193   0.678 -0.4245  0.7798  0.8181
  732THY    CP118280   5.135   0.104   0.747 -0.7538  0.1877 -0.2683
  732THY    HP118281   5.159   0.098   0.854  0.0687  1.6272 -0.3431
  732THY    CP218282   4.994   0.154   0.708  0.0025  0.0207  0.1250
  732THY    HP218283   4.927   0.118   0.787 -1.4139  1.2939 -0.4632
  732THY    HP318284   4.999   0.263   0.700  0.2187  0.0374  0.4352
  732THY    HP418285   4.957   0.112   0.614 -1.4690 -0.8128  1.0398
  732THY    CP318286   5.144  -0.050   0.706 -0.1712 -0.6919 -0.0506
  732THY    HP518287   5.127  -0.063   0.599 -0.7389 -1.6098  0.1405
  732THY    HP618288   5.239  -0.099   0.726 -0.7596 -1.5785  0.6554
  732THY    HP718289   5.065  -0.107   0.757 -0.4761 -1.0101 -0.8717
  732THY    CA318290   5.233   0.221   0.539 -0.1827  0.7689 -0.5549
  732THY    HA318291   5.142   0.190   0.488  1.0681 -2.4070 -1.1056
  732THY    CA418292   5.339   0.292   0.477 -0.1333 -0.3341  0.5474
  732THY    HA418293   5.321   0.313   0.372 -0.6655 -1.3240  0.4248
  732THY    CA518294   5.455   0.328   0.547  0.1592 -0.5146  0.7676
  732THY    CM118295   5.574   0.386   0.469  0.7374  0.1296 -0.1474
  732THY    HM118296   5.570   0.495   0.460  0.3343  0.0713 -0.7225
  732THY    HM218297   5.663   0.370   0.531 -0.4139  0.7634  1.7703
  732THY    HM318298   5.583   0.342   0.369 -0.6013 -1.6888  0.4611
  732THY    CA618299   5.468   0.303   0.683 -0.3176 -0.6647  0.0213
  732THY    HA618300   5.559   0.333   0.734  0.0327 -1.1743 -0.2915
  733THY      O18301   0.582   8.400   1.716  0.0470 -0.0641  0.2150
  733THY     HO18302   0.623   8.414   1.629 -0.2802 -1.3893 -0.1921
  733THY    CA118303   0.488   8.310   1.698  0.5970 -0.6608 -0.6778
  733THY    CA218304   0.393   8.275   1.796 -0.3301  0.8861  0.2210
  733THY    CP118305   0.366   8.351   1.932  0.2834  0.0767  0.4324
  733THY    HP118306   0.442   8.429   1.945  0.5430 -0.3276  1.3907
  733THY    CP218307   0.224   8.413   1.932  0.1318 -0.1448  0.5312
  733THY    HP218308   0.216   8.503   1.870 -0.5947 -1.4303 -1.3392
  733THY    HP318309   0.161   8.331   1.897  0.7999 -0.2867 -0.3536
  733THY    HP418310   0.200   8.425   2.039  0.5272  1.0460  0.4987
  733THY    CP318311   0.372   8.246   2.045 -0.0491 -0.6477 -0.0833
  733THY    HP518312   0.290   8.173   2.034 -0.4556 -0.1471 -0.4181
  733THY    HP618313   0.467   8.192   2.055  0.0448 -0.1378  2.4074
  733THY    HP718314   0.351   8.285   2.145 -0.3111 -0.9786 -0.0035
  733THY    CA318315   0.304   8.166   1.763  0.4794 -0.3589 -0.1619
  733THY    HA318316   0.231   8.134   1.836  0.7198  0.9844  0.6976
  733THY    CA418317   0.305   8.110   1.639  0.7337 -0.5247 -0.2118
  733THY    HA418318   0.236   8.029   1.615  0.9085 -1.0760  1.0912
  733THY    CA518319   0.384   8.163   1.538 -0.2028  0.0085  0.2020
  733THY    CM118320   0.400   8.102   1.403  0.1452 -0.3603 -0.3403
  733THY    HM118321   0.351   8.004   1.394  0.3709 -0.6097  1.0240
  733THY    HM218322   0.370   8.165   1.318  0.0114 -1.0867 -0.8462
  733THY    HM318323   0.507   8.086   1.390  0.5132  2.1763 -1.0271
  733THY    CA618324   0.481   8.258   1.571 -0.6570 -0.5177 -0.1262
  733THY    HA618325   0.562   8.288   1.504 -0.9995 -0.3015 -0.4475
  734THY      O18326   3.284   1.126   4.612 -0.1332  0.4555 -0.1314
  734THY     HO18327   3.347   1.053   4.603  0.2699  0.7895 -0.0467
  734THY    CA118328   3.321   1.209   4.710 -0.3337  0.5762 -0.2295
  734THY    CA218329   3.240   1.318   4.762 -0.0265 -0.2435  0.2307
  734THY    CP118330   3.107   1.352   4.693 -0.3807 -0.5899 -0.9828
  734THY    HP118331   3.084   1.277   4.617  0.1944 -1.8652  0.0597
  734THY    CP218332   2.991   1.362   4.786  0.2580  0.3586 -0.6513
  734THY    HP218333   2.903   1.374   4.721  0.5611  1.3462 -0.8993
  734THY    HP318334   2.977   1.269   4.842 -1.3240  0.9925  0.0875
  734THY    HP418335   2.994   1.448   4.854 -1.3266 -0.0652  0.0126
  734THY    CP318336   3.105   1.485   4.618 -0.2137  0.4284 -0.0135
  734THY    HP518337   3.105   1.569   4.688  1.8998  0.2716  0.2640
  734THY    HP618338   3.197   1.519   4.569 -1.6660  1.7989 -1.8977
  734THY    HP718339   3.024   1.483   4.544 -0.2268 -0.6072  0.0098
  734THY    CA318340   3.293   1.399   4.864 -0.2729  0.5871  0.6840
  734THY    HA318341   3.237   1.477   4.915 -0.2281 -0.2199  2.0073
  734THY    CA418342   3.413   1.363   4.923  0.6287  0.4166  0.5770
  734THY    HA418343   3.455   1.426   5.001  0.0899  0.8545  0.5134
  734THY    CA518344   3.487   1.255   4.876  0.2179 -0.7719  0.0941
  734THY    CM118345   3.608   1.216   4.955  0.8337 -0.2864 -0.3533
  734THY    HM118346   3.615   1.262   5.054  0.6976 -1.2863  0.1283
  734THY    HM218347   3.599   1.107   4.960 -0.2656 -0.2077 -0.3549
  734THY    HM318348   3.704   1.243   4.908  2.1731 -0.6973  2.0180
  734THY    CA618349   3.437   1.168   4.775 -0.0586 -0.7303 -0.0002
  734THY    HA618350   3.490   1.076   4.751  1.1065 -0.1573  0.2852
  735THY      O18351   0.527   2.123   4.271 -0.0539 -0.4440 -0.2965
  735THY     HO18352   0.504   2.064   4.198 -1.5390 -2.7327  1.8513
  735THY    CA118353   0.403   2.126   4.338 -0.0529  0.2388  0.2043
  735THY    CA218354   0.390   2.122   4.477 -0.4649 -0.5130  0.3329
  735THY    CP118355   0.505   2.132   4.575 -0.2004 -0.7780  0.3386
  735THY    HP118356   0.596   2.111   4.516 -0.9097 -0.2510 -0.9836
  735THY    CP218357   0.519   2.272   4.618 -0.1159 -0.8575 -0.7713
  735THY    HP218358   0.595   2.289   4.695 -0.3312  0.2713 -0.8020
  735THY    HP318359   0.539   2.343   4.537 -1.9384  0.5671 -0.0330
  735THY    HP418360   0.433   2.316   4.670 -0.3225 -1.4334 -0.6167
  735THY    CP318361   0.491   2.030   4.693  0.2307 -0.3155  0.9276
  735THY    HP518362   0.409   2.051   4.763 -0.4187  0.6582 -0.0892
  735THY    HP618363   0.496   1.927   4.658  2.2481  0.6239 -1.9111
  735THY    HP718364   0.580   2.043   4.755 -0.0538  3.0825  0.8483
  735THY    CA318365   0.262   2.083   4.522  0.1233 -0.1134 -0.4647
  735THY    HA318366   0.244   2.078   4.629  0.4515  3.2205 -0.1311
  735THY    CA418367   0.151   2.067   4.435 -0.2802 -0.2006  0.5084
  735THY    HA418368   0.055   2.033   4.474 -1.2073  0.2046 -1.3327
  735THY    CA518369   0.172   2.091   4.301  0.8290  0.2523 -0.3365
  735THY    CM118370   0.062   2.087   4.202 -0.0902 -0.3384  0.3255
  735THY    HM118371  -0.033   2.064   4.250  0.8135 -3.8005  0.7029
  735THY    HM218372   0.069   2.180   4.144 -1.3405  0.3281  1.1983
  735THY    HM318373   0.070   2.001   4.135  0.5726  0.7533 -1.0760
  735THY    CA618374   0.300   2.108   4.252  0.1419 -0.0834  0.7164
  735THY    HA618375   0.318   2.124   4.146 -3.2599 -0.0230  0.0349
  736THY      O18376   4.486   1.241   9.586 -0.5501 -0.8110  0.5983
  736THY     HO18377   4.525   1.266   9.671 -0.1716 -0.1591  0.2390
  736THY    CA118378   4.405   1.137   9.609  0.1449 -1.1441  0.2309
  736THY    CA218379   4.315   1.086   9.512 -0.0948  0.1177  0.9878
  736THY    CP118380   4.330   1.137   9.368 -0.7222 -0.1625  0.6959
  736THY    HP118381   4.410   1.211   9.355 -0.7702  0.0416  1.5501
  736THY    CP218382   4.365   1.015   9.275  0.0121  0.3929  0.1593
  736THY    HP218383   4.358   1.032   9.167 -1.2118 -2.9587 -0.4053
  736THY    HP318384   4.456   0.964   9.307  1.2023  1.9297 -0.6348
  736THY    HP418385   4.280   0.945   9.276  1.4531 -1.4352  0.2616
  736THY    CP318386   4.209   1.201   9.316  0.3552 -0.2252 -0.1732
  736THY    HP518387   4.168   1.277   9.384  0.9788  0.6408 -0.7538
  736THY    HP618388   4.233   1.251   9.221  2.1349  0.2745  0.5086
  736THY    HP718389   4.127   1.130   9.297  0.5805 -0.4103 -0.4618
  736THY    CA318390   4.213   0.993   9.551 -0.3849 -0.0797 -0.0056
  736THY    HA318391   4.139   0.953   9.482  0.7045 -1.3190 -0.4866
  736THY    CA418392   4.210   0.959   9.688  0.1351  0.8519  0.7101
  736THY    HA418393   4.126   0.898   9.720  0.5107 -0.6942 -1.1200
  736THY    CA518394   4.299   1.013   9.783 -0.4889 -0.3646  0.1169
  736THY    CM118395   4.292   0.995   9.936 -0.7152 -0.4377 -0.0243
  736THY    HM118396   4.300   1.089   9.993  2.5296  0.3967 -1.6271
  736THY    HM218397   4.196   0.947   9.959 -1.0115 -0.2117 -0.7540
  736THY    HM318398   4.373   0.928   9.966 -1.3652  0.1130  3.3692
  736THY    CA618399   4.403   1.100   9.738  0.8676  0.0742  0.7467
  736THY    HA618400   4.471   1.143   9.811  1.3580 -1.3792  1.1885
  737THY      O18401   7.475   0.962   7.019 -0.1503 -0.6046 -0.0464
  737THY     HO18402   7.440   1.011   7.095  2.3867  1.2579  0.0599
  737THY    CA118403   7.412   0.844   7.013  0.2817  0.0900 -0.8104
  737THY    CA218404   7.403   0.770   6.893  0.6225  0.0324 -0.1005
  737THY    CP118405   7.487   0.814   6.772 -0.5228 -0.0048 -0.1604
  737THY    HP118406   7.539   0.908   6.794 -0.3319 -0.1290 -0.0793
  737THY    CP218407   7.601   0.710   6.750 -0.0450  0.9683  0.2044
  737THY    HP218408   7.654   0.687   6.843 -2.0922 -0.7306  1.0308
  737THY    HP318409   7.554   0.616   6.719  1.0804  0.4659 -0.0300
  737THY    HP418410   7.672   0.760   6.683 -0.1790 -1.4887 -1.9165
  737THY    CP318411   7.406   0.832   6.640 -0.4754 -0.8779 -0.6936
  737THY    HP518412   7.316   0.894   6.650  0.3990  0.0437  2.3130
  737THY    HP618413   7.466   0.864   6.554  1.4117 -0.3033  0.7884
  737THY    HP718414   7.361   0.733   6.628 -0.1877 -1.0641 -0.2544
  737THY    CA318415   7.318   0.656   6.881  0.3440  0.3802  1.0368
  737THY    HA318416   7.310   0.595   6.791 -2.9776  0.9125  0.8159
  737THY    CA418417   7.217   0.636   6.978  0.2285 -0.3812 -0.1453
  737THY    HA418418   7.140   0.560   6.970 -1.4099  1.2586 -0.3503
  737THY    CA518419   7.225   0.709   7.093 -0.4770 -0.2976 -0.2129
  737THY    CM118420   7.127   0.687   7.206 -0.0963 -0.6247 -0.3578
  737THY    HM118421   7.148   0.599   7.268  1.7703  0.3355  0.4719
  737THY    HM218422   7.137   0.768   7.279 -1.7734 -2.4314  2.0265
  737THY    HM318423   7.026   0.671   7.166 -0.9801 -0.1429  1.5705
  737THY    CA618424   7.326   0.813   7.123  0.5354  0.2388  0.3568
  737THY    HA618425   7.321   0.859   7.222 -1.2044 -2.0568  1.4469
  738THY      O18426   6.877   4.374   0.542 -0.0769 -0.0277  0.3220
  738THY     HO18427   6.897   4.462   0.577 -3.0669  0.6681  0.5378
  738THY    CA118428   6.769   4.329   0.614  0.2198 -0.5021  1.0373
  738THY    CA218429   6.729   4.195   0.607  0.2136 -0.2296  0.7607
  738THY    CP118430   6.808   4.098   0.511  0.2531  0.1731 -0.1178
  738THY    HP118431   6.853   4.148   0.424  0.9389 -0.5725 -0.2133
  738THY    CP218432   6.928   4.037   0.587 -0.9595 -0.8413  0.0371
  738THY    HP218433   6.995   3.972   0.529  1.2620 -1.9782  3.5422
  738THY    HP318434   6.995   4.114   0.628  0.9625 -1.0470 -2.4078
  738THY    HP418435   6.890   3.967   0.662 -0.3441  0.8291  1.9854
  738THY    CP318436   6.716   3.983   0.452  0.5606 -0.5341 -0.2721
  738THY    HP518437   6.682   3.913   0.529  1.5815  1.2939  1.9783
  738THY    HP618438   6.624   4.028   0.412  1.0706  4.9433  3.5327
  738THY    HP718439   6.763   3.935   0.365  2.9655 -0.7320  1.0312
  738THY    CA318440   6.625   4.146   0.684  1.1165  0.0866 -0.1671
  738THY    HA318441   6.596   4.041   0.680  1.0404  0.1480 -2.5092
  738THY    CA418442   6.557   4.235   0.768  0.4770  0.8443  0.3319
  738THY    HA418443   6.472   4.189   0.818  1.1800 -3.1519 -1.7924
  738THY    CA518444   6.595   4.367   0.775 -0.0330  0.8883 -0.8344
  738THY    CM118445   6.527   4.465   0.863 -0.3886  0.0958  0.2240
  738THY    HM118446   6.570   4.468   0.964  1.1480  2.0060 -0.4133
  738THY    HM218447   6.555   4.561   0.818  2.9869 -0.7826  0.1977
  738THY    HM318448   6.418   4.462   0.877 -0.1678 -2.2243  2.2539
  738THY    CA618449   6.699   4.418   0.699  0.1829  1.1813  0.7045
  738THY    HA618450   6.715   4.526   0.696 -0.3727  1.2554 -0.3625
  739THY      O18451   7.563   1.061   8.023  0.1249 -0.5971  0.0693
  739THY     HO18452   7.651   1.056   7.981 -0.1005 -1.4622 -0.3073
  739THY    CA118453   7.564   0.978   8.127  0.0541 -0.7025  0.6570
  739THY    CA218454   7.452   0.949   8.208 -0.1387 -0.9550 -0.0938
  739THY    CP118455   7.316   1.014   8.172  0.2449  0.2276 -0.5558
  739THY    HP118456   7.315   1.102   8.107 -0.2951  0.0309 -0.8216
  739THY    CP218457   7.225   0.913   8.112 -0.4313  0.2640  0.9273
  739THY    HP218458   7.215   0.822   8.173  0.5509  0.0779  0.8293
  739THY    HP318459   7.130   0.958   8.084 -0.5353  0.5359  1.7144
  739THY    HP418460   7.282   0.888   8.021 -0.1877 -0.4696  1.2685
  739THY    CP318461   7.244   1.059   8.308 -0.0696 -0.2415  0.0479
  739THY    HP518462   7.293   1.138   8.365 -0.6239  0.0271  0.1597
  739THY    HP618463   7.153   1.104   8.268  0.5339  0.1050 -0.9762
  739THY    HP718464   7.218   0.979   8.378 -1.0832 -2.6796 -2.8540
  739THY    CA318465   7.471   0.869   8.321  0.0372 -0.9722 -0.9644
  739THY    HA318466   7.383   0.842   8.378  1.8322 -2.8214  1.1517
  739THY    CA418467   7.596   0.817   8.346 -0.1222 -0.4681  0.1624
  739THY    HA418468   7.612   0.752   8.431 -0.2728 -1.2925 -0.4208
  739THY    CA518469   7.706   0.839   8.257  0.3005  0.2428  0.0174
  739THY    CM118470   7.842   0.777   8.293 -0.1050  0.4063 -0.0721
  739THY    HM118471   7.878   0.714   8.211 -1.0098 -1.1629  0.6816
  739THY    HM218472   7.917   0.848   8.328  0.8976 -0.1085 -1.1086
  739THY    HM318473   7.838   0.708   8.378  0.2204 -0.8724 -1.0551
  739THY    CA618474   7.690   0.920   8.146 -0.0296  0.5063  0.1029
  739THY    HA618475   7.776   0.946   8.085  1.2007 -0.9058  1.1583
  740THY      O18476   2.191   0.928   1.407  0.0534  0.3497  0.8238
  740THY     HO18477   2.167   0.840   1.441  0.7521  0.9891  3.1594
  740THY    CA118478   2.083   1.006   1.389 -0.5067  0.4155  0.4439
  740THY    CA218479   2.097   1.143   1.412  0.2495  0.4277  0.1528
  740THY    CP118480   2.229   1.214   1.453  0.1113  0.2370  0.6183
  740THY    HP118481   2.305   1.138   1.472  0.5632  1.0236  2.1337
  740THY    CP218482   2.275   1.305   1.341  0.0536 -0.1407 -0.3308
  740THY    HP218483   2.279   1.247   1.248 -1.4048  1.0462 -1.1965
  740THY    HP318484   2.213   1.396   1.337 -0.2861 -0.3169  0.6865
  740THY    HP418485   2.377   1.343   1.352  0.8944 -2.1500 -0.7370
  740THY    CP318486   2.214   1.291   1.584 -0.3024  0.1360 -0.5388
  740THY    HP518487   2.158   1.384   1.568  1.4081  1.2664 -0.2035
  740THY    HP618488   2.173   1.225   1.662 -0.7346  0.6628 -0.3078
  740THY    HP718489   2.310   1.331   1.618  0.2433 -0.7725 -0.9854
  740THY    CA318490   1.977   1.218   1.390  0.0062  0.1689  0.8070
  740THY    HA318491   1.982   1.326   1.399  2.7759  0.1139  0.8587
  740THY    CA418492   1.860   1.154   1.348 -0.6274  0.3280  0.0343
  740THY    HA418493   1.768   1.208   1.328 -0.3997  0.9055  0.5130
  740THY    CA518494   1.861   1.016   1.335  0.3632  0.0953  0.1729
  740THY    CM118495   1.734   0.954   1.290  0.6977 -0.1834  0.0495
  740THY    HM118496   1.676   0.948   1.383  2.4734 -0.3299  1.1902
  740THY    HM218497   1.682   1.012   1.212  2.6222 -0.0944 -1.2281
  740THY    HM318498   1.760   0.852   1.260  0.5223 -0.8697  2.1366
  740THY    CA618499   1.974   0.937   1.350  0.9490 -0.7752 -0.5498
  740THY    HA618500   1.977   0.829   1.344  1.7445 -0.7159 -1.5734
  741THY      O18501   5.701   5.496   0.523  0.3830 -0.0868 -0.1449
  741THY     HO18502   5.607   5.476   0.535 -0.5459  3.1727 -0.9979
  741THY    CA118503   5.702   5.629   0.543  0.0585  0.6027 -0.1080
  741THY    CA218504   5.809   5.710   0.492  0.1962  0.3916  0.1348
  741THY    CP118505   5.943   5.645   0.455 -0.0341 -1.0651 -0.0850
  741THY    HP118506   5.946   5.553   0.515 -3.0514 -0.7228  0.7792
  741THY    CP218507   5.946   5.617   0.301 -0.2089  0.8767 -0.8029
  741THY    HP218508   5.967   5.703   0.236  1.9210  0.4483 -0.7621
  741THY    HP318509   6.010   5.528   0.289 -1.7019 -0.7805  2.4527
  741THY    HP418510   5.850   5.568   0.285  0.4971 -0.8968  0.1230
  741THY    CP318511   6.059   5.739   0.492 -0.4268 -0.0559 -0.1089
  741THY    HP518512   6.156   5.694   0.467 -0.8682 -0.8602 -0.4312
  741THY    HP618513   6.053   5.839   0.449  3.3168  0.3724  0.0722
  741THY    HP718514   6.057   5.758   0.600  1.6615 -0.6311  0.0661
  741THY    CA318515   5.782   5.848   0.485  0.3232  0.0804 -0.1620
  741THY    HA318516   5.863   5.911   0.449  0.6473 -0.2067  0.0611
  741THY    CA418517   5.664   5.904   0.538 -0.1538 -0.6826  0.1156
  741THY    HA418518   5.649   6.011   0.532 -0.0851 -0.6218  0.9788
  741THY    CA518519   5.571   5.821   0.606  0.0860 -0.6347 -0.3690
  741THY    CM118520   5.440   5.883   0.663 -0.0869 -0.2960  0.5751
  741THY    HM118521   5.436   5.993   0.662 -0.9815 -0.1786  3.8260
  741THY    HM218522   5.356   5.864   0.595 -1.5532  2.9506  1.2728
  741THY    HM318523   5.418   5.843   0.763  1.8143  0.6032  1.4009
  741THY    CA618524   5.585   5.685   0.598 -0.9230  0.3334 -0.1697
  741THY    HA618525   5.503   5.625   0.638 -0.8493  0.3498  0.0063
  742THY      O18526   6.867   5.098   5.930  0.0439  0.6261 -0.2486
  742THY     HO18527   6.798   5.166   5.928 -1.4948 -0.7679  1.7011
  742THY    CA118528   6.932   5.119   6.048  0.3708 -0.1597  0.2190
  742THY    CA218529   7.048   5.047   6.074 -0.3372 -0.3431  0.2444
  742THY    CP118530   7.091   4.935   5.978  0.9709  0.2120 -0.0860
  742THY    HP118531   7.049   4.950   5.877 -1.1651  0.1983  0.7381
  742THY    CP218532   7.243   4.916   5.975  0.3087  0.3324 -0.2077
  742THY    HP218533   7.279   4.852   5.893 -2.2805 -1.1190 -0.3464
  742THY    HP318534   7.301   5.009   5.973 -0.2889  0.8005  1.9327
  742THY    HP418535   7.272   4.864   6.067 -3.7449 -1.2818  0.3688
  742THY    CP318536   7.021   4.802   6.033 -0.5335  0.4410 -0.6791
  742THY    HP518537   6.912   4.813   6.046 -0.8214 -2.6841  0.1414
  742THY    HP618538   7.031   4.717   5.965  0.6922  2.4436 -3.1656
  742THY    HP718539   7.073   4.769   6.123  1.4186 -3.2176 -2.9457
  742THY    CA318540   7.111   5.062   6.199  0.2272  0.1874  0.6915
  742THY    HA318541   7.209   5.017   6.212  0.5362  0.3390 -0.8836
  742THY    CA418542   7.063   5.151   6.293 -0.3917 -0.4466  0.7561
  742THY    HA418543   7.121   5.169   6.383  1.6392  1.0394 -0.7568
  742THY    CA518544   6.946   5.218   6.264 -0.4040 -0.6462 -0.2339
  742THY    CM118545   6.876   5.300   6.370 -0.3701  0.2163 -0.3431
  742THY    HM118546   6.863   5.404   6.337 -1.3882 -0.0619 -0.8604
  742THY    HM218547   6.775   5.265   6.396 -0.1500  0.1885  0.4944
  742THY    HM318548   6.929   5.304   6.466 -0.9502  0.4863 -0.0290
  742THY    CA618549   6.882   5.205   6.144 -0.6664  0.8812 -1.0895
  742THY    HA618550   6.796   5.269   6.124 -1.8109 -0.8134 -1.7967
  743THY      O18551   7.613   3.647   9.699  0.3703 -0.0263  0.5432
  743THY     HO18552   7.619   3.736   9.738  0.3669  0.4690 -0.5334
  743THY    CA118553   7.667   3.572   9.791  0.4954  0.2983  0.3941
  743THY    CA218554   7.761   3.479   9.757  0.1970 -0.5224  0.3538
  743THY    CP118555   7.810   3.469   9.607  0.2589  0.0035 -0.2580
  743THY    HP118556   7.734   3.492   9.532  0.3015 -0.7229 -0.5283
  743THY    CP218557   7.922   3.563   9.572  0.1516  0.4545 -0.0559
  743THY    HP218558   7.970   3.525   9.481 -1.3827  0.2309 -0.8152
  743THY    HP318559   7.876   3.662   9.559 -1.2390 -0.0993  0.4339
  743THY    HP418560   7.996   3.567   9.652  0.9099  0.5061 -0.7447
  743THY    CP318561   7.847   3.326   9.576  0.3212 -0.3392  1.1657
  743THY    HP518562   7.944   3.290   9.613 -0.0501 -4.9924 -1.6626
  743THY    HP618563   7.766   3.260   9.608  0.1981 -0.9093 -0.2449
  743THY    HP718564   7.858   3.309   9.468 -0.6464  0.5151  0.9186
  743THY    CA318565   7.813   3.396   9.857  0.4434 -0.0736  0.2913
  743THY    HA318566   7.883   3.316   9.839  0.6243 -0.0487  0.8744
  743THY    CA418567   7.754   3.405   9.988  0.4977 -0.6816  0.6743
  743THY    HA418568   7.792   3.341  10.068  2.6290 -0.2636  0.0688
  743THY    CA518569   7.661   3.506  10.021  0.0109  0.5172  0.2482
  743THY    CM118570   7.639   3.533  10.168 -0.0822 -0.6603  0.2995
  743THY    HM118571   7.715   3.469  10.214  0.0167 -1.9824 -1.5657
  743THY    HM218572   7.661   3.639  10.182 -3.8538  0.3226 -0.3111
  743THY    HM318573   7.540   3.507  10.207  0.0534  0.3895  1.3787
  743THY    CA618574   7.615   3.591   9.923 -0.3928 -0.1818  1.0464
  743THY    HA618575   7.540   3.668   9.943  0.8000  1.4223 -0.3514
  744THY      O18576   5.803   8.546   1.030  0.0182  0.4026  0.3423
  744THY     HO18577   5.783   8.610   0.960  0.4967 -1.5233 -1.6754
  744THY    CA118578   5.887   8.606   1.119  0.2559  0.1115 -0.4024
  744THY    CA218579   5.948   8.531   1.217 -0.3542  0.5278 -0.3782
  744THY    CP118580   5.928   8.375   1.228  0.7781  0.1938 -0.5342
  744THY    HP118581   5.936   8.322   1.132  1.3771 -1.1589  0.2348
  744THY    CP218582   6.030   8.296   1.310 -0.1484  0.7645 -0.5604
  744THY    HP218583   6.137   8.310   1.289 -0.1403  1.3315 -0.1502
  744THY    HP318584   6.024   8.305   1.419  1.7523 -3.6573  0.1476
  744THY    HP418585   6.016   8.192   1.279  3.0828  0.2076 -0.5533
  744THY    CP318586   5.782   8.344   1.275  0.2958 -0.3252  0.5826
  744THY    HP518587   5.719   8.324   1.187  1.5932  0.5644 -0.5897
  744THY    HP618588   5.774   8.261   1.346 -0.6764 -1.5886 -0.9387
  744THY    HP718589   5.749   8.442   1.312 -0.5829  0.7755 -2.7660
  744THY    CA318590   6.031   8.601   1.305  0.1105 -0.1893 -0.2614
  744THY    HA318591   6.070   8.555   1.395  1.8034  0.7295 -0.4930
  744THY    CA418592   6.051   8.740   1.290  0.5094  0.5712 -0.2326
  744THY    HA418593   6.107   8.790   1.369 -1.6785 -0.2103  1.9270
  744THY    CA518594   5.980   8.811   1.194 -0.3608  0.1940 -0.9517
  744THY    CM118595   5.988   8.961   1.197 -0.4050  0.1544 -0.6169
  744THY    HM118596   6.086   9.000   1.228 -0.0720  0.7119 -2.2666
  744THY    HM218597   5.995   8.999   1.094  1.2343  0.1027 -0.5509
  744THY    HM318598   5.908   9.009   1.254 -0.5469 -0.4667 -0.2953
  744THY    CA618599   5.896   8.740   1.114 -0.3416 -0.7866 -0.3989
  744THY    HA618600   5.835   8.795   1.042 -1.0089  2.3809  2.3255
  745THY      O18601   9.323   7.430   9.839 -0.3011 -0.2494 -0.0434
  745THY     HO18602   9.291   7.382   9.917 -1.9073 -0.1218 -0.6053
  745THY    CA118603   9.270   7.554   9.841 -0.3637 -0.5202  0.5926
  745THY    CA218604   9.329   7.665   9.772  0.3700 -0.1850 -0.5790
  745THY    CP118605   9.439   7.654   9.665  0.3473 -0.3758  0.0026
  745THY    HP118606   9.474   7.552   9.688 -1.8353 -1.3675 -0.8754
  745THY    CP218607   9.376   7.665   9.526 -0.1948  0.4673 -0.1090
  745THY    HP218608   9.340   7.760   9.484  1.9931  0.6731 -1.7729
  745THY    HP318609   9.459   7.643   9.457 -1.8238 -0.5977 -1.8227
  745THY    HP418610   9.300   7.587   9.519  1.0836 -0.7339 -1.4511
  745THY    CP318611   9.559   7.750   9.689 -0.1413  0.4086 -0.1028
  745THY    HP518612   9.535   7.855   9.709  3.0858  0.6967  3.3068
  745THY    HP618613   9.605   7.719   9.784 -0.5897  0.3658  0.1039
  745THY    HP718614   9.641   7.755   9.617  0.1444  1.0749  0.2663
  745THY    CA318615   9.265   7.792   9.790  0.6393  0.0544  0.3513
  745THY    HA318616   9.295   7.871   9.721  1.3738  0.2954  0.9296
  745THY    CA418617   9.153   7.804   9.877 -0.9004  0.1275  0.2492
  745THY    HA418618   9.106   7.900   9.895  0.9080  1.1473 -0.2449
  745THY    CA518619   9.099   7.700   9.950 -0.6579  0.0491 -0.5733
  745THY    CM118620   8.985   7.718  10.044  0.0702 -0.6305  0.1112
  745THY    HM118621   8.978   7.636  10.117  1.1212 -0.6435  0.2156
  745THY    HM218622   8.981   7.815  10.097  1.3297 -0.6952  0.3483
  745THY    HM318623   8.893   7.715   9.985  0.1492 -1.9241  0.0292
  745THY    CA618624   9.155   7.569   9.926  0.8371 -0.5790 -0.4400
  745THY    HA618625   9.110   7.497   9.994 -1.1241  1.7498  0.9052
  746THY      O18626   9.933   3.779   7.306  0.2846  0.4567  0.4314
  746THY     HO18627   9.871   3.852   7.318 -0.4741 -0.4159  2.4474
  746THY    CA118628   9.920   3.738   7.179  0.9853 -0.4268 -0.2303
  746THY    CA218629   9.953   3.610   7.138 -0.4045  0.1889 -0.2786
  746THY    CP118630  10.038   3.520   7.234 -0.7557  0.6980 -0.4712
  746THY    HP118631  10.060   3.571   7.328  0.0867 -2.7075  1.3037
  746THY    CP218632   9.955   3.398   7.275 -0.2009 -0.5183 -0.1658
  746THY    HP218633  10.015   3.334   7.339 -0.2811 -0.6707 -0.2433
  746THY    HP318634   9.869   3.438   7.331 -1.0421 -0.4181 -1.4826
  746THY    HP418635   9.916   3.352   7.184 -0.3375  0.7113 -0.7594
  746THY    CP318636  10.166   3.470   7.160  0.0781 -0.3517  0.1918
  746THY    HP518637  10.243   3.424   7.223  0.8958  2.6739  1.5727
  746THY    HP618638  10.142   3.415   7.068 -0.2663  0.5075 -0.2398
  746THY    HP718639  10.231   3.551   7.126  1.0062 -2.0430 -2.4572
  746THY    CA318640   9.930   3.571   7.000  0.1537 -0.9192 -0.2531
  746THY    HA318641   9.943   3.465   6.979 -1.0585 -1.2577  0.5826
  746THY    CA418642   9.872   3.659   6.905  0.0141  0.2555 -0.1220
  746THY    HA418643   9.852   3.638   6.801  3.3607  0.3639 -0.8833
  746THY    CA518644   9.828   3.782   6.954  0.0269 -0.9523  0.3750
  746THY    CM118645   9.759   3.885   6.866 -0.1638 -0.1588 -0.0165
  746THY    HM118646   9.809   3.870   6.769 -0.5113 -0.3240 -0.1728
  746THY    HM218647   9.650   3.870   6.857 -0.4063 -0.2353  2.4498
  746THY    HM318648   9.771   3.988   6.902 -0.0369 -0.0302 -0.4229
  746THY    CA618649   9.856   3.826   7.089  0.1009  0.7163  0.1936
  746THY    HA618650   9.817   3.920   7.125 -1.9667  0.9473 -2.3079
  747THY      O18651   5.482   0.010   1.221  0.1466  0.8078  0.1505
  747THY     HO18652   5.456  -0.069   1.170 -0.5958  0.4271  1.1014
  747THY    CA118653   5.399  -0.008   1.327 -0.2852  0.0932  0.6563
  747THY    CA218654   5.353   0.099   1.405  0.4912  0.4972 -0.2490
  747THY    CP118655   5.392   0.236   1.375  0.4241 -0.2733  0.1378
  747THY    HP118656   5.496   0.248   1.342  0.8289  2.3067  2.0042
  747THY    CP218657   5.315   0.302   1.262  0.5410 -0.8685 -0.0211
  747THY    HP218658   5.212   0.278   1.293  0.9667 -1.3737  1.0389
  747THY    HP318659   5.328   0.410   1.256  2.2968 -0.9534  1.6420
  747THY    HP418660   5.332   0.259   1.162 -1.2358  0.6263 -1.0377
  747THY    CP318661   5.399   0.319   1.507 -0.3986 -0.6947  0.5814
  747THY    HP518662   5.462   0.407   1.493 -2.6769  1.4350  2.6747
  747THY    HP618663   5.298   0.349   1.537 -0.4574 -0.5508  0.2422
  747THY    HP718664   5.434   0.255   1.589 -2.3382 -0.8596  1.3298
  747THY    CA318665   5.266   0.061   1.514 -0.3802 -0.3873 -0.0918
  747THY    HA318666   5.229   0.139   1.579 -0.6609  2.0741 -2.9932
  747THY    CA418667   5.227  -0.070   1.532  0.0251 -0.8925 -0.3134
  747THY    HA418668   5.164  -0.096   1.616 -0.3081  2.2551  0.5447
  747THY    CA518669   5.270  -0.170   1.450 -0.6011 -0.3107 -0.4966
  747THY    CM118670   5.228  -0.311   1.488  0.3212 -0.3016  0.4321
  747THY    HM118671   5.132  -0.310   1.540  0.8398 -1.4960  1.4510
  747THY    HM218672   5.222  -0.388   1.410 -2.7065  0.8531 -0.5927
  747THY    HM318673   5.294  -0.357   1.562  0.5729  0.4622  0.6918
  747THY    CA618674   5.360  -0.137   1.351  0.6249 -0.4711  0.5947
  747THY    HA618675   5.400  -0.221   1.295  1.6577  0.5589 -0.2724
  748THY      O18676   4.587   3.137   0.072 -0.3730 -0.4062  0.3690
  748THY     HO18677   4.674   3.173   0.096 -1.1959  0.9310  1.4663
  748THY    CA118678   4.523   3.151   0.191 -0.6613  0.0627  0.3699
  748THY    CA218679   4.385   3.136   0.195  0.0672  0.1059 -0.2924
  748THY    CP118680   4.314   3.105   0.067  0.4083  0.4414 -0.0049
  748THY    HP118681   4.351   3.182  -0.002  0.5628  0.9884  0.6813
  748THY    CP218682   4.336   2.960   0.018 -0.5504  0.3511  0.6214
  748THY    HP218683   4.306   2.964  -0.087 -2.0089 -1.9013  0.8868
  748THY    HP318684   4.439   2.922   0.024 -0.8727 -0.9033 -0.9231
  748THY    HP418685   4.273   2.887   0.070 -1.1100  0.5655  0.2481
  748THY    CP318686   4.161   3.131   0.078 -0.3922  0.2656  0.0056
  748THY    HP518687   4.150   3.236   0.108 -0.1572 -0.0211  1.1827
  748THY    HP618688   4.112   3.115  -0.018  0.1512 -0.2808 -0.1841
  748THY    HP718689   4.108   3.067   0.150  0.3944  1.4541  1.7353
  748THY    CA318690   4.320   3.151   0.319  0.0326 -0.1217  0.3409
  748THY    HA318691   4.216   3.120   0.330  0.5407 -1.8991  0.4280
  748THY    CA418692   4.396   3.180   0.432  1.3482  0.8758  0.5497
  748THY    HA418693   4.338   3.178   0.524  0.1995 -0.3417 -0.1671
  748THY    CA518694   4.529   3.207   0.422  0.2566 -0.1081  0.1574
  748THY    CM118695   4.605   3.259   0.540  0.0703  0.8700 -0.2832
  748THY    HM118696   4.547   3.327   0.604 -0.3407  0.3665 -0.1187
  748THY    HM218697   4.654   3.174   0.588 -0.1035  0.6419 -0.5066
  748THY    HM318698   4.682   3.319   0.490 -0.5000  0.0280 -2.2635
  748THY    CA618699   4.595   3.190   0.301  0.8448  1.1231 -0.1082
  748THY    HA618700   4.703   3.195   0.301  0.8442  1.1334 -0.3995
  749THY      O18701   7.464   0.005   2.890 -0.4421  0.0894  0.0917
  749THY     HO18702   7.381   0.049   2.865 -0.6550  0.2268  0.9874
  749THY    CA118703   7.421  -0.123   2.924 -1.1133 -0.6918 -0.0095
  749THY    CA218704   7.509  -0.234   2.947 -0.3355  0.3591 -0.2810
  749THY    CP118705   7.662  -0.228   2.914 -0.4192  0.0601 -0.4111
  749THY    HP118706   7.683  -0.122   2.897  0.6795 -0.2816 -1.2917
  749THY    CP218707   7.749  -0.254   3.045  0.1581  0.4711  0.4358
  749THY    HP218708   7.696  -0.220   3.135 -0.7228  1.2581 -0.3518
  749THY    HP318709   7.779  -0.358   3.060 -0.6025 -0.2656 -2.5181
  749THY    HP418710   7.839  -0.193   3.034  1.4825 -1.4033  0.5435
  749THY    CP318711   7.722  -0.311   2.796 -0.0480  0.2849 -0.3063
  749THY    HP518712   7.829  -0.291   2.783 -0.1115  0.9504  0.1587
  749THY    HP618713   7.724  -0.419   2.817 -2.5372  0.0582 -0.9586
  749THY    HP718714   7.670  -0.311   2.700 -1.2688 -1.3502  0.3077
  749THY    CA318715   7.449  -0.357   2.986 -0.3239 -0.3615  0.2291
  749THY    HA318716   7.514  -0.443   2.994  1.1304  0.2354 -3.5574
  749THY    CA418717   7.312  -0.370   2.998 -0.6698 -0.9523  0.0180
  749THY    HA418718   7.269  -0.462   3.035 -0.3917 -0.6013  1.2626
  749THY    CA518719   7.229  -0.263   2.957  0.5014  0.2308  0.7884
  749THY    CM118720   7.078  -0.277   2.961  0.3823 -0.1823 -0.3343
  749THY    HM118721   7.036  -0.290   2.860 -0.1684  1.0954 -0.2803
  749THY    HM218722   7.049  -0.368   3.015 -2.4493  0.5269 -0.5044
  749THY    HM318723   7.041  -0.186   3.009 -0.8903  0.0232 -1.6601
  749THY    CA618724   7.281  -0.138   2.929  0.1876  0.2723 -0.1132
  749THY    HA618725   7.206  -0.065   2.902  0.5347  0.5736 -0.2608
  750THY      O18726   5.393   0.706   3.365  0.2669 -0.1892 -0.1916
  750THY     HO18727   5.470   0.663   3.404 -1.6318 -4.5317 -0.6409
  750THY    CA118728   5.423   0.836   3.396  0.0697 -0.2886 -0.2070
  750THY    CA218729   5.363   0.941   3.327  0.1799  0.5415 -0.0765
  750THY    CP118730   5.252   0.923   3.226 -0.5324 -0.4576 -0.1367
  750THY    HP118731   5.232   0.816   3.212  4.0516 -1.4152 -1.0601
  750THY    CP218732   5.112   0.987   3.275 -0.5275 -0.1827 -0.9103
  750THY    HP218733   5.069   0.939   3.364 -0.6883  2.5215  0.5783
  750THY    HP318734   5.124   1.091   3.307  0.6757 -1.1462  2.1534
  750THY    HP418735   5.042   0.997   3.191 -0.0826 -0.3759 -1.3105
  750THY    CP318736   5.286   0.980   3.083  0.6187 -0.3079 -0.1199
  750THY    HP518737   5.378   0.929   3.051 -0.7195 -1.6213 -2.1342
  750THY    HP618738   5.214   0.963   3.002  2.6699  1.7781 -2.5448
  750THY    HP718739   5.298   1.089   3.089  0.4650 -0.2029 -1.3577
  750THY    CA318740   5.393   1.077   3.353  0.2257  0.3081  0.3031
  750THY    HA318741   5.342   1.156   3.299  1.1815 -0.7904 -2.3293
  750THY    CA418742   5.486   1.096   3.455 -0.2157  0.3093  0.0775
  750THY    HA418743   5.508   1.199   3.482  0.4741  0.6981 -1.8524
  750THY    CA518744   5.544   0.990   3.527 -0.5270 -0.7224  0.2373
  750THY    CM118745   5.631   1.009   3.643  0.1234 -0.1186 -0.1344
  750THY    HM118746   5.650   0.925   3.712 -1.1382 -0.8434 -0.6251
  750THY    HM218747   5.727   1.039   3.601  1.2245 -1.2025  1.4633
  750THY    HM318748   5.592   1.090   3.706  0.7946 -0.5527  0.8747
  750THY    CA618749   5.514   0.862   3.494 -0.6083 -0.2479  0.0725
  750THY    HA618750   5.561   0.781   3.549 -1.5337 -1.9510 -1.5380
  751THY      O18751   0.079   4.634   1.068 -0.3589  0.0142 -0.0058
  751THY     HO18752   0.097   4.728   1.082  0.1566  0.0326 -0.6810
  751THY    CA118753   0.106   4.621   0.934  0.2331 -0.1375 -1.4134
  751THY    CA218754   0.003   4.585   0.851 -0.5751 -0.3169  0.3681
  751THY    CP118755  -0.130   4.522   0.908 -0.9523  0.9644  0.7693
  751THY    HP118756  -0.107   4.453   0.990 -0.6185 -0.1783 -0.2503
  751THY    CP218757  -0.225   4.631   0.950  0.0801 -0.0337  0.1436
  751THY    HP218758  -0.231   4.698   0.864  0.2335  0.3824  0.4541
  751THY    HP318759  -0.330   4.607   0.970 -0.0859  1.7014  1.5757
  751THY    HP418760  -0.184   4.687   1.035  1.5528 -1.3962  0.3652
  751THY    CP318761  -0.214   4.433   0.806 -0.0548 -0.0083 -0.4118
  751THY    HP518762  -0.257   4.488   0.721  1.0821 -1.2027 -1.8115
  751THY    HP618763  -0.135   4.366   0.770  0.2473 -1.8281  3.1914
  751THY    HP718764  -0.294   4.386   0.864  1.0496 -1.7857 -0.2441
  751THY    CA318765   0.021   4.610   0.716  0.0846 -0.5093  0.3716
  751THY    HA318766  -0.056   4.590   0.641 -0.3746  0.7349  0.4783
  751THY    CA418767   0.142   4.668   0.666 -0.4711 -0.3920 -0.0830
  751THY    HA418768   0.158   4.700   0.563 -0.8402 -0.0766 -0.0424
  751THY    CA518769   0.244   4.699   0.754  0.3797 -0.5863 -0.2874
  751THY    CM118770   0.366   4.788   0.701  0.0314  0.2584 -0.4982
  751THY    HM118771   0.347   4.811   0.595 -2.3816  0.9825  0.0314
  751THY    HM218772   0.361   4.881   0.757 -1.5754 -0.4277  0.5748
  751THY    HM318773   0.457   4.728   0.712 -1.0324 -1.9031 -2.5206
  751THY    CA618774   0.224   4.682   0.886  0.1397 -0.3990 -0.0936
  751THY    HA618775   0.292   4.721   0.960  0.5048 -4.7290  2.1707
  752THY      O18776   0.296   9.459   2.260 -0.0248  0.5263  0.5428
  752THY     HO18777   0.368   9.406   2.222 -1.2034 -1.1169  0.4991
  752THY    CA118778   0.346   9.547   2.348  0.7438 -0.4491 -0.3229
  752THY    CA218779   0.260   9.603   2.445  0.0085  0.1545  0.0683
  752THY    CP118780   0.115   9.560   2.453  0.1480  0.1212  0.3231
  752THY    HP118781   0.093   9.475   2.386  1.2370  0.0455  0.0431
  752THY    CP218782   0.074   9.512   2.596 -0.1036 -0.5962  0.0974
  752THY    HP218783  -0.029   9.476   2.600 -0.7368  1.0793 -0.5615
  752THY    HP318784   0.142   9.433   2.632  1.7665 -0.5036 -2.8699
  752THY    HP418785   0.065   9.596   2.665 -0.3976  1.8657 -2.7511
  752THY    CP318786   0.032   9.679   2.405  0.5482  0.0424 -0.0666
  752THY    HP518787   0.050   9.700   2.299 -0.4836  2.2086  0.1156
  752THY    HP618788  -0.073   9.650   2.412  0.5729  0.1252  0.7117
  752THY    HP718789   0.058   9.769   2.463  2.0646 -0.7552  0.5579
  752THY    CA318790   0.315   9.701   2.535  0.5290  0.0528 -0.9908
  752THY    HA318791   0.247   9.748   2.605 -0.9088 -0.6871 -1.8367
  752THY    CA418792   0.455   9.721   2.529 -0.1006  0.8163 -0.1066
  752THY    HA418793   0.492   9.775   2.616 -1.3455 -0.8143  1.5107
  752THY    CA518794   0.539   9.666   2.428 -0.3172  0.8340 -0.2446
  752THY    CM118795   0.689   9.692   2.414 -0.1913 -0.1042  0.4229
  752THY    HM118796   0.750   9.601   2.417  0.1248  0.0993  0.3053
  752THY    HM218797   0.693   9.749   2.320 -1.6032 -2.2971 -1.0588
  752THY    HM318798   0.729   9.766   2.484 -0.2600  1.2761 -0.9271
  752THY    CA618799   0.481   9.578   2.334 -0.4016  0.2118 -0.1272
  752THY    HA618800   0.544   9.533   2.259  3.8708  1.2244  2.5098
  753THY      O18801   7.181   6.681   1.226  0.3982 -0.5607  0.8055
  753THY     HO18802   7.113   6.636   1.279 -1.2819 -0.5103 -1.1763
  753THY    CA118803   7.246   6.579   1.177 -0.0077  0.7131  0.6820
  753THY    CA218804   7.353   6.580   1.082  0.2523  0.8929  0.0656
  753THY    CP118805   7.400   6.714   1.035 -0.3191  1.0080  0.4360
  753THY    HP118806   7.309   6.773   1.051 -1.8264 -0.5530 -1.8518
  753THY    CP218807   7.509   6.778   1.114  0.0567 -0.1486  0.4657
  753THY    HP218808   7.491   6.761   1.220  0.5586 -1.3023  0.3721
  753THY    HP318809   7.603   6.728   1.090  0.3525 -0.4881  2.2183
  753THY    HP418810   7.524   6.886   1.099  1.1398  0.0746  2.8184
  753THY    CP318811   7.429   6.712   0.884  0.3621 -0.2907 -0.9203
  753THY    HP518812   7.517   6.646   0.884 -0.4748 -1.4964  1.2602
  753THY    HP618813   7.349   6.671   0.822 -0.3092  2.1761 -1.7835
  753THY    HP718814   7.455   6.813   0.849  1.0073 -0.3460 -0.6267
  753THY    CA318815   7.409   6.456   1.042  0.6444  0.1298 -0.0800
  753THY    HA318816   7.491   6.454   0.972  1.9384  0.9554  1.3295
  753THY    CA418817   7.374   6.334   1.102  0.2319  0.3881  0.2849
  753THY    HA418818   7.419   6.239   1.075  0.5875  0.7740 -0.5053
  753THY    CA518819   7.276   6.336   1.203  0.0663  0.0398  0.6526
  753THY    CM118820   7.238   6.218   1.288  0.4567  0.7433 -0.0959
  753THY    HM118821   7.242   6.252   1.392 -0.3566 -2.3195  1.0537
  753THY    HM218822   7.140   6.189   1.249  1.7190 -3.4362 -0.7293
  753THY    HM318823   7.309   6.135   1.282 -0.3802  0.0037 -0.0387
  753THY    CA618824   7.213   6.456   1.237  0.3579 -0.0520  0.1903
  753THY    HA618825   7.139   6.463   1.316  1.3896  0.6771  1.1227
  754THY      O18826   2.400   1.507   9.298 -0.6709 -0.6754 -0.0303
  754THY     HO18827   2.450   1.429   9.328 -0.4027 -1.5224 -2.4593
  754THY    CA118828   2.339   1.457   9.186  0.1282  0.0056  0.1544
  754THY    CA218829   2.337   1.532   9.064 -0.2385  0.3811  0.5424
  754THY    CP118830   2.414   1.654   9.057 -0.1080  0.1281  0.0374
  754THY    HP118831   2.473   1.678   9.147 -0.1008 -1.0521  0.3636
  754THY    CP218832   2.513   1.652   8.934  0.1106 -0.3800  0.4024
  754THY    HP218833   2.563   1.554   8.928 -1.5074 -1.1870 -0.8131
  754THY    HP318834   2.460   1.679   8.842 -0.2077  0.7580  0.9106
  754THY    HP418835   2.588   1.729   8.953 -0.1974 -0.4263  1.8808
  754THY    CP318836   2.322   1.778   9.039 -0.1078  1.0690  0.2338
  754THY    HP518837   2.384   1.868   9.029  2.6424 -0.6626  0.6474
  754THY    HP618838   2.247   1.774   8.959 -0.1518 -0.5185  0.3288
  754THY    HP718839   2.274   1.787   9.137  2.1632 -1.8957  1.7933
  754THY    CA318840   2.265   1.479   8.957 -0.6373  0.0302 -0.4408
  754THY    HA318841   2.264   1.531   8.862  0.2800 -2.2083 -1.7530
  754THY    CA418842   2.185   1.364   8.971 -0.0345 -0.9351 -1.0347
  754THY    HA418843   2.122   1.321   8.893  0.3514 -2.9732 -0.2992
  754THY    CA518844   2.188   1.303   9.094 -0.3409  0.3923 -0.1421
  754THY    CM118845   2.093   1.189   9.122 -0.5254 -0.4079  0.4122
  754THY    HM118846   2.157   1.100   9.121  1.8950  1.2458 -0.7291
  754THY    HM218847   2.038   1.217   9.212  0.1892  1.3372  0.3589
  754THY    HM318848   2.026   1.173   9.036 -0.9137  1.5790  0.2915
  754THY    CA618849   2.269   1.341   9.202 -0.7340 -0.7362  0.0596
  754THY    HA618850   2.247   1.309   9.303  0.4387 -0.9957  0.2492
  755THY      O18851   8.547   3.043   9.671  0.0514  1.2131 -0.1295
  755THY     HO18852   8.534   2.982   9.596  2.9866  0.6525 -0.3272
  755THY    CA118853   8.456   3.142   9.643 -0.2591  0.1414 -0.2507
  755THY    CA218854   8.433   3.259   9.713  0.0315 -0.0164  0.8648
  755THY    CP118855   8.521   3.305   9.838 -0.1842 -0.2692  0.4907
  755THY    HP118856   8.624   3.273   9.819 -0.0632  0.6215 -0.4425
  755THY    CP218857   8.537   3.459   9.850  0.3888 -1.2645  0.0963
  755THY    HP218858   8.554   3.510   9.754 -1.2892  0.0840  0.4603
  755THY    HP318859   8.453   3.510   9.898  1.0813 -0.3720  0.3827
  755THY    HP418860   8.615   3.474   9.926  0.6349  0.1041 -0.4014
  755THY    CP318861   8.474   3.244   9.970 -0.0534 -0.1553  0.2710
  755THY    HP518862   8.540   3.273  10.053 -2.3726  0.9499  1.8535
  755THY    HP618863   8.378   3.292   9.993 -0.3338  0.3638 -1.8096
  755THY    HP718864   8.461   3.135   9.969 -4.0965  0.1531  0.9482
  755THY    CA318865   8.329   3.336   9.663 -0.3016 -0.1919 -0.4704
  755THY    HA318866   8.301   3.428   9.713 -0.7272 -0.0230 -1.0056
  755THY    CA418867   8.246   3.294   9.556 -0.1622 -0.3193  0.2086
  755THY    HA418868   8.170   3.361   9.518 -1.3615 -0.4944  2.1865
  755THY    CA518869   8.268   3.175   9.491 -0.2472 -0.7745 -0.3274
  755THY    CM118870   8.184   3.128   9.374 -0.2389  0.1829  0.6839
  755THY    HM118871   8.157   3.213   9.310 -3.5221  0.1232  1.8006
  755THY    HM218872   8.232   3.054   9.310 -0.4810  1.3385 -0.8965
  755THY    HM318873   8.087   3.083   9.398  0.9375 -1.1828  3.1639
  755THY    CA618874   8.382   3.105   9.529  0.4805  0.4136 -0.2202
  755THY    HA618875   8.422   3.028   9.462  0.6891 -0.1540  0.5368
  756THY      O18876   9.177   2.541   4.160 -0.3157  0.3652 -0.5070
  756THY     HO18877   9.219   2.470   4.213 -1.3406  1.0469  1.3055
  756THY    CA118878   9.253   2.644   4.182  0.6235  1.0684  0.0807
  756THY    CA218879   9.202   2.762   4.243  0.2416 -0.0569  0.0810
  756THY    CP118880   9.054   2.786   4.276 -0.0926  0.2344  0.4268
  756THY    HP118881   8.994   2.701   4.245 -3.4100  1.7592  2.1892
  756THY    CP218882   9.047   2.809   4.430 -0.0620  0.3709  0.0840
  756THY    HP218883   9.068   2.721   4.493  0.0005  0.9307  0.8505
  756THY    HP318884   9.115   2.890   4.456 -1.2645  2.0419 -1.7633
  756THY    HP418885   8.944   2.839   4.452  0.3263  1.0353  1.0552
  756THY    CP318886   8.990   2.898   4.192  0.2236 -0.7273 -0.8597
  756THY    HP518887   9.015   2.999   4.226 -2.1340 -0.3923  0.0219
  756THY    HP618888   8.999   2.893   4.083 -0.3150  1.8521 -1.0938
  756THY    HP718889   8.884   2.897   4.216  0.1391  2.3265 -0.7791
  756THY    CA318890   9.293   2.870   4.245 -0.3985 -0.6540  0.2002
  756THY    HA318891   9.265   2.971   4.274 -0.6220 -0.6563 -0.0046
  756THY    CA418892   9.427   2.856   4.206  1.0249  0.0486 -0.5766
  756THY    HA418893   9.493   2.940   4.227 -0.6592  0.9521  1.5033
  756THY    CA518894   9.474   2.735   4.161  0.3057  0.4011  0.5130
  756THY    CM118895   9.623   2.722   4.136  0.1386  0.0197  0.1138
  756THY    HM118896   9.669   2.693   4.231 -1.8234 -0.2129  1.0523
  756THY    HM218897   9.649   2.646   4.062  0.3083  1.1103 -0.9694
  756THY    HM318898   9.667   2.820   4.116 -0.4363  0.2344 -0.1200
  756THY    CA618899   9.384   2.636   4.138 -0.3581  0.7902  0.1484
  756THY    HA618900   9.426   2.544   4.099 -0.0705  0.9494  0.0796
  757THY      O18901   0.694   2.064   3.723  0.0230 -0.4625 -0.3086
  757THY     HO18902   0.664   2.023   3.806 -1.4941  0.1799 -0.5040
  757THY    CA118903   0.758   1.968   3.650 -0.5322  0.0132  0.8448
  757THY    CA218904   0.873   2.003   3.577  0.3552  0.7255 -0.1869
  757THY    CP118905   0.933   2.143   3.569 -0.0862 -0.0108 -0.5197
  757THY    HP118906   0.864   2.214   3.617 -1.8887 -2.3493  0.5518
  757THY    CP218907   1.074   2.150   3.629 -0.0059  0.6223  0.5270
  757THY    HP218908   1.109   2.252   3.614 -0.8907  0.7803 -0.5692
  757THY    HP318909   1.066   2.134   3.737 -0.7775  0.4902  0.4527
  757THY    HP418910   1.147   2.090   3.572  0.5799  2.5033 -0.7912
  757THY    CP318911   0.940   2.185   3.425  0.3025 -0.3881  0.6113
  757THY    HP518912   0.988   2.283   3.420  0.1028 -0.3146  0.0341
  757THY    HP618913   0.999   2.112   3.368  1.1904  1.7444 -1.3540
  757THY    HP718914   0.840   2.193   3.379  1.0191 -0.1589 -0.9811
  757THY    CA318915   0.931   1.895   3.507  0.0278  0.2099 -0.5713
  757THY    HA318916   1.017   1.922   3.447 -0.9637  0.4231 -1.9255
  757THY    CA418917   0.887   1.762   3.517  0.2838  0.0632  0.6456
  757THY    HA418918   0.944   1.679   3.476 -0.2856 -0.8619  1.6836
  757THY    CA518919   0.775   1.731   3.587 -0.4575  1.0861 -0.1127
  757THY    CM118920   0.737   1.593   3.619 -0.0624 -0.3264 -0.1586
  757THY    HM118921   0.834   1.545   3.638 -0.7350 -1.1438  1.4598
  757THY    HM218922   0.665   1.577   3.701  0.4871 -1.5087  0.1282
  757THY    HM318923   0.705   1.533   3.533  2.5671 -0.0095 -1.4742
  757THY    CA618924   0.714   1.832   3.659 -0.4625  0.2104 -0.8920
  757THY    HA618925   0.630   1.808   3.725 -1.5900  1.0002 -1.9832
  758THY      O18926   9.538   3.358   0.397  0.6164 -0.0582 -0.0488
  758THY     HO18927   9.532   3.420   0.472  0.0126  2.6881 -2.2251
  758THY    CA118928   9.421   3.287   0.388  0.6143  0.2359 -0.6667
  758THY    CA218929   9.398   3.206   0.271  0.5101 -0.1851  0.5777
  758THY    CP118930   9.502   3.205   0.154 -0.5741 -0.0567  0.4957
  758THY    HP118931   9.603   3.211   0.198 -0.5140 -0.9850  0.4892
  758THY    CP218932   9.508   3.078   0.069  0.2692 -0.5487 -0.5655
  758THY    HP218933   9.593   3.077  -0.000  0.3740  0.2841 -0.4593
  758THY    HP318934   9.510   2.985   0.126  1.8901  1.1055  2.3449
  758THY    HP418935   9.423   3.086   0.000  1.5374 -0.0793 -2.1628
  758THY    CP318936   9.492   3.323   0.057 -0.1830  0.1063  0.2616
  758THY    HP518937   9.408   3.315  -0.013  0.1556  0.1171 -0.1476
  758THY    HP618938   9.476   3.416   0.113  0.3472 -0.2406  1.0057
  758THY    HP718939   9.581   3.344  -0.004 -1.8434  2.9680 -1.4162
  758THY    CA318940   9.277   3.130   0.265  0.2641  0.6073 -0.6285
  758THY    HA318941   9.240   3.078   0.177  0.8326  0.4295 -0.7645
  758THY    CA418942   9.189   3.133   0.377  0.2305  0.5618  0.0543
  758THY    HA418943   9.097   3.075   0.374  0.7791 -0.2903 -0.6779
  758THY    CA518944   9.217   3.196   0.495  0.0291  0.2848  0.1841
  758THY    CM118945   9.120   3.197   0.607 -0.1963  0.0595 -0.2783
  758THY    HM118946   9.022   3.161   0.574 -0.9351  1.6747  0.0514
  758THY    HM218947   9.154   3.141   0.695  1.9726 -0.0418 -1.1298
  758THY    HM318948   9.105   3.302   0.632 -0.1093  0.8355 -3.1497
  758THY    CA618949   9.331   3.271   0.501 -0.1167 -0.2631  0.5848
  758THY    HA618950   9.361   3.322   0.592  3.1149  0.2887 -0.6571
  759THY      O18951   2.946   4.040   8.696 -0.0899  0.1917 -0.0831
  759THY     HO18952   2.983   4.032   8.786  2.1533 -1.0942 -1.0309
  759THY    CA118953   2.822   3.995   8.713 -0.4771 -0.0886  0.1627
  759THY    CA218954   2.754   3.937   8.605  0.2052  0.2589 -0.3806
  759THY    CP118955   2.820   3.935   8.471 -0.3501  0.8322  0.3584
  759THY    HP118956   2.885   4.023   8.464 -0.6184  1.0244  0.2653
  759THY    CP218957   2.903   3.807   8.457  0.1405 -0.3011  0.5513
  759THY    HP218958   2.859   3.723   8.512 -1.8622  0.9715  1.0111
  759THY    HP318959   2.913   3.772   8.354 -0.2790 -0.4155  0.5491
  759THY    HP418960   3.008   3.816   8.489  1.0053  0.5226 -2.2341
  759THY    CP318961   2.725   3.939   8.353 -0.5168 -0.5924 -0.9440
  759THY    HP518962   2.664   3.848   8.343 -1.5953 -0.1105  0.7634
  759THY    HP618963   2.654   4.021   8.370 -1.8766 -2.1681  1.7946
  759THY    HP718964   2.785   3.948   8.262 -0.1861 -1.5307 -0.8370
  759THY    CA318965   2.620   3.891   8.630 -0.5195 -0.1393 -0.6672
  759THY    HA318966   2.570   3.841   8.548  1.5089  0.0323 -2.0773
  759THY    CA418967   2.568   3.886   8.757 -0.1331 -0.6474 -0.0105
  759THY    HA418968   2.471   3.840   8.773 -1.0242  1.5857  1.5212
  759THY    CA518969   2.640   3.944   8.868  0.4132  0.2247 -0.4962
  759THY    CM118970   2.578   3.937   9.013 -0.1528 -0.0034  0.0836
  759THY    HM118971   2.542   4.038   9.036 -1.9006 -0.8752  1.4072
  759THY    HM218972   2.504   3.856   9.021 -1.5217  1.1207 -0.6392
  759THY    HM318973   2.654   3.899   9.081 -2.1940 -2.2365  1.2694
  759THY    CA618974   2.768   3.998   8.844 -0.0325  0.4328  0.6754
  759THY    HA618975   2.821   4.044   8.927 -0.9167  1.3611  0.7431
  760THY      O18976   2.591   4.548   7.500 -0.0776 -0.2566  0.3245
  760THY     HO18977   2.668   4.603   7.519 -0.8134  1.0870 -0.3908
  760THY    CA118978   2.506   4.566   7.610 -0.3516  0.0327 -0.1616
  760THY    CA218979   2.412   4.469   7.650  0.4079 -0.5241 -0.0270
  760THY    CP118980   2.409   4.335   7.582 -0.8762 -0.2525 -0.2729
  760THY    HP118981   2.507   4.323   7.532  0.8052  2.5018  2.0544
  760THY    CP218982   2.427   4.223   7.693 -0.4362  0.1414  0.1029
  760THY    HP218983   2.455   4.131   7.640 -0.5049  0.1427  0.0641
  760THY    HP318984   2.509   4.243   7.763 -0.8538 -0.3394  0.7374
  760THY    HP418985   2.341   4.196   7.754 -0.2600 -0.3315  0.1478
  760THY    CP318986   2.288   4.308   7.486 -0.0182 -0.5610 -0.2647
  760THY    HP518987   2.195   4.317   7.543  0.7768  0.3051  0.9307
  760THY    HP618988   2.275   4.380   7.404  0.3538  0.5392  0.6194
  760THY    HP718989   2.314   4.208   7.450  0.5136 -0.2960 -0.6323
  760THY    CA318990   2.326   4.494   7.752 -0.4665 -0.1234 -0.0884
  760THY    HA318991   2.248   4.423   7.776 -1.3211  1.1161  0.9350
  760THY    CA418992   2.317   4.625   7.804 -0.2019  0.7243 -0.2888
  760THY    HA418993   2.235   4.663   7.864  0.2679  3.4081 -1.2129
  760THY    CA518994   2.406   4.724   7.761 -0.9379  0.4699 -0.1470
  760THY    CM118995   2.395   4.871   7.803  0.3514 -0.1951 -0.0870
  760THY    HM118996   2.293   4.893   7.837 -0.4994 -3.5248 -0.2096
  760THY    HM218997   2.463   4.901   7.884  0.3500 -0.9941  0.2153
  760THY    HM318998   2.424   4.934   7.717 -0.2433 -1.4391 -1.2363
  760THY    CA618999   2.505   4.699   7.660  0.4111  0.4168 -0.0535
  760THY    HA619000   2.570   4.780   7.628  0.7788  0.1328 -0.0330
  761THY      O19001   1.441   3.755   7.433  0.1021 -0.4657  0.1380
  761THY     HO19002   1.475   3.665   7.416 -2.0392 -1.2797 -0.1569
  761THY    CA119003   1.311   3.762   7.392 -0.0653 -0.2233  0.2297
  761THY    CA219004   1.207   3.821   7.474  0.4277 -0.4987 -0.2412
  761THY    CP119005   1.241   3.883   7.610 -0.1094  0.2976 -0.0261
  761THY    HP119006   1.349   3.902   7.608 -0.0760  0.3710 -3.5560
  761THY    CP219007   1.172   4.011   7.647 -0.0533  0.3366 -0.4095
  761THY    HP219008   1.063   3.998   7.637  0.4788 -5.0965 -2.9012
  761THY    HP319009   1.199   4.032   7.750  0.9495 -3.3235  0.2104
  761THY    HP419010   1.206   4.090   7.579 -0.6462 -1.1668 -2.5767
  761THY    CP319011   1.215   3.774   7.712  0.1821 -0.5409 -0.0809
  761THY    HP519012   1.115   3.730   7.708  1.0821 -3.2744  2.7262
  761THY    HP619013   1.293   3.698   7.695  2.6133  1.8472 -0.3816
  761THY    HP719014   1.231   3.812   7.814  0.3405 -0.3333 -0.1833
  761THY    CA319015   1.070   3.811   7.434  0.1894  0.9636 -0.1282
  761THY    HA319016   0.993   3.847   7.501 -0.9994 -0.3455 -0.7422
  761THY    CA419017   1.037   3.757   7.307  0.6037  0.8488 -0.2792
  761THY    HA419018   0.936   3.733   7.273 -0.5420  0.0767  3.2757
  761THY    CA519019   1.138   3.709   7.223 -0.6186  0.2424 -0.6797
  761THY    CM119020   1.105   3.633   7.104  0.4483  0.5754 -0.3166
  761THY    HM119021   1.149   3.533   7.109  1.2527  0.9193 -0.4745
  761THY    HM219022   0.999   3.636   7.074 -0.6759 -0.6962  3.0398
  761THY    HM319023   1.152   3.689   7.022  1.0366 -0.4579 -0.6984
  761THY    CA619024   1.275   3.702   7.270 -0.0959 -0.1532 -0.2989
  761THY    HA619025   1.355   3.653   7.215  1.5305  0.2481  1.6319
  762THY      O19026   1.581   2.902   0.823 -0.4983  0.1535 -0.2408
  762THY     HO19027   1.635   2.830   0.785  2.1741  0.2497  2.9276
  762THY    CA119028   1.663   2.973   0.901 -0.3033  0.2334  0.4963
  762THY    CA219029   1.613   3.076   0.983  0.8962 -0.5214 -0.9747
  762THY    CP119030   1.466   3.139   0.961 -0.5316  0.3108  0.0871
  762THY    HP119031   1.412   3.072   0.893 -1.2061  1.2850 -0.3540
  762THY    CP219032   1.385   3.148   1.088 -0.4846  0.0214  0.1275
  762THY    HP219033   1.404   3.060   1.149  1.2485  1.5743  1.9863
  762THY    HP319034   1.398   3.230   1.160  0.3082 -0.5056  0.6022
  762THY    HP419035   1.281   3.140   1.055 -0.8778 -0.2409  1.4157
  762THY    CP319036   1.479   3.278   0.900 -0.5351 -0.4438 -0.1949
  762THY    HP519037   1.521   3.260   0.801  1.2863  1.0551  0.2375
  762THY    HP619038   1.385   3.334   0.896  1.0885  2.6416  0.6449
  762THY    HP719039   1.547   3.339   0.961 -1.0135 -0.0789 -0.0154
  762THY    CA319040   1.694   3.127   1.084 -0.1284  0.0011 -0.1451
  762THY    HA319041   1.656   3.195   1.160 -0.6410 -1.1243  0.6161
  762THY    CA419042   1.829   3.089   1.085 -0.0871  0.4074  0.2590
  762THY    HA419043   1.898   3.129   1.160  1.3864  1.1863 -1.4467
  762THY    CA519044   1.881   2.990   1.005  0.0645  0.3984  0.0614
  762THY    CM119045   2.027   2.949   1.009 -0.4964 -0.2736  0.3185
  762THY    HM119046   2.078   2.950   1.106  0.2935  2.8688 -0.0258
  762THY    HM219047   2.035   2.847   0.971 -1.7796 -0.6219  0.9304
  762THY    HM319048   2.089   3.001   0.935  0.1095 -1.1032  0.2277
  762THY    CA619049   1.797   2.925   0.918  0.5063 -0.2526 -0.4371
  762THY    HA619050   1.837   2.836   0.870 -1.3529 -1.6413  0.4120
  763THY      O19051   4.848   7.690   8.561  0.3436  0.3061 -0.2383
  763THY     HO19052   4.919   7.737   8.607  1.4707 -2.0742  0.6458
  763THY    CA119053   4.861   7.562   8.622 -0.4690 -0.4319 -0.0030
  763THY    CA219054   4.747   7.484   8.646  0.1426 -0.9759 -0.0335
  763THY    CP119055   4.609   7.536   8.619 -0.1373  0.2305 -0.0737
  763THY    HP119056   4.597   7.604   8.534 -0.9219 -0.6975 -0.7276
  763THY    CP219057   4.496   7.432   8.603  0.3267 -0.5873  0.3308
  763THY    HP219058   4.405   7.493   8.606  0.5216 -0.3268  2.3972
  763THY    HP319059   4.506   7.371   8.512  0.7139 -1.3923  0.9072
  763THY    HP419060   4.489   7.372   8.694 -1.9711  2.0089  2.0382
  763THY    CP319061   4.578   7.631   8.733 -0.2819  0.1472  0.2451
  763THY    HP519062   4.656   7.708   8.739 -0.5403  0.5088 -0.7628
  763THY    HP619063   4.485   7.676   8.696 -0.2932  0.8206  1.0799
  763THY    HP719064   4.559   7.582   8.829  0.5555  0.3803  0.5398
  763THY    CA319065   4.763   7.351   8.693  0.5581  0.2215 -0.2252
  763THY    HA319066   4.683   7.279   8.706  0.3565  0.2034 -1.4611
  763THY    CA419067   4.896   7.307   8.734 -0.1123  1.0292  0.1397
  763THY    HA419068   4.899   7.212   8.787 -0.4318  1.9038  1.7835
  763THY    CA519069   5.009   7.384   8.711 -0.5294  0.0274 -0.1506
  763THY    CM119070   5.147   7.326   8.741  0.2418  0.2897 -0.5411
  763THY    HM119071   5.146   7.275   8.838  4.0616 -0.9433 -0.9579
  763THY    HM219072   5.172   7.242   8.675  2.0141 -0.0199  0.4620
  763THY    HM319073   5.226   7.402   8.740  1.1279 -0.6032 -0.2052
  763THY    CA619074   4.991   7.520   8.663 -0.0742  0.1852  0.9191
  763THY    HA619075   5.079   7.583   8.663  0.1892 -0.1783  1.4457
  764THY      O19076   2.380   1.705   5.816 -0.0842 -0.2448 -0.2282
  764THY     HO19077   2.376   1.802   5.813  2.3928  0.1236  3.1203
  764THY    CA119078   2.321   1.679   5.932  0.3452 -0.3154 -0.1655
  764THY    CA219079   2.247   1.563   5.957  0.0218 -0.0547  0.1459
  764THY    CP119080   2.240   1.453   5.850  0.9456  0.3567  0.4554
  764THY    HP119081   2.309   1.471   5.767 -1.6406 -1.1640 -2.2284
  764THY    CP219082   2.279   1.319   5.918  0.2242  0.8495 -0.0686
  764THY    HP219083   2.359   1.340   5.990 -0.2087  1.5619  0.2139
  764THY    HP319084   2.193   1.273   5.968  0.8603 -0.4797 -0.1357
  764THY    HP419085   2.303   1.246   5.839  0.5697  0.1841  0.6332
  764THY    CP319086   2.102   1.443   5.782 -0.1413 -0.3284 -0.3789
  764THY    HP519087   2.087   1.523   5.708 -0.4216  0.1739  0.2165
  764THY    HP619088   2.084   1.352   5.722  1.0421 -1.6631  1.1905
  764THY    HP719089   2.025   1.447   5.860  0.4984  0.5456  0.2264
  764THY    CA319090   2.183   1.560   6.078 -0.1461  0.3015  0.8732
  764THY    HA319091   2.144   1.463   6.107 -0.6418  0.0453 -0.6050
  764THY    CA419092   2.180   1.663   6.166  0.4969  0.2606 -0.2456
  764THY    HA419093   2.121   1.661   6.258 -1.1704 -0.6609 -1.2928
  764THY    CA519094   2.248   1.782   6.136  0.3457 -0.3267  0.1321
  764THY    CM119095   2.225   1.911   6.219  0.6267  0.2114 -0.2536
  764THY    HM119096   2.308   1.982   6.219 -1.3009  2.5968 -1.4034
  764THY    HM219097   2.136   1.962   6.180  0.8954  1.4237  0.6520
  764THY    HM319098   2.193   1.876   6.318  0.4517 -0.1827 -0.4453
  764THY    CA619099   2.322   1.791   6.022  0.1020 -0.1429  0.2510
  764THY    HA619100   2.376   1.883   6.001  0.0395  0.3985  2.2057
  765THY      O19101   8.155   6.190   0.848 -0.5609  0.5005  0.5253
  765THY     HO19102   8.201   6.243   0.916  0.5949 -0.5819  0.6137
  765THY    CA119103   8.023   6.202   0.850 -0.2458 -0.3055  0.1962
  765THY    CA219104   7.953   6.175   0.729 -0.4264  0.1050  0.0822
  765THY    CP119105   8.019   6.146   0.601 -0.6361 -0.1852 -0.6978
  765THY    HP119106   8.126   6.166   0.611 -0.6611 -0.4736  0.1800
  765THY    CP219107   7.987   5.999   0.559 -0.4756 -0.4441  0.2195
  765THY    HP219108   7.884   5.981   0.527 -0.5895  1.1713 -0.4661
  765THY    HP319109   8.044   5.976   0.468 -0.4728 -0.9385  0.3471
  765THY    HP419110   8.018   5.928   0.636 -0.6646 -1.6047 -0.7376
  765THY    CP319111   7.987   6.259   0.497  0.1655 -0.0299 -0.3576
  765THY    HP519112   8.071   6.280   0.430 -0.5959  2.4795 -0.6453
  765THY    HP619113   7.896   6.226   0.446 -0.1725 -0.8154  0.6974
  765THY    HP719114   7.966   6.362   0.529 -1.3777 -0.3693 -0.2229
  765THY    CA319115   7.812   6.168   0.741  0.6610 -0.4243 -0.1854
  765THY    HA319116   7.752   6.129   0.659  0.6301  0.8620 -0.7964
  765THY    CA419117   7.750   6.209   0.860 -0.2794  0.0991  0.3616
  765THY    HA419118   7.642   6.196   0.860 -0.1840 -0.7673 -0.4933
  765THY    CA519119   7.822   6.246   0.973 -0.2587  0.3507 -0.1732
  765THY    CM119120   7.756   6.270   1.109 -0.4949 -0.3032  0.4032
  765THY    HM119121   7.770   6.371   1.150  2.7466 -0.3229 -0.4167
  765THY    HM219122   7.650   6.244   1.100 -0.1408 -2.3650  1.6022
  765THY    HM319123   7.813   6.209   1.180  0.9731  0.1933 -0.3340
  765THY    CA619124   7.960   6.247   0.965 -0.3210  0.3431 -0.1787
  765THY    HA619125   8.013   6.277   1.054 -2.0457  2.0723  0.3412
  766THY      O19126   5.663   7.030   5.986 -0.0258  0.2300 -0.1090
  766THY     HO19127   5.590   6.984   6.032  0.2717  0.5399  0.6967
  766THY    CA119128   5.614   7.074   5.871 -0.0285  0.2363 -0.0318
  766THY    CA219129   5.665   7.184   5.802  0.8967  0.1479  0.5223
  766THY    CP119130   5.785   7.261   5.858  0.1149  0.3542  0.2730
  766THY    HP119131   5.856   7.191   5.904  1.4296  1.3835 -0.1352
  766THY    CP219132   5.865   7.344   5.757  0.5741 -0.0909 -0.9777
  766THY    HP219133   5.951   7.391   5.807 -0.3537  0.0544  0.5421
  766THY    HP319134   5.916   7.275   5.689 -0.7334  0.0323 -2.1161
  766THY    HP419135   5.806   7.414   5.697 -0.3489 -1.6367 -1.9271
  766THY    CP319136   5.724   7.366   5.960 -0.4361  0.1529  0.5556
  766THY    HP519137   5.661   7.318   6.036 -1.1537  1.5439  0.8764
  766THY    HP619138   5.803   7.420   6.013 -1.0594  3.1532 -1.3402
  766THY    HP719139   5.662   7.434   5.901  1.3826  1.7524  0.3899
  766THY    CA319140   5.584   7.229   5.686  0.2184 -0.1949 -0.7634
  766THY    HA319141   5.618   7.311   5.623 -0.0402 -1.0579 -2.0776
  766THY    CA419142   5.473   7.158   5.647 -0.1045  0.2259 -0.5980
  766THY    HA419143   5.422   7.191   5.557  1.9001  0.5207 -1.6839
  766THY    CA519144   5.430   7.038   5.719  0.3907 -0.3925 -0.3410
  766THY    CM119145   5.317   6.953   5.673 -0.2272 -0.2859 -0.2927
  766THY    HM119146   5.351   6.894   5.587  2.3803 -1.1972  1.2074
  766THY    HM219147   5.287   6.886   5.755 -2.2691 -2.0333 -2.3313
  766THY    HM319148   5.230   7.014   5.647  1.2897  0.3251 -4.6450
  766THY    CA619149   5.501   6.997   5.832  0.4710  0.0777  0.6155
  766THY    HA619150   5.466   6.904   5.875  1.4488  0.3103  1.9539
  767THY      O19151   0.623   8.093   9.677 -0.0852 -0.2162  0.4410
  767THY     HO19152   0.712   8.095   9.638 -0.5159  0.6225 -0.5385
  767THY    CA119153   0.607   8.225   9.688  0.4575 -0.3676  0.7856
  767THY    CA219154   0.618   8.288   9.812  0.3109  0.1932  0.5274
  767THY    CP119155   0.672   8.203   9.932 -0.4539 -0.4845 -0.0734
  767THY    HP119156   0.729   8.114   9.905  0.8107  0.6655 -1.3513
  767THY    CP219157   0.776   8.285  10.018  0.6218  0.5735  0.3025
  767THY    HP219158   0.726   8.362  10.078 -2.5936 -1.3199  0.3036
  767THY    HP319159   0.830   8.213  10.081  1.0784  1.1538  0.5828
  767THY    HP419160   0.842   8.347   9.956  0.1877 -0.1302 -0.8871
  767THY    CP319161   0.550   8.151  10.022  0.2181 -0.5484 -0.2537
  767THY    HP519162   0.473   8.090   9.975 -2.9838  2.7153  0.3499
  767THY    HP619163   0.595   8.088  10.100 -0.8486  1.7730  2.4158
  767THY    HP719164   0.506   8.232  10.081 -0.2711 -2.0872  1.5992
  767THY    CA319165   0.600   8.424   9.818 -0.4519  0.9383  0.3150
  767THY    HA319166   0.610   8.479   9.911  0.5458  1.4747 -0.0902
  767THY    CA419167   0.565   8.494   9.702  0.0295 -0.7968  0.3292
  767THY    HA419168   0.548   8.600   9.715  2.6568 -0.2864  0.0915
  767THY    CA519169   0.557   8.429   9.575  0.0859 -0.1256 -0.3943
  767THY    CM119170   0.503   8.499   9.455  0.4158  0.0438  0.0528
  767THY    HM119171   0.590   8.515   9.390 -0.1267 -0.2395 -0.7558
  767THY    HM219172   0.431   8.435   9.403  0.3128  0.4671 -0.3247
  767THY    HM319173   0.450   8.594   9.466 -0.5358 -0.1001 -2.5580
  767THY    CA619174   0.584   8.298   9.571 -0.4956  0.3388  0.1170
  767THY    HA619175   0.589   8.250   9.473  1.3036  1.7783 -0.5635
  768THY      O19176   4.711   8.753   5.929  0.6767 -0.2928  0.3119
  768THY     HO19177   4.796   8.752   5.883  0.3901 -2.3680 -0.2671
  768THY    CA119178   4.728   8.675   6.039  0.3574 -0.2150  0.5212
  768THY    CA219179   4.625   8.627   6.118 -0.1983  0.2298  0.7343
  768THY    CP119180   4.481   8.650   6.086  0.1261  0.7921  0.1276
  768THY    HP119181   4.468   8.746   6.036 -1.6690  1.0368  1.0194
  768THY    CP219182   4.451   8.519   6.011  0.2702  0.1389  0.2095
  768THY    HP219183   4.526   8.516   5.932 -0.2861  0.9673 -0.3665
  768THY    HP319184   4.454   8.428   6.072 -0.2281 -0.5640 -0.7930
  768THY    HP419185   4.356   8.534   5.958  0.4887 -0.2824 -0.3005
  768THY    CP319186   4.383   8.658   6.201 -0.1215  0.0010  1.0003
  768THY    HP519187   4.420   8.735   6.269 -1.5351 -0.0710  1.8854
  768THY    HP619188   4.292   8.702   6.159  0.2436  0.0766  0.2605
  768THY    HP719189   4.355   8.567   6.253 -2.4523  0.8828  1.3950
  768THY    CA319190   4.653   8.531   6.220  0.2408 -0.2420  0.1523
  768THY    HA319191   4.578   8.490   6.287  1.7229 -0.7100  1.6068
  768THY    CA419192   4.790   8.503   6.258 -0.1537 -0.4059 -0.7522
  768THY    HA419193   4.807   8.444   6.347 -1.7868 -1.5472 -1.1608
  768THY    CA519194   4.892   8.568   6.187 -0.6381 -0.3403  0.4694
  768THY    CM119195   5.035   8.563   6.226  0.5817 -0.3979 -0.0009
  768THY    HM119196   5.050   8.652   6.289 -2.1996  1.2826 -1.5008
  768THY    HM219197   5.060   8.475   6.285  0.7965  0.0975  0.6593
  768THY    HM319198   5.099   8.578   6.137 -0.0974  3.3413 -0.0167
  768THY    CA619199   4.859   8.649   6.071  0.1667  0.1737 -0.4129
  768THY    HA619200   4.933   8.707   6.016 -0.8326  1.5798 -0.3303
  769THY      O19201   3.464   3.270   3.048  0.8778 -0.3703 -0.1435
  769THY     HO19202   3.389   3.325   3.078 -2.5116 -3.6775 -1.6773
  769THY    CA119203   3.441   3.154   3.107 -0.3406  0.7215  0.7051
  769THY    CA219204   3.500   3.035   3.063 -0.3826 -0.4246 -0.0355
  769THY    CP119205   3.569   3.027   2.938 -0.8362 -0.1369 -0.4839
  769THY    HP119206   3.611   3.123   2.907  1.5185 -0.4159  1.5670
  769THY    CP219207   3.682   2.924   2.927  0.1663 -0.0504  0.6588
  769THY    HP219208   3.643   2.822   2.916 -0.5182  0.2971 -0.2280
  769THY    HP319209   3.721   2.927   2.825 -0.9373 -1.0935  0.1717
  769THY    HP419210   3.766   2.937   2.996 -0.2271  2.4081  0.7870
  769THY    CP319211   3.463   3.002   2.835  0.0992 -0.3956  0.2284
  769THY    HP519212   3.419   2.902   2.836  0.5240 -0.5803  0.6360
  769THY    HP619213   3.377   3.068   2.853  0.3783  0.0176  0.0784
  769THY    HP719214   3.495   3.023   2.732  0.5090  0.0381  0.4407
  769THY    CA319215   3.500   2.921   3.151  0.0252  0.2773 -0.3325
  769THY    HA319216   3.529   2.822   3.117 -2.0453  0.3145 -2.4848
  769THY    CA419217   3.436   2.937   3.276  1.0183  0.6524 -0.0813
  769THY    HA419218   3.438   2.847   3.336 -2.9285  0.5078  0.0511
  769THY    CA519219   3.373   3.052   3.320  0.6235 -0.6430 -0.0654
  769THY    CM119220   3.319   3.059   3.464  0.4890  0.0094  0.5087
  769THY    HM119221   3.267   2.968   3.492 -2.4764  1.4566  0.0560
  769THY    HM219222   3.404   3.073   3.532  0.9281 -0.3631  0.0443
  769THY    HM319223   3.246   3.141   3.465 -0.1951 -0.5117 -1.4081
  769THY    CA619224   3.374   3.159   3.229  0.8364 -0.5920  0.5519
  769THY    HA619225   3.311   3.244   3.256  1.4025  0.0326 -0.0456
  770THY      O19226   3.438   8.517   5.166 -0.3404 -0.1777 -0.0558
  770THY     HO19227   3.359   8.560   5.203 -1.4681 -1.4865 -0.8699
  770THY    CA119228   3.474   8.437   5.274  0.2526  0.1700 -0.0973
  770THY    CA219229   3.402   8.312   5.303 -0.0321  0.1659  0.1006
  770THY    CP119230   3.292   8.270   5.207  0.0217  0.3891 -0.4440
  770THY    HP119231   3.230   8.357   5.181 -0.3019  0.9737  2.0547
  770THY    CP219232   3.357   8.193   5.089  0.7753 -1.0058 -0.0770
  770THY    HP219233   3.387   8.091   5.115  0.7307 -0.7200  1.1748
  770THY    HP319234   3.285   8.194   5.006  1.6886 -1.1180 -0.8940
  770THY    HP419235   3.443   8.253   5.058 -1.6366  1.7738 -1.9150
  770THY    CP319236   3.188   8.184   5.269  0.5906  0.4535 -1.1785
  770THY    HP519237   3.090   8.197   5.220  0.1399 -1.3688 -0.8308
  770THY    HP619238   3.220   8.080   5.274 -0.1931  0.2189 -0.9015
  770THY    HP719239   3.171   8.218   5.372 -0.3926 -1.9757 -0.4588
  770THY    CA319240   3.443   8.229   5.409 -0.0532  0.3172  0.1622
  770THY    HA319241   3.389   8.140   5.438 -2.6104  1.8475  0.4272
  770THY    CA419242   3.551   8.274   5.488  0.3252 -0.0255  0.0067
  770THY    HA419243   3.586   8.219   5.575 -1.8593 -0.1877  0.8401
  770THY    CA519244   3.619   8.392   5.459  0.1882 -0.1589 -0.2367
  770THY    CM119245   3.728   8.440   5.544  0.6502  0.4365 -0.2054
  770THY    HM119246   3.776   8.533   5.510  1.5496  0.2311  0.4718
  770THY    HM219247   3.673   8.453   5.638 -0.1881 -1.0978 -0.4451
  770THY    HM319248   3.803   8.361   5.549  1.5583  1.3553  1.1164
  770THY    CA619249   3.584   8.468   5.348 -0.0431 -0.4908  0.2446
  770THY    HA619250   3.643   8.554   5.317  0.8206 -1.0158  0.4188
  771THY      O19251   1.952   9.181   1.264 -0.3138 -0.1288  0.0915
  771THY     HO19252   2.038   9.156   1.303  1.7197  1.4372 -2.9200
  771THY    CA119253   1.867   9.202   1.364 -0.1695 -0.7832 -1.2054
  771THY    CA219254   1.746   9.272   1.350 -0.0038 -0.6668 -0.2991
  771THY    CP119255   1.708   9.319   1.207  0.5212  0.5140  0.2333
  771THY    HP119256   1.746   9.253   1.128  0.3383  0.0352  0.5452
  771THY    CP219257   1.553   9.339   1.203  0.1378  0.4504  0.6438
  771THY    HP219258   1.526   9.398   1.114 -2.3369 -0.2691  0.8436
  771THY    HP319259   1.505   9.242   1.185 -1.8894  1.6262 -0.6798
  771THY    HP419260   1.505   9.391   1.287 -0.3156  0.2984  0.4826
  771THY    CP319261   1.779   9.445   1.174 -0.3813  0.5148  0.3108
  771THY    HP519262   1.735   9.497   1.088  1.5861  0.8479 -0.5483
  771THY    HP619263   1.774   9.507   1.265 -0.0060  0.7304  0.1868
  771THY    HP719264   1.883   9.420   1.149 -0.1619 -1.3092  2.6699
  771THY    CA319265   1.673   9.292   1.467  0.7690 -0.1743  0.3528
  771THY    HA319266   1.580   9.348   1.467 -0.2470 -1.8013  0.7078
  771THY    CA419267   1.711   9.233   1.587 -0.3698  0.4797 -1.2413
  771THY    HA419268   1.647   9.249   1.673  0.2882  0.4298 -0.7301
  771THY    CA519269   1.832   9.162   1.601 -0.2443  0.2256 -0.2723
  771THY    CM119270   1.862   9.091   1.731  0.1051 -0.4514  0.2711
  771THY    HM119271   1.931   9.147   1.795  1.0115 -0.1789 -0.9054
  771THY    HM219272   1.779   9.092   1.803  1.9979  0.7321  2.5909
  771THY    HM319273   1.901   8.990   1.717 -0.5335 -0.7994  0.9473
  771THY    CA619274   1.909   9.150   1.491  1.1568  0.6467  0.2553
  771THY    HA619275   2.000   9.092   1.501 -0.2269 -1.4205  1.4336
  772THY      O19276   2.438   3.608   7.587  0.0907  0.0445 -0.3110
  772THY     HO19277   2.488   3.525   7.594 -0.1070  0.0500  2.6961
  772THY    CA119278   2.358   3.602   7.482  0.2955 -0.6249  0.6550
  772THY    CA219279   2.238   3.667   7.470 -0.5736  0.1732 -0.7107
  772THY    CP119280   2.181   3.755   7.587  0.1757 -0.1134  0.7099
  772THY    HP119281   2.256   3.736   7.664  1.6605  0.2223 -0.6068
  772THY    CP219282   2.168   3.905   7.570 -0.1022  0.8245 -0.0734
  772THY    HP219283   2.127   3.916   7.469  0.3581 -0.0963 -0.3706
  772THY    HP319284   2.103   3.954   7.643 -0.4804 -0.1770  0.2785
  772THY    HP419285   2.267   3.952   7.576  0.5538 -0.4844 -0.3187
  772THY    CP319286   2.049   3.705   7.639 -0.1822  0.2205 -0.4894
  772THY    HP519287   2.064   3.601   7.668 -0.6336  0.2140 -0.2676
  772THY    HP619288   2.006   3.762   7.723  2.5083 -1.6357  2.3833
  772THY    HP719289   1.979   3.705   7.555 -1.9874  1.6646  0.9213
  772THY    CA319290   2.162   3.647   7.350  0.4220 -0.4988 -0.3018
  772THY    HA319291   2.067   3.697   7.335  1.3705  1.0687 -1.3674
  772THY    CA419292   2.206   3.563   7.241  0.1987  0.4124  0.2218
  772THY    HA419293   2.141   3.546   7.156  1.2295  0.7177 -0.6523
  772THY    CA519294   2.331   3.506   7.256  0.5332  0.5204 -0.3974
  772THY    CM119295   2.406   3.435   7.150 -0.2993  0.5704 -0.4014
  772THY    HM119296   2.331   3.413   7.073 -2.2909 -2.9769  2.2159
  772THY    HM219297   2.494   3.491   7.117  0.5980 -0.4734  0.1216
  772THY    HM319298   2.433   3.333   7.182  0.7239  1.2914  1.1895
  772THY    CA619299   2.401   3.524   7.372  0.2997  0.1061  0.2966
  772THY    HA619300   2.497   3.474   7.387  0.0853 -0.6678 -0.8072
  773THY      O19301   8.519   8.412   5.613  0.0614  0.9420  1.3687
  773THY     HO19302   8.521   8.404   5.516 -1.8947 -1.0115  1.3933
  773THY    CA119303   8.571   8.524   5.649  0.3591  0.3323  0.2853
  773THY    CA219304   8.515   8.603   5.751 -0.3071  1.6980  1.1565
  773THY    CP119305   8.401   8.552   5.839  0.7671 -0.1074  0.2484
  773THY    HP119306   8.375   8.447   5.819 -0.6546 -0.0235  1.4768
  773THY    CP219307   8.417   8.587   5.986  0.7074 -0.3495 -0.0441
  773THY    HP219308   8.323   8.554   6.031  0.5780 -1.0887 -0.8250
  773THY    HP319309   8.495   8.536   6.044  0.9191 -1.3376 -1.1504
  773THY    HP419310   8.422   8.696   5.997  1.0255 -0.1876 -1.5675
  773THY    CP319311   8.283   8.629   5.785  1.0757  0.0867  0.7258
  773THY    HP519312   8.189   8.607   5.838 -0.5036  0.3881 -1.7552
  773THY    HP619313   8.296   8.737   5.771  1.5320 -0.2264 -1.7801
  773THY    HP719314   8.258   8.592   5.684  1.8062 -0.9000  0.8955
  773THY    CA319315   8.563   8.731   5.773 -0.7020  0.6621 -0.2130
  773THY    HA319316   8.508   8.797   5.840 -2.1232  0.3102 -1.0093
  773THY    CA419317   8.660   8.782   5.685  0.8685  0.4343 -1.2524
  773THY    HA419318   8.691   8.885   5.694  0.3858  0.4939 -0.1071
  773THY    CA519319   8.727   8.698   5.589 -0.1119 -0.2134  0.4319
  773THY    CM119320   8.836   8.761   5.497  0.6996  1.1572 -0.3902
  773THY    HM119321   8.803   8.844   5.434  0.2011  1.1907 -0.0984
  773THY    HM219322   8.927   8.802   5.542 -0.9517  0.8869  3.6871
  773THY    HM319323   8.874   8.683   5.430 -1.8823 -0.4346 -0.1494
  773THY    CA619324   8.679   8.572   5.574  0.2440  0.0429  0.4313
  773THY    HA619325   8.726   8.516   5.493 -0.4705  1.4474 -1.0171
  774THY      O19326   2.690   4.502   2.977  0.5675 -0.5795 -0.0227
  774THY     HO19327   2.631   4.538   3.046 -1.0827 -2.3796 -0.4041
  774THY    CA119328   2.677   4.368   2.994 -0.0134 -0.0608 -0.0175
  774THY    CA219329   2.736   4.272   2.911  0.1313  0.1339 -0.6688
  774THY    CP119330   2.832   4.315   2.799  0.4434 -0.4394  0.0536
  774THY    HP119331   2.838   4.424   2.804  2.4767 -0.4855 -0.7880
  774THY    CP219332   2.984   4.270   2.829  0.4364  0.2188  0.1795
  774THY    HP219333   3.044   4.309   2.745  0.7147  0.0050  0.2765
  774THY    HP319334   3.028   4.310   2.921  2.3923  0.1983 -0.6867
  774THY    HP419335   2.995   4.162   2.835 -0.6332  0.0539 -0.5335
  774THY    CP319336   2.794   4.270   2.660  0.3261  0.5135  0.3054
  774THY    HP519337   2.819   4.164   2.645 -3.2191 -0.2557 -1.4495
  774THY    HP619338   2.685   4.278   2.654  0.3873  1.1159 -0.0797
  774THY    HP719339   2.839   4.333   2.583  2.9181 -1.0000  0.4593
  774THY    CA319340   2.714   4.136   2.933 -0.1800 -0.2530  0.0707
  774THY    HA319341   2.752   4.059   2.867  2.3053 -0.9591  2.1839
  774THY    CA419342   2.629   4.104   3.043  0.1279  0.4867  0.3322
  774THY    HA419343   2.608   3.997   3.054 -0.9486  0.7014  0.5011
  774THY    CA519344   2.579   4.196   3.133 -0.0924  0.1124  0.7423
  774THY    CM119345   2.496   4.161   3.256  0.2176  0.8503  0.0557
  774THY    HM119346   2.531   4.068   3.301  0.9951  1.5719  0.9876
  774THY    HM219347   2.490   4.237   3.335  1.7930 -0.7794  1.8370
  774THY    HM319348   2.391   4.142   3.230  0.1126 -1.8707  1.9689
  774THY    CA619349   2.599   4.328   3.104  0.3016 -0.4069 -0.4764
  774THY    HA619350   2.550   4.405   3.162 -2.1142 -2.9593  1.1450
  775THY      O19351   1.610   8.004   0.944  0.2825 -0.2598 -0.0665
  775THY     HO19352   1.578   7.923   0.987  1.5440 -0.3753  0.7021
  775THY    CA119353   1.561   7.994   0.817  0.2470  0.4172  0.0017
  775THY    CA219354   1.623   8.057   0.712 -0.7502  0.6496  0.3700
  775THY    CP119355   1.768   8.128   0.734 -0.0612 -0.2362  0.1213
  775THY    HP119356   1.823   8.086   0.819  2.0898  2.1127 -0.0205
  775THY    CP219357   1.863   8.095   0.615 -0.0574  0.1167  0.4671
  775THY    HP219358   1.969   8.110   0.636  0.2155 -1.2500  0.2002
  775THY    HP319359   1.859   7.990   0.582  2.4161  1.0382 -3.5088
  775THY    HP419360   1.835   8.138   0.518  0.1923 -0.0383  0.3252
  775THY    CP319361   1.753   8.276   0.768  0.2087 -0.1193 -0.6799
  775THY    HP519362   1.706   8.331   0.686  0.9977  1.0745 -0.3603
  775THY    HP619363   1.687   8.281   0.856  1.4252  1.2437  0.2099
  775THY    HP719364   1.853   8.314   0.791  0.2881 -0.3212 -0.6879
  775THY    CA319365   1.570   8.043   0.577  0.2214  0.6406 -0.3430
  775THY    HA319366   1.625   8.083   0.493  0.5832  3.4269  1.0895
  775THY    CA419367   1.449   7.967   0.558  0.2882  0.0640  0.7379
  775THY    HA419368   1.411   7.942   0.459  1.0029 -0.4236  0.5800
  775THY    CA519369   1.395   7.905   0.676  0.1139  0.3860  0.4525
  775THY    CM119370   1.284   7.812   0.667 -0.7057 -0.1452  0.0010
  775THY    HM119371   1.205   7.848   0.733 -0.4704  1.3968 -0.5167
  775THY    HM219372   1.236   7.807   0.569 -0.4819  2.8389 -0.3582
  775THY    HM319373   1.320   7.712   0.693  1.8929  0.2425 -1.6813
  775THY    CA619374   1.453   7.916   0.800  0.4492 -0.1407  0.3415
  775THY    HA619375   1.403   7.870   0.885  0.6513  0.2333  0.6659
  776THY      O19376   5.102   3.810   2.669  0.2403  0.9987  0.3786
  776THY     HO19377   5.176   3.874   2.671 -0.6909  2.0782  1.8752
  776THY    CA119378   5.151   3.698   2.717  0.1338  0.5421  0.3308
  776THY    CA219379   5.073   3.582   2.725 -0.1566 -0.0919 -0.1242
  776THY    CP119380   4.917   3.587   2.703  0.3145 -0.2907 -0.2547
  776THY    HP119381   4.894   3.694   2.695  2.4449  0.3335  1.1474
  776THY    CP219382   4.865   3.529   2.576 -0.1219 -0.3083  0.4271
  776THY    HP219383   4.931   3.557   2.492 -0.9299  3.1676  0.8103
  776THY    HP319384   4.861   3.419   2.581 -3.3968 -0.3141 -0.3065
  776THY    HP419385   4.768   3.570   2.547  1.1687  2.2307 -0.6459
  776THY    CP319386   4.834   3.538   2.826  0.5011 -0.2494  0.1390
  776THY    HP519387   4.784   3.446   2.794  1.5844 -0.9944  0.5222
  776THY    HP619388   4.890   3.517   2.918  1.5756  0.5130 -0.3291
  776THY    HP719389   4.754   3.609   2.849  0.8797 -0.1180  1.1044
  776THY    CA319390   5.134   3.465   2.779 -0.8706  0.4181  0.2868
  776THY    HA319391   5.072   3.382   2.812 -0.5340 -0.3146 -0.8443
  776THY    CA419392   5.272   3.462   2.808 -0.3963  0.0225  0.1574
  776THY    HA419393   5.320   3.380   2.861  1.0378  1.6959  1.6019
  776THY    CA519394   5.349   3.584   2.794 -0.4281 -0.0520  0.5221
  776THY    CM119395   5.497   3.588   2.818  0.1061 -0.4713 -0.1029
  776THY    HM119396   5.512   3.671   2.888 -2.0260 -0.4949  0.4514
  776THY    HM219397   5.516   3.491   2.866 -0.5535  0.3225  1.8410
  776THY    HM319398   5.552   3.593   2.723 -0.8005  0.3605 -0.6094
  776THY    CA619399   5.288   3.697   2.743  0.1001 -0.4499  0.3798
  776THY    HA619400   5.347   3.786   2.728  1.3307 -1.3494 -0.2594
  777THY      O19401   3.907   3.720   6.169 -0.0071  0.2006 -0.2669
  777THY     HO19402   3.901   3.623   6.179  1.1725  0.0640 -0.7514
  777THY    CA119403   3.790   3.749   6.105  0.1035 -0.3423 -0.3418
  777THY    CA219404   3.766   3.882   6.054 -0.1105  0.2019 -0.5159
  777THY    CP119405   3.867   3.994   6.069  0.2401 -0.2267 -0.6429
  777THY    HP119406   3.901   3.984   6.173 -3.9831 -1.3847  0.8613
  777THY    CP219407   3.990   3.970   5.977 -0.8346 -0.1952  0.2480
  777THY    HP219408   3.949   3.947   5.878 -0.8226 -1.1278  0.4470
  777THY    HP319409   4.045   4.063   5.958 -1.6216  0.2419  0.1112
  777THY    HP419410   4.060   3.891   6.009 -0.3640 -0.0813 -0.4486
  777THY    CP319411   3.811   4.137   6.055  0.2831 -0.6461 -0.0317
  777THY    HP519412   3.816   4.170   5.951 -0.4265  1.0540  0.4431
  777THY    HP619413   3.705   4.142   6.080  0.6776  2.6270  1.4454
  777THY    HP719414   3.855   4.215   6.119 -1.3381  0.3686 -0.1133
  777THY    CA319415   3.646   3.897   5.982  0.1420 -0.2272 -0.4817
  777THY    HA319416   3.634   3.995   5.936  1.6576  0.1990 -0.0246
  777THY    CA419417   3.552   3.790   5.964 -0.4289  0.0189 -0.3942
  777THY    HA419418   3.461   3.815   5.910 -0.3932 -0.2447 -0.5768
  777THY    CA519419   3.575   3.664   6.025  0.4264  0.2475  0.7681
  777THY    CM119420   3.485   3.547   6.007  0.7115  0.5897 -0.9404
  777THY    HM119421   3.395   3.562   6.067 -0.6760 -1.0690 -2.4798
  777THY    HM219422   3.461   3.533   5.900  3.6675  0.9272 -1.7348
  777THY    HM319423   3.530   3.455   6.047 -3.6775  0.2289  4.2606
  777THY    CA619424   3.694   3.655   6.105 -0.1815 -0.2647 -0.7002
  777THY    HA619425   3.713   3.559   6.153  1.8350  0.8734  0.9226
  778THY      O19426   7.777   9.605   5.330  0.3605  0.2457 -0.5785
  778THY     HO19427   7.874   9.611   5.336  0.3274  0.4650 -0.2243
  778THY    CA119428   7.746   9.481   5.382  0.3655 -0.3503  0.4295
  778THY    CA219429   7.610   9.456   5.415 -0.2153 -0.1122  0.4919
  778THY    CP119430   7.504   9.568   5.409  0.4157  0.0579 -0.3378
  778THY    HP119431   7.542   9.667   5.382  0.4100 -0.2664 -1.5944
  778THY    CP219432   7.398   9.537   5.296 -0.0840 -0.2210  0.8239
  778THY    HP219433   7.354   9.437   5.308 -0.2006 -0.1247  1.2384
  778THY    HP319434   7.307   9.597   5.299 -0.3576 -0.2988 -2.5190
  778THY    HP419435   7.436   9.544   5.194 -0.0372  0.2190  0.8701
  778THY    CP319436   7.430   9.594   5.537  0.0671 -0.5648  0.2304
  778THY    HP519437   7.497   9.596   5.624  0.0509  0.2650  0.2280
  778THY    HP619438   7.364   9.681   5.529 -1.2406 -1.6021 -0.6987
  778THY    HP719439   7.360   9.512   5.557 -0.5145  0.6867  4.3447
  778THY    CA319440   7.565   9.325   5.448 -0.0626  0.0469 -0.0403
  778THY    HA319441   7.459   9.306   5.460  0.0189  0.2984  1.2328
  778THY    CA419442   7.662   9.219   5.455  0.6815 -0.3720  0.1701
  778THY    HA419443   7.639   9.122   5.497 -1.0959  1.0085  2.6988
  778THY    CA519444   7.798   9.237   5.430 -0.1235 -0.1899 -0.1151
  778THY    CM119445   7.906   9.134   5.445 -0.1541  0.1135  0.4975
  778THY    HM119446   7.998   9.172   5.490  1.3794 -2.2320 -0.4280
  778THY    HM219447   7.865   9.049   5.501 -2.5001  1.6420  1.2256
  778THY    HM319448   7.934   9.100   5.344 -1.9454 -0.8636  0.2948
  778THY    CA619449   7.830   9.367   5.380 -0.4501  0.2064 -0.9180
  778THY    HA619450   7.932   9.389   5.349 -1.1823  1.2887 -2.6494
  779THY      O19451   4.827   1.943   6.110 -0.0926 -0.0004  0.2323
  779THY     HO19452   4.778   1.918   6.191 -0.9187 -0.4872 -0.4014
  779THY    CA119453   4.958   1.937   6.149  0.3159  0.4746 -0.0333
  779THY    CA219454   5.062   1.993   6.075 -0.7924 -0.1974  0.4139
  779THY    CP119455   5.033   2.059   5.940  0.8978 -0.2402  0.4059
  779THY    HP119456   4.927   2.073   5.919  0.6950 -1.6670  0.4021
  779THY    CP219457   5.106   2.196   5.918 -0.0972 -0.2389 -0.1920
  779THY    HP219458   5.212   2.168   5.914  0.0129 -0.2086  1.7451
  779THY    HP319459   5.062   2.244   5.830  0.4354  0.5953 -0.0124
  779THY    HP419460   5.095   2.255   6.010  1.1488 -1.6599  0.9351
  779THY    CP319461   5.065   1.963   5.822 -0.5615  0.6450 -0.1607
  779THY    HP519462   5.012   1.867   5.829  0.3519 -0.3236 -4.2648
  779THY    HP619463   5.051   2.024   5.732 -1.3400  0.0492 -0.4511
  779THY    HP719464   5.169   1.940   5.848 -1.3529 -0.3278  2.4817
  779THY    CA319465   5.193   1.982   6.127  1.1918  0.3005 -0.1385
  779THY    HA319466   5.272   2.035   6.073  0.6025 -0.1343 -1.4796
  779THY    CA419467   5.217   1.916   6.243 -0.6929  0.3513 -0.1278
  779THY    HA419468   5.319   1.897   6.277 -0.8729  0.1560  0.3110
  779THY    CA519469   5.108   1.863   6.320 -0.2671  0.6184 -0.2363
  779THY    CM119470   5.130   1.808   6.457 -0.1679  0.2293  0.3914
  779THY    HM119471   5.067   1.862   6.528 -0.3157 -1.6558  1.7812
  779THY    HM219472   5.113   1.700   6.464  0.3920  0.0754 -0.4724
  779THY    HM319473   5.237   1.815   6.480  0.1333 -1.1202 -0.4542
  779THY    CA619474   4.977   1.873   6.269 -0.2843  0.4162  0.1357
  779THY    HA619475   4.899   1.836   6.335  0.8702 -0.8571  0.8501
  780THY      O19476   0.326   1.194   6.049  0.0306 -0.7592 -0.1576
  780THY     HO19477   0.336   1.240   5.964 -2.1454  1.9865  0.9144
  780THY    CA119478   0.241   1.279   6.116 -0.2757  0.3852  1.4033
  780THY    CA219479   0.227   1.283   6.252  0.7153  0.0432  0.1432
  780THY    CP119480   0.303   1.196   6.337  0.2019  0.4627 -0.8066
  780THY    HP119481   0.369   1.135   6.274 -1.4318 -1.5739 -0.6684
  780THY    CP219482   0.391   1.261   6.447 -0.2290  0.8985  0.2021
  780THY    HP219483   0.450   1.334   6.390 -0.0635 -0.3684 -1.3180
  780THY    HP319484   0.330   1.314   6.521 -2.1501  0.7680 -1.2060
  780THY    HP419485   0.451   1.175   6.480 -1.1470 -1.4508 -3.5735
  780THY    CP319486   0.209   1.092   6.404  0.4525 -0.3483 -0.0333
  780THY    HP519487   0.269   1.016   6.455  1.5093  0.6614  0.2987
  780THY    HP619488   0.136   1.139   6.471  0.5351 -1.3751  0.7951
  780THY    HP719489   0.152   1.040   6.327  0.0688  0.7573 -0.5263
  780THY    CA319490   0.129   1.370   6.302  0.4746 -0.6505 -0.1111
  780THY    HA319491   0.110   1.369   6.409 -0.7565 -1.0113 -0.3101
  780THY    CA419492   0.062   1.455   6.218  0.4790  0.2391 -0.6408
  780THY    HA419493  -0.004   1.535   6.251 -0.9301 -0.5584 -1.4270
  780THY    CA519494   0.072   1.442   6.081 -0.1281 -0.3744  0.1434
  780THY    CM119495   0.007   1.541   5.982 -0.2309  0.3056  0.3496
  780THY    HM119496  -0.090   1.501   5.953 -0.5181  0.6656  0.8098
  780THY    HM219497  -0.004   1.639   6.030  3.1327  0.3283  1.3222
  780THY    HM319498   0.082   1.554   5.902 -1.8425  0.2552 -1.2279
  780THY    CA619499   0.164   1.355   6.031  0.2282  0.7275  0.9272
  780THY    HA619500   0.184   1.352   5.924  2.0041  0.4454  1.2333
  781THY      O19501   5.383   3.309   8.542 -0.4818  0.0025 -0.3708
  781THY     HO19502   5.307   3.294   8.601 -1.3643 -0.9530 -1.6633
  781THY    CA119503   5.332   3.292   8.418 -0.2210 -0.2879  0.7824
  781THY    CA219504   5.404   3.266   8.311 -0.2439 -0.0874  0.1532
  781THY    CP119505   5.556   3.245   8.332  0.7017 -0.2885  0.3613
  781THY    HP119506   5.582   3.229   8.437  0.4756 -1.9687  0.1779
  781THY    CP219507   5.588   3.110   8.259 -0.1391  0.1194 -0.5074
  781THY    HP219508   5.693   3.080   8.271  0.2097  1.0258 -1.1269
  781THY    HP319509   5.529   3.022   8.287 -2.1331  1.2345 -0.9906
  781THY    HP419510   5.571   3.128   8.152  0.0769  0.0144 -0.5607
  781THY    CP319511   5.647   3.357   8.283  0.1000 -0.2761  0.4892
  781THY    HP519512   5.599   3.454   8.301 -0.2688 -0.5750  1.1567
  781THY    HP619513   5.743   3.365   8.336 -1.1774 -2.4764  3.4038
  781THY    HP719514   5.662   3.351   8.174 -1.4905  1.5309  0.1040
  781THY    CA319515   5.343   3.259   8.184 -0.3151 -0.1620 -0.2796
  781THY    HA319516   5.402   3.251   8.094  1.4891 -2.5725  1.0101
  781THY    CA419517   5.208   3.292   8.169  0.1970  0.7320 -0.6063
  781THY    HA419518   5.171   3.294   8.067  1.5726  2.8381 -1.1241
  781THY    CA519519   5.135   3.322   8.282  0.5710  0.3567 -0.0619
  781THY    CM119520   4.990   3.371   8.268  0.2519 -0.2319 -0.0258
  781THY    HM119521   5.003   3.479   8.261 -2.8869  0.1706 -1.2939
  781THY    HM219522   4.939   3.334   8.178 -2.3847 -0.5202  1.5069
  781THY    HM319523   4.928   3.348   8.355 -0.3911  1.4800  0.0105
  781THY    CA619524   5.192   3.316   8.406 -0.3522 -0.6252 -0.1111
  781THY    HA619525   5.131   3.334   8.494 -2.0653 -1.1489 -1.1377
  782THY      O19526   8.746   8.041   1.485 -0.0931 -0.4021  0.0536
  782THY     HO19527   8.799   8.080   1.557 -1.3074  2.5941 -0.5162
  782THY    CA119528   8.780   8.126   1.382  0.2601 -0.3245  0.3156
  782THY    CA219529   8.702   8.149   1.270  0.7617  0.0590  0.5660
  782THY    CP119530   8.564   8.082   1.258  0.6661  0.2095 -0.4405
  782THY    HP119531   8.563   7.982   1.303  0.8210 -1.1268 -3.1927
  782THY    CP219532   8.453   8.172   1.321  0.1913 -0.3923  0.1413
  782THY    HP219533   8.478   8.192   1.426  1.1463  1.0930 -0.3390
  782THY    HP319534   8.457   8.262   1.259 -0.7336 -0.6964 -0.3719
  782THY    HP419535   8.357   8.120   1.316 -0.3626  0.6517 -0.1403
  782THY    CP319536   8.537   8.048   1.110 -0.1619 -0.0077 -0.9890
  782THY    HP519537   8.516   8.124   1.034 -0.4199 -1.1472 -2.0962
  782THY    HP619538   8.624   7.994   1.070  1.2841  1.1390  0.4729
  782THY    HP719539   8.445   7.988   1.101  0.2395 -1.0801  1.3274
  782THY    CA319540   8.738   8.253   1.181  0.3071  0.3043  0.1841
  782THY    HA319541   8.672   8.279   1.099 -0.4021  0.3735  0.7683
  782THY    CA419542   8.859   8.326   1.207 -0.1992 -0.3373  0.4564
  782THY    HA419543   8.897   8.404   1.143 -1.8444 -0.6068 -0.9281
  782THY    CA519544   8.944   8.293   1.310  0.0902  0.2352 -0.3144
  782THY    CM119545   9.084   8.342   1.340 -0.2222 -0.0144  0.5837
  782THY    HM119546   9.076   8.452   1.340  2.9408  0.3307  0.4062
  782THY    HM219547   9.122   8.306   1.437 -0.9478 -2.6765 -0.0500
  782THY    HM319548   9.155   8.309   1.264  0.3415  0.5087  0.8649
  782THY    CA619549   8.898   8.194   1.398 -0.5301  0.1416 -0.0669
  782THY    HA619550   8.957   8.155   1.480  1.8704 -0.1271 -1.8317
  783THY      O19551   7.594   6.888   6.710 -0.1684  0.2916 -0.2754
  783THY     HO19552   7.551   6.862   6.627  1.7601 -0.6749 -1.0354
  783THY    CA119553   7.651   7.002   6.676 -0.9991  0.1402 -0.2243
  783THY    CA219554   7.745   7.070   6.765 -0.4711 -0.6103 -0.2074
  783THY    CP119555   7.792   7.001   6.897 -0.6839  0.2950  0.3916
  783THY    HP119556   7.699   6.960   6.937 -0.7073 -0.0156  0.0202
  783THY    CP219557   7.888   6.886   6.874  0.2247  0.5408 -0.0706
  783THY    HP219558   7.833   6.830   6.797  0.3889  0.8786 -0.4398
  783THY    HP319559   7.982   6.919   6.828 -0.6453  2.3181 -0.6754
  783THY    HP419560   7.902   6.834   6.969 -0.1867 -1.3763 -1.0027
  783THY    CP319561   7.847   7.090   7.009 -0.3860  0.4228  0.5072
  783THY    HP519562   7.768   7.161   7.034 -1.9457 -0.5018 -1.4558
  783THY    HP619563   7.878   7.030   7.096 -0.8639 -0.7603 -0.1072
  783THY    HP719564   7.941   7.138   6.980  0.2566 -1.0058  0.1310
  783THY    CA319565   7.798   7.195   6.728 -0.3077  0.2672 -0.3770
  783THY    HA319566   7.857   7.253   6.799 -1.7525 -1.3710  2.3326
  783THY    CA419567   7.774   7.250   6.600 -0.0578 -0.1162  0.0342
  783THY    HA419568   7.820   7.342   6.565  0.2940 -0.7598 -1.2508
  783THY    CA519569   7.689   7.183   6.517  0.3354  0.0695  1.0952
  783THY    CM119570   7.650   7.250   6.384  0.3375  0.0047  0.0138
  783THY    HM119571   7.544   7.233   6.361  0.1642  0.8329  0.1825
  783THY    HM219572   7.653   7.359   6.394 -1.5033  0.5606 -3.6318
  783THY    HM319573   7.715   7.221   6.301 -0.2877 -0.0988 -0.4460
  783THY    CA619574   7.627   7.064   6.545 -0.8704 -0.5551 -0.4323
  783THY    HA619575   7.561   7.012   6.476  0.0766 -1.4463 -0.6859
  784THY      O19576   4.784   7.782   5.703 -0.1836  0.4732  0.1549
  784THY     HO19577   4.822   7.856   5.754 -3.2060  0.3344  2.9466
  784THY    CA119578   4.662   7.833   5.675  0.0582 -1.0182  0.1257
  784THY    CA219579   4.549   7.756   5.673  0.2500 -0.3393 -0.3277
  784THY    CP119580   4.540   7.602   5.703 -0.0949  0.2592 -0.5647
  784THY    HP119581   4.641   7.562   5.718 -0.5819 -0.6923  0.3211
  784THY    CP219582   4.463   7.572   5.837  0.4399  0.3077  0.0364
  784THY    HP219583   4.445   7.466   5.859 -1.6273  0.6169  0.0495
  784THY    HP319584   4.498   7.619   5.930 -0.1807  0.4787  0.1925
  784THY    HP419585   4.359   7.607   5.841  0.4423  0.4576  4.4664
  784THY    CP319586   4.474   7.522   5.593  0.5036 -0.1906  0.1870
  784THY    HP519587   4.463   7.419   5.628 -1.3717 -0.1345 -0.1406
  784THY    HP619588   4.369   7.548   5.574  0.3405 -1.6095 -1.1083
  784THY    HP719589   4.521   7.533   5.494 -1.1763 -1.9668 -0.8862
  784THY    CA319590   4.436   7.823   5.636 -0.2448 -0.3626 -0.0368
  784THY    HA319591   4.340   7.774   5.643 -0.9277  0.7013 -1.5021
  784THY    CA419592   4.428   7.959   5.609 -0.4956 -0.7923 -0.5161
  784THY    HA419593   4.329   8.005   5.604 -0.1938 -0.1281 -0.5331
  784THY    CA519594   4.546   8.037   5.612 -0.2792  0.4053  0.0787
  784THY    CM119595   4.534   8.185   5.571 -0.3168 -0.3596  0.1948
  784THY    HM119596   4.635   8.226   5.557 -1.5195  2.3546 -1.5373
  784THY    HM219597   4.494   8.204   5.471  0.1569  0.8012  0.2004
  784THY    HM319598   4.486   8.252   5.644  2.8956  2.6176 -0.1353
  784THY    CA619599   4.667   7.969   5.639  0.0111 -0.1095  0.3586
  784THY    HA619600   4.763   8.020   5.637 -0.3580  0.9827  3.8866
  785THY      O19601   0.617   5.054   4.366 -0.1574 -0.6808 -0.5206
  785THY     HO19602   0.688   5.086   4.309 -1.1947  1.5178 -0.7070
  785THY    CA119603   0.506   5.049   4.287  0.8866  0.5089 -0.9690
  785THY    CA219604   0.374   5.085   4.324 -0.3466 -0.6198 -0.0081
  785THY    CP119605   0.349   5.116   4.471 -0.5518 -0.2017  0.1968
  785THY    HP119606   0.442   5.141   4.524 -1.0079 -1.3077  1.5751
  785THY    CP219607   0.266   5.246   4.480  0.4934  0.7159 -0.3695
  785THY    HP219608   0.173   5.231   4.425  0.9290 -1.5138 -0.5736
  785THY    HP319609   0.249   5.267   4.586 -0.8328 -0.6246 -0.2840
  785THY    HP419610   0.320   5.333   4.440 -0.6024  1.1750 -0.9116
  785THY    CP319611   0.273   5.003   4.539 -0.2356 -0.2985  0.3064
  785THY    HP519612   0.319   4.908   4.513 -1.3567 -0.4055 -1.5105
  785THY    HP619613   0.270   5.006   4.648  2.3219  0.1283  0.4280
  785THY    HP719614   0.170   4.997   4.502 -0.6791  1.4533  1.1199
  785THY    CA319615   0.271   5.078   4.230  0.0406 -0.4131  0.1703
  785THY    HA319616   0.166   5.103   4.246 -0.2729 -0.6135 -1.4355
  785THY    CA419617   0.301   5.035   4.100  0.3375  0.0157 -0.2624
  785THY    HA419618   0.223   5.030   4.025 -1.2692  1.1221  1.2471
  785THY    CA519619   0.423   4.995   4.065 -0.1897  1.0334 -0.4995
  785THY    CM119620   0.444   4.950   3.922  0.1341 -0.1267  0.0454
  785THY    HM119621   0.359   4.901   3.873  1.5399 -1.4417 -1.1949
  785THY    HM219622   0.463   5.039   3.861 -0.7590 -0.8668 -1.3657
  785THY    HM319623   0.528   4.885   3.897  1.2359  1.1146  0.3968
  785THY    CA619624   0.527   5.004   4.159  0.5626 -0.4396  0.9309
  785THY    HA619625   0.623   4.964   4.127 -0.4071 -0.4798 -2.2913
  786THY      O19626   7.551   0.376   0.931  0.3353 -0.2609  0.3503
  786THY     HO19627   7.559   0.460   0.979 -1.5743 -0.1302  0.4804
  786THY    CA119628   7.672   0.321   0.936  0.3583 -0.6491 -0.1341
  786THY    CA219629   7.701   0.187   0.926  0.7211 -0.1458 -0.4413
  786THY    CP119630   7.595   0.084   0.915  0.8048  0.4177  0.5744
  786THY    HP119631   7.509   0.114   0.975  1.4887 -0.0801  1.8526
  786THY    CP219632   7.554   0.064   0.767 -0.2093  0.0464 -0.1885
  786THY    HP219633   7.621  -0.003   0.711 -0.3593  0.2163 -0.5760
  786THY    HP319634   7.460   0.007   0.765 -0.5851  0.5551  1.4609
  786THY    HP419635   7.553   0.161   0.716  1.0591 -0.1298 -0.5904
  786THY    CP319636   7.627  -0.054   0.969  0.4091  0.2230 -0.0696
  786THY    HP519637   7.537  -0.116   0.976  0.9477 -0.7078 -1.2462
  786THY    HP619638   7.694  -0.111   0.904 -0.6788  1.1907 -2.1369
  786THY    HP719639   7.681  -0.046   1.064  0.8832 -0.7058 -0.2507
  786THY    CA319640   7.841   0.148   0.932 -0.3522  0.4205  0.2905
  786THY    HA319641   7.869   0.043   0.925  0.8796  0.8019 -0.6567
  786THY    CA419642   7.934   0.247   0.946 -0.0935 -0.1145  0.3239
  786THY    HA419643   8.037   0.216   0.954  0.0629 -0.0143 -1.0460
  786THY    CA519644   7.902   0.380   0.960 -0.0733 -0.0507 -0.0066
  786THY    CM119645   8.002   0.493   0.977  0.0211  0.9870  0.5730
  786THY    HM119646   7.975   0.558   1.061 -0.4640 -0.9985  2.0483
  786THY    HM219647   8.107   0.467   0.999  0.0605  2.4054  2.2584
  786THY    HM319648   7.995   0.553   0.886 -2.7344 -1.0457 -0.6787
  786THY    CA619649   7.765   0.418   0.965 -0.6191 -0.3461  0.5874
  786THY    HA619650   7.747   0.525   0.957 -0.4932 -0.1954  2.0367
  787THY      O19651   3.571   6.868   3.650 -0.3351 -0.1801 -0.1974
  787THY     HO19652   3.646   6.814   3.620  0.2448  1.0108 -0.9481
  787THY    CA119653   3.562   6.980   3.573  0.1127  0.2131 -0.1884
  787THY    CA219654   3.545   7.112   3.625 -0.4186 -0.1276  0.8303
  787THY    CP119655   3.536   7.130   3.778 -0.3760  0.1221  0.2351
  787THY    HP119656   3.518   7.033   3.825  2.3434 -0.5240  0.1002
  787THY    CP219657   3.665   7.183   3.839 -0.7102 -0.0213 -0.5986
  787THY    HP219658   3.669   7.291   3.857  1.5162 -0.0864 -0.4255
  787THY    HP319659   3.674   7.129   3.935  0.4111 -1.3316 -1.4146
  787THY    HP419660   3.755   7.152   3.785  0.1977 -0.6472  1.1884
  787THY    CP319661   3.421   7.214   3.831  0.1729  0.6686  0.8475
  787THY    HP519662   3.421   7.198   3.940  2.2651  0.3140  0.8333
  787THY    HP619663   3.450   7.315   3.800  1.4525 -0.1414 -0.7153
  787THY    HP719664   3.326   7.191   3.782 -0.4742  0.6918  2.0428
  787THY    CA319665   3.550   7.226   3.532 -0.7174  0.2673 -0.2048
  787THY    HA319666   3.539   7.328   3.568 -0.0935 -0.7625  3.2758
  787THY    CA419667   3.560   7.195   3.399 -0.1006 -0.3359  0.2969
  787THY    HA419668   3.566   7.273   3.324 -2.3478 -0.6768 -0.3033
  787THY    CA519669   3.581   7.064   3.349  0.0330  0.0155  0.0481
  787THY    CM119670   3.573   7.038   3.203 -0.2484  0.1128  1.1785
  787THY    HM119671   3.672   7.051   3.159 -0.9712 -0.6409 -0.7966
  787THY    HM219672   3.542   6.933   3.191 -0.8965  0.4879 -0.6448
  787THY    HM319673   3.495   7.097   3.154  1.5359  0.7351 -1.0629
  787THY    CA619674   3.592   6.958   3.437  0.3855  0.1112  0.8272
  787THY    HA619675   3.635   6.863   3.405 -1.3980  0.3178 -2.6275
  788THY      O19676   3.601   1.399   9.645 -0.8267 -0.1187  0.1563
  788THY     HO19677   3.682   1.345   9.658  0.1245  0.8393 -1.5621
  788THY    CA119678   3.549   1.377   9.518  0.2116  0.1065 -0.2036
  788THY    CA219679   3.409   1.361   9.493 -1.0381  0.8082  0.1345
  788THY    CP119680   3.316   1.403   9.607  0.2693  0.4032  0.2710
  788THY    HP119681   3.363   1.478   9.672 -1.2623  1.6131  0.0312
  788THY    CP219682   3.181   1.460   9.570  0.2245 -0.2335  0.0157
  788THY    HP219683   3.091   1.400   9.587  0.2771 -0.8549 -1.6596
  788THY    HP319684   3.164   1.559   9.613  0.7683  0.3131 -0.9933
  788THY    HP419685   3.170   1.485   9.463 -1.0080  0.0923  0.2029
  788THY    CP319686   3.278   1.282   9.695  0.1421 -0.2837 -0.1101
  788THY    HP519687   3.220   1.316   9.781  1.3157 -1.2124  1.0926
  788THY    HP619688   3.234   1.211   9.624  0.3835 -0.4524 -0.0923
  788THY    HP719689   3.367   1.234   9.736 -0.8010 -2.3367 -0.3229
  788THY    CA319690   3.373   1.320   9.365  0.2891  0.5105  0.7861
  788THY    HA319691   3.268   1.313   9.338  0.8663  0.3087 -1.6553
  788THY    CA419692   3.465   1.300   9.264  0.2547 -1.1494  0.4705
  788THY    HA419693   3.429   1.296   9.161 -1.9730  1.7217  0.9873
  788THY    CA519694   3.600   1.315   9.293  0.6419 -0.1662  0.6442
  788THY    CM119695   3.706   1.287   9.197  0.3648  0.4886 -0.0443
  788THY    HM119696   3.783   1.366   9.202 -1.1852  2.0864 -0.5029
  788THY    HM219697   3.755   1.192   9.223 -0.2838  0.6174  1.7445
  788THY    HM319698   3.662   1.274   9.097 -1.1038 -0.4039  0.6863
  788THY    CA619699   3.644   1.356   9.421 -0.0463  0.6265  0.3766
  788THY    HA619700   3.752   1.363   9.431  0.3243 -3.2175  0.6692
  789THY      O19701   9.452   2.746   8.847 -0.3387  0.0833 -0.0610
  789THY     HO19702   9.422   2.758   8.755  0.8385  0.7410 -0.3742
  789THY    CA119703   9.525   2.849   8.880 -0.5031 -0.3803  0.2087
  789THY    CA219704   9.617   2.854   8.990  0.4868 -0.0526 -0.0830
  789THY    CP119705   9.616   2.737   9.084  0.3483 -0.2869  0.0434
  789THY    HP119706   9.575   2.650   9.032  1.3913  0.7253 -2.6608
  789THY    CP219707   9.757   2.701   9.142 -0.0590 -0.0385 -0.6255
  789THY    HP219708   9.749   2.598   9.179 -2.1469 -0.0591 -1.0063
  789THY    HP319709   9.827   2.712   9.059 -0.1318  2.2688 -0.4312
  789THY    HP419710   9.800   2.770   9.215  1.1027  1.1827 -2.4075
  789THY    CP319711   9.529   2.769   9.204  0.3690  0.3741  0.3505
  789THY    HP519712   9.424   2.756   9.174  0.4925 -0.7064  0.3761
  789THY    HP619713   9.553   2.703   9.288 -0.3248 -0.1061  0.1812
  789THY    HP719714   9.553   2.871   9.237  3.7372 -0.4099  0.5906
  789THY    CA319715   9.704   2.962   9.005 -0.0459  0.0239 -0.2942
  789THY    HA319716   9.764   2.974   9.094 -1.3174  1.6385  0.3951
  789THY    CA419717   9.707   3.067   8.912  0.4734  0.5148  0.2067
  789THY    HA419718   9.781   3.147   8.915  2.2491 -0.9220 -1.9339
  789THY    CA519719   9.618   3.064   8.804  0.1472  0.9574 -0.9428
  789THY    CM119720   9.609   3.183   8.709 -0.3489  0.1882  0.2592
  789THY    HM119721   9.645   3.276   8.754  0.3969  0.4795 -0.9014
  789THY    HM219722   9.675   3.170   8.622  1.5980  0.0445  1.6863
  789THY    HM319723   9.505   3.206   8.681 -0.6481 -0.8752  0.4623
  789THY    CA619724   9.535   2.953   8.788  0.5248 -0.1961 -0.3921
  789THY    HA619725   9.474   2.939   8.700 -1.7992  1.4319  0.8524
  790THY      O19726   2.156   3.902   3.858  0.4244  0.3537 -0.0146
  790THY     HO19727   2.145   3.998   3.849  0.2541  0.7465  3.2182
  790THY    CA119728   2.066   3.883   3.959 -0.2411 -0.5418  0.2771
  790THY    CA219729   1.989   3.768   3.971 -0.0079 -0.8949 -0.0641
  790THY    CP119730   2.002   3.655   3.877  0.0193  0.2648  0.5066
  790THY    HP119731   2.071   3.671   3.794 -0.9759 -1.5552 -0.7533
  790THY    CP219732   2.033   3.527   3.960 -0.4422 -0.0940 -0.3783
  790THY    HP219733   2.138   3.531   3.988 -0.8085  1.8411  0.8925
  790THY    HP319734   1.966   3.505   4.044 -0.6955 -0.5685 -0.6984
  790THY    HP419735   2.033   3.441   3.892 -1.6974 -1.4513  1.2504
  790THY    CP319736   1.874   3.636   3.805 -0.8236 -0.1968  0.2096
  790THY    HP519737   1.877   3.697   3.714  0.5861 -0.0600  0.3196
  790THY    HP619738   1.867   3.530   3.780  3.2977 -0.1346 -2.2195
  790THY    HP719739   1.786   3.668   3.862 -0.3941 -2.1929  2.0918
  790THY    CA319740   1.889   3.765   4.078  0.1782  0.1663  0.3929
  790THY    HA319741   1.820   3.682   4.095  0.7968 -0.1538  1.4254
  790THY    CA419742   1.877   3.869   4.172  0.0486  0.2024 -0.7340
  790THY    HA419743   1.797   3.860   4.245 -0.5382 -0.7524 -1.4658
  790THY    CA519744   1.949   3.983   4.153  0.0468  0.5814 -0.1674
  790THY    CM119745   1.937   4.105   4.251  0.4975 -0.0348  0.1205
  790THY    HM119746   2.040   4.122   4.285  0.3888 -0.8089  0.8612
  790THY    HM219747   1.894   4.194   4.204 -1.6466  0.4754  2.7559
  790THY    HM319748   1.883   4.093   4.346 -3.8872 -0.3171 -2.1708
  790THY    CA619749   2.056   3.985   4.056 -0.0194  0.5150 -0.2722
  790THY    HA619750   2.119   4.073   4.056 -1.1535  1.3704  1.0297
  791THY      O19751   4.841   5.128   8.698  0.1814  0.1376 -0.2287
  791THY     HO19752   4.891   5.070   8.638 -0.0237 -0.9131  0.5993
  791THY    CA119753   4.802   5.058   8.799  0.6399 -0.4219  0.1094
  791THY    CA219754   4.762   5.115   8.919 -0.0864 -0.0814 -0.3136
  791THY    CP119755   4.771   5.268   8.934  0.2803  0.3033 -0.2840
  791THY    HP119756   4.837   5.307   8.856 -1.8213  1.3212 -1.6481
  791THY    CP219757   4.634   5.334   8.918  0.5062 -0.3774 -0.0765
  791THY    HP219758   4.630   5.438   8.954 -3.1288 -0.7720  1.1082
  791THY    HP319759   4.615   5.339   8.810 -0.2811  1.0856  0.0977
  791THY    HP419760   4.557   5.271   8.965  0.6857 -2.1189 -1.9719
  791THY    CP319761   4.838   5.314   9.067  0.0554  0.8572 -0.0994
  791THY    HP519762   4.941   5.278   9.079 -0.2155 -0.3056 -1.0007
  791THY    HP619763   4.834   5.422   9.084 -0.5368  0.3198  4.2215
  791THY    HP719764   4.777   5.280   9.151  1.1132  1.1474  0.8141
  791THY    CA319765   4.726   5.029   9.023 -0.0288  0.3933  0.0588
  791THY    HA319766   4.684   5.074   9.113  0.6978  0.2403  0.4845
  791THY    CA419767   4.742   4.893   9.006 -0.0902  0.5246 -0.3233
  791THY    HA419768   4.718   4.830   9.090  0.1854 -2.8570 -2.6014
  791THY    CA519769   4.771   4.839   8.881 -0.2644  0.0721 -0.0003
  791THY    CM119770   4.766   4.694   8.863 -0.5072  0.3936  0.8627
  791THY    HM119771   4.851   4.645   8.913 -1.3134 -1.4617  0.5113
  791THY    HM219772   4.668   4.648   8.881 -0.1450 -1.8520 -2.1522
  791THY    HM319773   4.792   4.664   8.761  0.6111  0.1622  1.1998
  791THY    CA619774   4.799   4.922   8.774  0.4557 -0.0149 -0.0713
  791THY    HA619775   4.825   4.888   8.674 -3.0168 -1.4225 -0.6169
  792THY      O19776   3.758   3.940   2.433 -0.3321 -0.6511  0.4010
  792THY     HO19777   3.833   3.880   2.419  0.3365  0.5616 -1.6966
  792THY    CA119778   3.783   4.011   2.540 -0.0352 -1.0798 -0.6392
  792THY    CA219779   3.684   4.092   2.602 -0.4787 -0.2084  0.6132
  792THY    CP119780   3.540   4.104   2.533 -0.3247  0.6662  0.1573
  792THY    HP119781   3.520   4.006   2.487  0.1451 -1.0061  3.1945
  792THY    CP219782   3.423   4.111   2.628  0.4940 -0.0139 -0.6270
  792THY    HP219783   3.437   4.198   2.694 -0.9800  0.4355 -0.8589
  792THY    HP319784   3.333   4.118   2.566 -0.2034  0.6817  0.4269
  792THY    HP419785   3.421   4.019   2.688  1.0083  1.2087  1.3516
  792THY    CP319786   3.537   4.220   2.434  0.3630  0.5962  0.0289
  792THY    HP519787   3.606   4.178   2.359  0.3720 -0.5480  0.6637
  792THY    HP619788   3.443   4.223   2.378  1.3362 -1.2270 -1.8567
  792THY    HP719789   3.561   4.321   2.468  0.7733  0.2385  0.8198
  792THY    CA319790   3.719   4.168   2.710  0.9479  0.4854 -0.1238
  792THY    HA319791   3.643   4.235   2.748 -0.7245 -1.6639  0.4938
  792THY    CA419792   3.846   4.157   2.768  0.0628 -0.4180 -0.2327
  792THY    HA419793   3.880   4.210   2.857 -0.9916 -3.5193  2.1929
  792THY    CA519794   3.942   4.072   2.712  0.6053 -0.6912 -0.0158
  792THY    CM119795   4.082   4.052   2.772  0.2393 -0.4303  0.2835
  792THY    HM119796   4.080   3.993   2.864 -1.2122 -0.2543  0.3863
  792THY    HM219797   4.159   4.013   2.705  0.6883  1.8181 -0.6202
  792THY    HM319798   4.125   4.145   2.809 -0.5112 -1.1165  3.0955
  792THY    CA619799   3.910   4.003   2.596  1.0462  0.4802 -0.0713
  792THY    HA619800   3.989   3.968   2.530  0.5370  0.9709 -0.9514
  793THY      O19801   4.555   8.030   5.075 -0.4790  0.2292  0.3327
  793THY     HO19802   4.560   7.952   5.133  0.6876 -0.2832 -0.4232
  793THY    CA119803   4.428   8.073   5.069 -0.5654  0.7663 -0.0704
  793THY    CA219804   4.392   8.209   5.059  0.2588 -0.2806 -0.2664
  793THY    CP119805   4.493   8.324   5.068  0.3329 -0.2800 -0.4947
  793THY    HP119806   4.579   8.290   5.009 -0.3170 -0.6689 -1.2237
  793THY    CP219807   4.451   8.453   5.009 -0.5234  0.2591 -0.1996
  793THY    HP219808   4.387   8.430   4.923 -1.0810 -0.0609  0.2914
  793THY    HP319809   4.375   8.497   5.075 -0.4961  0.0075  0.0044
  793THY    HP419810   4.534   8.524   5.006  1.2294 -1.6511  0.2280
  793THY    CP319811   4.544   8.354   5.211 -0.2580  0.5483  0.0656
  793THY    HP519812   4.598   8.265   5.246  1.0513  0.7205 -1.4215
  793THY    HP619813   4.616   8.436   5.209  0.0143  0.2913 -1.4415
  793THY    HP719814   4.459   8.370   5.278 -1.0088 -0.8645 -0.5052
  793THY    CA319815   4.255   8.238   5.053 -0.1918  0.4749 -0.1440
  793THY    HA319816   4.214   8.338   5.051  1.3421  1.1202 -0.4557
  793THY    CA419817   4.159   8.140   5.060 -0.3291  0.7291  0.0715
  793THY    HA419818   4.054   8.167   5.059 -0.2599  1.0978  1.5433
  793THY    CA519819   4.197   8.002   5.069 -0.5279 -0.4900  0.3286
  793THY    CM119820   4.091   7.899   5.045  0.1036 -0.0494 -1.1351
  793THY    HM119821   4.110   7.799   5.085  3.8377  0.4389 -1.2961
  793THY    HM219822   4.000   7.933   5.096 -0.0175  1.1562 -2.1161
  793THY    HM319823   4.067   7.872   4.942 -1.4927 -2.6781 -0.1665
  793THY    CA619824   4.333   7.972   5.067  0.0739 -0.5077  0.0561
  793THY    HA619825   4.368   7.870   5.062  1.5015 -0.0118 -0.8273
  794THY      O19826   8.158   3.962   9.341 -0.2568  0.2371 -0.7170
  794THY     HO19827   8.072   4.005   9.332 -0.8028 -0.5692  0.3070
  794THY    CA119828   8.133   3.833   9.318 -0.0378 -0.4560  0.7431
  794THY    CA219829   8.227   3.730   9.320  0.3175  0.1113  0.4853
  794THY    CP119830   8.372   3.766   9.359  0.3158 -0.3511  0.5424
  794THY    HP119831   8.385   3.874   9.374 -0.7090 -0.2099  0.4887
  794THY    CP219832   8.402   3.697   9.493  0.4058  0.2098 -0.7291
  794THY    HP219833   8.509   3.706   9.516  0.1559  1.1204  0.1393
  794THY    HP319834   8.343   3.736   9.577  0.7251  1.7341 -1.1708
  794THY    HP419835   8.382   3.589   9.489 -0.3158  0.2798  0.3810
  794THY    CP319836   8.472   3.723   9.256 -0.4470 -0.1586 -0.0424
  794THY    HP519837   8.473   3.613   9.253 -2.9041 -0.2504  0.6135
  794THY    HP619838   8.445   3.754   9.154 -1.1898 -1.2246 -0.1796
  794THY    HP719839   8.575   3.752   9.282 -0.4892 -0.5520  0.5834
  794THY    CA319840   8.191   3.598   9.267 -0.2204  0.1474 -0.9404
  794THY    HA319841   8.253   3.509   9.260 -0.1105  0.1101  0.2964
  794THY    CA419842   8.059   3.571   9.240  0.3764  0.0085 -0.5931
  794THY    HA419843   8.023   3.474   9.205  0.1995 -0.8273  1.7152
  794THY    CA519844   7.966   3.676   9.254  0.3009 -0.5749 -0.5113
  794THY    CM119845   7.824   3.651   9.228  0.4529  0.4661  0.2551
  794THY    HM119846   7.752   3.732   9.244  0.0796  0.2463 -0.2918
  794THY    HM219847   7.805   3.601   9.133 -2.2127 -1.4984  1.6922
  794THY    HM319848   7.793   3.578   9.303 -1.3649  0.0369 -0.8650
  794THY    CA619849   8.004   3.808   9.281 -0.2357  0.0143 -0.7978
  794THY    HA619850   7.934   3.890   9.285  0.3681  0.6400 -2.3888
  795THY      O19851   9.101   0.110   4.560 -1.1711 -0.0090  0.1165
  795THY     HO19852   9.113   0.174   4.632 -0.1356 -0.9105  0.7768
  795THY    CA119853   9.211   0.037   4.557  0.0723 -0.6093  0.5782
  795THY    CA219854   9.297   0.040   4.445 -0.8465 -0.3939 -0.5663
  795THY    CP119855   9.263   0.123   4.323  0.2088  0.0620  0.5436
  795THY    HP119856   9.170   0.180   4.338  1.3376  1.9473  0.7527
  795THY    CP219857   9.367   0.232   4.288 -0.4758  0.3082 -0.2087
  795THY    HP219858   9.468   0.190   4.291 -0.9427 -0.8237  0.2943
  795THY    HP319859   9.362   0.278   4.188  2.1407  0.9489 -0.1218
  795THY    HP419860   9.362   0.304   4.370  2.3151  0.4799 -0.0808
  795THY    CP319861   9.232   0.037   4.197  0.4471  0.0910  0.4251
  795THY    HP519862   9.189   0.100   4.118 -0.1919 -0.4761  0.3049
  795THY    HP619863   9.317  -0.014   4.151 -1.1392 -2.2858 -0.0931
  795THY    HP719864   9.152  -0.033   4.224 -0.4143  0.1993 -1.6596
  795THY    CA319865   9.424  -0.042   4.455 -0.6322 -0.7209  0.1646
  795THY    HA319866   9.498  -0.045   4.376  2.0130  1.5791  2.3110
  795THY    CA419867   9.443  -0.113   4.574 -0.0064  0.2215 -0.6336
  795THY    HA419868   9.533  -0.174   4.581 -1.4928 -1.9634  1.0052
  795THY    CA519869   9.358  -0.107   4.681 -0.3202  0.2168 -0.9382
  795THY    CM119870   9.406  -0.154   4.814  0.1431 -0.0921 -0.3362
  795THY    HM119871   9.490  -0.224   4.810 -0.6932 -1.2313  1.1780
  795THY    HM219872   9.437  -0.058   4.858 -0.6121 -0.3499  0.7855
  795THY    HM319873   9.324  -0.195   4.873  0.3288 -0.3079 -0.2276
  795THY    CA619874   9.242  -0.029   4.672  0.5820  0.4776  0.0795
  795THY    HA619875   9.181  -0.028   4.762  0.3806 -3.0152  0.1262
  796THY      O19876   8.818   9.334   4.634 -0.4465  0.8931  0.3874
  796THY     HO19877   8.732   9.291   4.632 -0.5587  1.1407 -1.6200
  796THY    CA119878   8.879   9.318   4.519  0.3174 -0.0675 -0.1862
  796THY    CA219879   9.006   9.377   4.488  1.0566  0.6120 -0.0144
  796THY    CP119880   9.095   9.428   4.600  0.2526  0.5549 -0.1853
  796THY    HP119881   9.050   9.432   4.699  0.0630  0.5926 -0.2724
  796THY    CP219882   9.222   9.342   4.604 -0.5975 -0.2863  0.5241
  796THY    HP219883   9.252   9.317   4.502  0.4380  1.7388  0.2855
  796THY    HP319884   9.299   9.384   4.669 -1.2404 -0.2299  1.2665
  796THY    HP419885   9.197   9.253   4.662 -1.1369 -1.3573 -1.2731
  796THY    CP319886   9.126   9.577   4.579 -0.3857 -0.0106  0.6488
  796THY    HP519887   9.033   9.635   4.566 -0.1113 -0.0335 -1.9140
  796THY    HP619888   9.191   9.616   4.658 -2.1090  1.0911  1.6176
  796THY    HP719889   9.179   9.583   4.484  0.4498 -0.6032  1.0663
  796THY    CA319890   9.049   9.371   4.353 -0.0889  0.6303 -0.4419
  796THY    HA319891   9.138   9.425   4.320  0.9138  0.1191  1.2478
  796THY    CA419892   8.970   9.301   4.257 -0.9921  0.1245  0.2319
  796THY    HA419893   9.003   9.305   4.154 -2.6753 -0.8406 -0.3758
  796THY    CA519894   8.856   9.240   4.291 -0.0375 -0.4061 -0.6303
  796THY    CM119895   8.773   9.175   4.185 -0.2770 -0.3351  0.5377
  796THY    HM119896   8.692   9.246   4.163 -0.7897 -0.7049  1.1651
  796THY    HM219897   8.826   9.146   4.094 -1.7830 -0.6996 -0.2582
  796THY    HM319898   8.728   9.084   4.229 -0.9760 -0.7818 -1.0353
  796THY    CA619899   8.800   9.257   4.419 -0.1608  0.1144  0.0639
  796THY    HA619900   8.710   9.204   4.449 -1.0219  2.3500  1.7507
  797THY      O19901   9.386   2.298   1.126  0.5450 -0.3230 -0.3523
  797THY     HO19902   9.444   2.365   1.087  1.0554 -0.4972  0.0893
  797THY    CA119903   9.276   2.286   1.044 -0.0780  0.3998 -0.5236
  797THY    CA219904   9.159   2.233   1.099  0.1640 -0.0217 -0.4267
  797THY    CP119905   9.156   2.188   1.251  0.1717 -0.1969 -0.5938
  797THY    HP119906   9.245   2.223   1.305 -0.1403  1.5819 -1.1566
  797THY    CP219907   9.036   2.238   1.333 -0.2666 -0.3515 -0.4543
  797THY    HP219908   9.035   2.348   1.328  3.0894 -0.2271 -0.5633
  797THY    HP319909   8.940   2.201   1.294 -0.0273 -0.5963 -0.8154
  797THY    HP419910   9.049   2.210   1.438 -0.5378 -0.8821 -0.5569
  797THY    CP319911   9.163   2.033   1.248 -0.0222 -0.1696  0.1024
  797THY    HP519912   9.085   1.996   1.179 -0.8614 -0.9015  1.4004
  797THY    HP619913   9.257   2.001   1.202  0.1721  0.0713  0.3317
  797THY    HP719914   9.167   1.997   1.351 -4.1539  0.9557  0.8350
  797THY    CA319915   9.048   2.223   1.015 -0.2727  0.6443 -0.5688
  797THY    HA319916   8.954   2.193   1.062  0.0764  0.7355  0.2015
  797THY    CA419917   9.060   2.263   0.882  0.1856  0.3631 -0.6251
  797THY    HA419918   8.976   2.268   0.813  0.0145  3.5278 -0.3248
  797THY    CA519919   9.178   2.319   0.828  0.0413  0.2356 -0.2649
  797THY    CM119920   9.184   2.352   0.682 -0.5527 -0.2980 -0.3649
  797THY    HM119921   9.270   2.415   0.653 -0.1202 -0.3557  0.7261
  797THY    HM219922   9.179   2.261   0.621  1.7002  0.1125 -1.2650
  797THY    HM319923   9.094   2.412   0.666 -1.2907 -1.0435  0.8412
  797THY    CA619924   9.290   2.326   0.911 -0.3777  0.9120 -0.3649
  797THY    HA619925   9.389   2.356   0.876 -0.9018  0.5742 -2.2692
  798THY      O19926   7.074   7.623   4.712  0.5131 -0.7024 -0.4497
  798THY     HO19927   7.073   7.650   4.806 -1.0530 -3.7180  0.5180
  798THY    CA119928   7.019   7.729   4.651 -0.3328 -0.2613 -0.0923
  798THY    CA219929   6.998   7.736   4.515  0.6017  0.7477  0.9165
  798THY    CP119930   7.042   7.617   4.416 -0.5729 -0.2249 -0.4000
  798THY    HP119931   7.070   7.527   4.472  0.8277  0.7651  0.5623
  798THY    CP219932   6.919   7.578   4.324 -0.8911 -0.0895 -0.2264
  798THY    HP219933   6.829   7.559   4.383 -0.2096 -3.1058 -0.0002
  798THY    HP319934   6.889   7.657   4.255 -0.7015  1.3700  1.3064
  798THY    HP419935   6.939   7.483   4.272  1.1616  1.5042 -2.6335
  798THY    CP319936   7.171   7.653   4.339 -0.2755  0.3285 -0.0276
  798THY    HP519937   7.256   7.649   4.408 -0.1187  0.0130 -0.2373
  798THY    HP619938   7.192   7.578   4.262  1.2748  1.0709 -0.3529
  798THY    HP719939   7.166   7.751   4.289 -0.7117  0.6641  0.6596
  798THY    CA319940   6.944   7.858   4.465  0.5026 -0.0069  0.1599
  798THY    HA319941   6.943   7.874   4.357  0.1467  1.7253  0.3820
  798THY    CA419942   6.914   7.960   4.555 -0.0086 -0.1191  0.6065
  798THY    HA419943   6.877   8.056   4.519  0.1297 -0.4108 -0.3312
  798THY    CA519944   6.931   7.943   4.691 -0.5611 -0.3392  0.0581
  798THY    CM119945   6.896   8.038   4.793  0.1713  0.2357 -0.1083
  798THY    HM119946   6.822   7.993   4.860  2.0406  2.5938  3.9654
  798THY    HM219947   6.978   8.055   4.864  0.1970 -3.8367  1.0637
  798THY    HM319948   6.861   8.135   4.754 -1.6623 -0.9355 -1.5255
  798THY    CA619949   6.986   7.826   4.737 -0.0838  0.3696  0.5048
  798THY    HA619950   7.002   7.821   4.844  0.1655  1.0918  0.5071
  799THY      O19951   9.070   3.479   8.864  0.8688 -0.2413 -0.6687
  799THY     HO19952   9.060   3.395   8.912 -1.4087 -0.3164 -1.1474
  799THY    CA119953   9.207   3.497   8.845 -0.6960  0.8960 -0.1908
  799THY    CA219954   9.271   3.462   8.720 -0.6725 -0.6650  0.4094
  799THY    CP119955   9.195   3.435   8.600  0.3846  0.1072 -0.5072
  799THY    HP119956   9.087   3.430   8.619  0.6780  0.5025  1.5617
  799THY    CP219957   9.214   3.542   8.500  0.0952 -0.8515  0.1804
  799THY    HP219958   9.149   3.627   8.525 -4.0276 -3.2719 -1.2739
  799THY    HP319959   9.315   3.582   8.490 -0.5736  0.7185 -0.8059
  799THY    HP419960   9.179   3.512   8.400 -0.4137 -0.8923  0.3653
  799THY    CP319961   9.243   3.306   8.532 -0.2907 -0.3304  0.4074
  799THY    HP519962   9.245   3.236   8.615  0.2956  0.2521  0.8963
  799THY    HP619963   9.169   3.271   8.458 -1.4042  2.6783 -0.0771
  799THY    HP719964   9.346   3.311   8.496 -0.4981  2.3510 -0.0848
  799THY    CA319965   9.413   3.476   8.721 -0.0375 -0.3945  1.3170
  799THY    HA319966   9.457   3.469   8.621 -2.0943 -1.1669  0.4192
  799THY    CA419967   9.486   3.510   8.833 -0.1514  0.2841  0.4235
  799THY    HA419968   9.594   3.515   8.824  0.0001  0.3373  2.0050
  799THY    CA519969   9.422   3.544   8.949  0.0610  0.0943  0.0411
  799THY    CM119970   9.506   3.576   9.070  0.4575  0.5685  0.3113
  799THY    HM119971   9.571   3.489   9.086  1.6738  0.8082 -2.7230
  799THY    HM219972   9.574   3.658   9.049  1.0077  0.1073  0.2726
  799THY    HM319973   9.442   3.607   9.153 -2.0973 -0.2717 -1.2248
  799THY    CA619974   9.280   3.535   8.955 -0.5525 -0.5787 -0.1411
  799THY    HA619975   9.243   3.545   9.056  2.4210  1.7889  0.8578
  800THY      O19976   3.179   4.079   0.799 -0.1068 -0.0614 -0.0619
  800THY     HO19977   3.261   4.120   0.768 -0.0401 -0.8007 -0.9108
  800THY    CA119978   3.096   4.185   0.820 -0.8757  0.4973  0.2744
  800THY    CA219979   2.977   4.173   0.887 -0.1962 -1.2027 -1.0855
  800THY    CP119980   2.931   4.044   0.949  0.3531  0.4494  0.2113
  800THY    HP119981   3.010   3.967   0.954  0.0100  0.1656  1.7639
  800THY    CP219982   2.893   4.066   1.099 -0.0621 -0.3126 -0.1914
  800THY    HP219983   2.912   3.971   1.150  0.7744  0.2970  0.6871
  800THY    HP319984   2.962   4.137   1.146 -0.6425 -0.7180  1.3335
  800THY    HP419985   2.795   4.114   1.117  0.2146 -0.2544  1.3549
  800THY    CP319986   2.804   3.985   0.874  0.2610  0.0586  0.9689
  800THY    HP519987   2.791   3.877   0.888 -0.6021  0.0689  0.3331
  800THY    HP619988   2.714   4.035   0.912 -0.3747 -0.1558 -0.2085
  800THY    HP719989   2.808   3.999   0.765 -0.5239  0.1059  0.9442
  800THY    CA319990   2.898   4.292   0.897  0.3521  0.0641  1.2038
  800THY    HA319991   2.798   4.283   0.939 -0.1161 -4.9087 -0.3062
  800THY    CA419992   2.937   4.412   0.847  1.1044  0.0364  0.2921
  800THY    HA419993   2.874   4.497   0.873 -2.1584 -2.2176  0.3336
  800THY    CA519994   3.065   4.425   0.787  0.3203  0.2003 -0.4611
  800THY    CM119995   3.132   4.555   0.767 -0.3623 -0.0307 -0.2929
  800THY    HM119996   3.068   4.626   0.714  1.8500  1.6606 -0.8423
  800THY    HM219997   3.160   4.591   0.867  2.9852 -2.0330 -0.3609
  800THY    HM319998   3.223   4.532   0.711  0.2763 -1.8841  1.3997
  800THY    CA619999   3.142   4.306   0.773 -0.1816  0.1627 -0.1351
  800THY    HA620000   3.243   4.309   0.733 -0.1475  3.0655 -0.0240
  801THY      O20001   4.947   7.607   0.859 -0.2113 -0.2180  0.2520
  801THY     HO20002   4.879   7.557   0.907  1.5253 -1.4345  1.5829
  801THY    CA120003   4.896   7.720   0.805  0.4908 -0.4216 -0.2789
  801THY    CA220004   4.976   7.838   0.814  0.2766  0.7558  0.9738
  801THY    CP120005   5.116   7.845   0.868 -0.1353 -0.1882  0.0095
  801THY    HP120006   5.158   7.744   0.871  1.9171  0.6612  1.6780
  801THY    CP220007   5.225   7.918   0.784  0.4305  0.6103 -0.4679
  801THY    HP220008   5.214   7.885   0.680  0.7756  1.4265 -0.7720
  801THY    HP320009   5.209   8.026   0.775 -0.1137  0.4734 -1.2258
  801THY    HP420010   5.327   7.900   0.821  0.6953  1.2398 -0.8820
  801THY    CP320011   5.108   7.918   1.000  0.1108  0.5523 -0.2085
  801THY    HP520012   5.022   7.984   1.013 -1.1386 -1.0690  0.1088
  801THY    HP620013   5.095   7.841   1.077  0.1041  3.0718  2.4903
  801THY    HP720014   5.206   7.958   1.025 -0.5002 -0.2348  4.1727
  801THY    CA320015   4.910   7.964   0.778 -0.0917 -0.1507 -0.3457
  801THY    HA320016   4.967   8.055   0.790  0.3792 -0.2808 -1.5062
  801THY    CA420017   4.776   7.964   0.742  0.5935 -0.5859  0.3718
  801THY    HA420018   4.728   8.061   0.739 -0.6968 -1.2274 -1.3819
  801THY    CA520019   4.699   7.841   0.738 -0.1249 -0.0702  0.7067
  801THY    CM120020   4.560   7.848   0.696  0.7758  0.0455  0.0972
  801THY    HM120021   4.514   7.751   0.674  2.6567 -0.8122 -0.2205
  801THY    HM220022   4.501   7.899   0.773 -1.4557 -1.2219 -0.6788
  801THY    HM320023   4.567   7.910   0.605  1.1439  0.8002  0.6300
  801THY    CA620024   4.762   7.718   0.767  0.3843  0.4859  0.1297
  801THY    HA620025   4.700   7.629   0.767 -0.1196  0.8198 -0.9614
  802THY      O20026   8.125   1.656   8.565  0.1718 -0.3818 -0.6343
  802THY     HO20027   8.051   1.673   8.504  1.0228 -0.1946 -1.6474
  802THY    CA120028   8.173   1.530   8.545  0.7274  0.6587  0.3388
  802THY    CA220029   8.279   1.478   8.625  0.2814  0.1231 -0.0932
  802THY    CP120030   8.357   1.559   8.728  0.5264 -0.1540 -0.2910
  802THY    HP120031   8.296   1.649   8.746  0.3373 -0.7365  2.3655
  802THY    CP220032   8.358   1.486   8.859 -0.7898  0.7971 -0.1012
  802THY    HP220033   8.258   1.444   8.878 -1.0010  0.5750 -1.5684
  802THY    HP320034   8.436   1.409   8.856  0.7979  2.3285  0.6039
  802THY    HP420035   8.389   1.558   8.936  0.2345  0.9665 -0.6522
  802THY    CP320036   8.502   1.592   8.689  0.2378  0.2944  0.4980
  802THY    HP520037   8.547   1.659   8.764  1.3571  1.1293 -0.8762
  802THY    HP620038   8.560   1.499   8.691 -0.5915 -0.2245  1.5219
  802THY    HP720039   8.507   1.639   8.591 -1.0933  2.8025  1.5527
  802THY    CA320040   8.321   1.344   8.604 -0.1998  0.2410  1.1186
  802THY    HA320041   8.406   1.298   8.653  0.2166  0.2534  0.4213
  802THY    CA420042   8.255   1.270   8.505  0.1986  0.3171  0.2219
  802THY    HA420043   8.266   1.162   8.493  1.9188  0.7464 -3.3416
  802THY    CA520044   8.160   1.322   8.418 -0.6865 -0.3344  0.7172
  802THY    CM120045   8.088   1.249   8.309 -0.1947 -0.5668  0.2036
  802THY    HM120046   7.990   1.216   8.345 -0.4300 -0.9148 -0.7056
  802THY    HM220047   8.071   1.306   8.217 -0.8160 -0.9127  0.0939
  802THY    HM320048   8.134   1.154   8.277 -0.2179 -0.3621 -0.4572
  802THY    CA620049   8.121   1.456   8.439 -0.0593 -0.1098 -0.8277
  802THY    HA620050   8.043   1.500   8.378 -0.4269  0.8526  0.3106
  803THY      O20051   6.284   8.863   7.223 -0.0044 -1.0109 -0.0293
  803THY     HO20052   6.329   8.794   7.170 -1.0462 -0.2920 -1.9769
  803THY    CA120053   6.187   8.809   7.296  1.0200 -0.3692  0.3906
  803THY    CA220054   6.082   8.894   7.344  1.1710 -0.5609  0.4387
  803THY    CP120055   6.092   9.042   7.323  0.7724 -0.1853  0.7831
  803THY    HP120056   6.140   9.086   7.235  1.3925 -0.0292  1.1910
  803THY    CP220057   5.948   9.106   7.322  0.0473  0.3773 -0.2492
  803THY    HP220058   5.902   9.105   7.421  0.7278  0.9400  0.0784
  803THY    HP320059   5.958   9.211   7.294 -0.6260  0.8098  1.0690
  803THY    HP420060   5.879   9.054   7.254 -2.1361  0.3898  1.8363
  803THY    CP320061   6.159   9.087   7.447 -0.6369  0.4295  0.1570
  803THY    HP520062   6.127   9.047   7.544  2.4848  1.9440  1.9775
  803THY    HP620063   6.267   9.070   7.445 -0.6634  0.2957 -0.2865
  803THY    HP720064   6.149   9.196   7.458 -0.9802  0.2041  2.4395
  803THY    CA320065   5.972   8.831   7.418  0.5770  0.1070  0.4997
  803THY    HA320066   5.903   8.888   7.479 -0.5697 -0.7029 -0.0050
  803THY    CA420067   5.982   8.688   7.440 -0.0283 -0.4024 -0.4562
  803THY    HA420068   5.905   8.629   7.490 -0.3009  0.1649 -0.1940
  803THY    CA520069   6.093   8.613   7.390  0.2442 -0.2964 -0.4013
  803THY    CM120070   6.122   8.469   7.422  0.2437  0.7304 -0.0763
  803THY    HM120071   6.053   8.429   7.497  0.6130 -1.3171 -0.7566
  803THY    HM220072   6.112   8.396   7.341 -1.0358  1.0952 -0.2764
  803THY    HM320073   6.223   8.456   7.463 -0.1719  1.6214  1.3016
  803THY    CA620074   6.188   8.672   7.315  0.2520 -0.5308 -0.1337
  803THY    HA620075   6.273   8.624   7.266  2.0452  0.7666  1.5436
  804THY      O20076   2.854   3.246   2.558  0.5509  0.4159 -0.0468
  804THY     HO20077   2.923   3.195   2.511 -1.5728 -3.6124  0.7767
  804THY    CA120078   2.849   3.367   2.507 -0.2151  0.8230  0.6543
  804THY    CA220079   2.783   3.473   2.560 -0.1461 -0.0237 -0.7373
  804THY    CP120080   2.711   3.458   2.699  0.2382  0.3186  0.7425
  804THY    HP120081   2.743   3.363   2.743  0.7970  0.9351  1.7053
  804THY    CP220082   2.735   3.561   2.806 -0.1722 -0.1103  0.6433
  804THY    HP220083   2.843   3.579   2.795 -0.3162 -0.5884 -2.4640
  804THY    HP320084   2.686   3.655   2.778 -1.0808 -0.4025  1.2061
  804THY    HP420085   2.715   3.549   2.913 -1.3436  1.7519  0.6928
  804THY    CP320086   2.562   3.452   2.686 -0.0993 -0.0826  0.0949
  804THY    HP520087   2.526   3.523   2.610 -1.0666 -1.5602 -0.8829
  804THY    HP620088   2.539   3.351   2.648  2.4915 -0.2761 -1.2447
  804THY    HP720089   2.511   3.454   2.783 -0.0083 -1.4532  0.1879
  804THY    CA320090   2.784   3.597   2.493 -0.0844 -0.6394  0.1002
  804THY    HA320091   2.724   3.679   2.531 -0.8476 -1.5562  0.9113
  804THY    CA420092   2.848   3.607   2.372  0.3946  0.5647 -0.4175
  804THY    HA420093   2.836   3.696   2.311 -0.8593  0.2455 -0.6530
  804THY    CA520094   2.923   3.502   2.323  0.6331  0.3498 -0.5361
  804THY    CM120095   2.997   3.518   2.194 -0.3092  0.1471 -0.2365
  804THY    HM120096   2.935   3.573   2.123  0.9269  0.4608 -1.1089
  804THY    HM220097   3.088   3.580   2.200 -1.1577  1.3519  0.6081
  804THY    HM320098   3.018   3.419   2.152 -1.2523 -0.9122  1.6457
  804THY    CA620099   2.925   3.381   2.394  0.4694 -0.5891  0.8651
  804THY    HA620100   2.975   3.293   2.353 -2.7210 -1.9490 -0.4137
  805THY      O20101   5.160   9.555   2.614  1.0141 -0.5250 -0.4208
  805THY     HO20102   5.127   9.500   2.687 -1.1919 -2.5210 -2.7228
  805THY    CA120103   5.170   9.683   2.666  0.4479 -0.3732  0.3852
  805THY    CA220104   5.199   9.789   2.580 -0.4924 -0.3076 -0.0643
  805THY    CP120105   5.243   9.766   2.433 -0.5205  0.6206 -0.0847
  805THY    HP120106   5.270   9.660   2.425 -0.4231  0.6716 -0.4547
  805THY    CP220107   5.129   9.807   2.343  0.6408  0.1722 -0.2267
  805THY    HP220108   5.139   9.757   2.246  0.1003  0.5911 -0.5074
  805THY    HP320109   5.031   9.795   2.391 -0.4897  1.0115 -2.1978
  805THY    HP420110   5.139   9.914   2.322  3.6989  0.6800  2.8727
  805THY    CP320111   5.374   9.835   2.392 -0.3111 -0.0140  0.0020
  805THY    HP520112   5.412   9.801   2.295 -2.2189 -2.0670 -0.1010
  805THY    HP620113   5.359   9.944   2.398 -1.3503  0.1776 -3.8042
  805THY    HP720114   5.443   9.802   2.470  0.0440 -2.7230 -1.3543
  805THY    CA320115   5.188   9.918   2.633  0.2132 -0.0643 -0.1707
  805THY    HA320116   5.203  10.006   2.570 -0.9886  0.6667  0.5278
  805THY    CA420117   5.141   9.945   2.760  0.6661  0.3453  0.2149
  805THY    HA420118   5.127  10.049   2.788  2.7007  0.5781  0.5709
  805THY    CA520119   5.116   9.836   2.845 -0.8313  0.0331 -0.3434
  805THY    CM120120   5.065   9.869   2.983  0.6629  0.5936 -0.5712
  805THY    HM120121   5.133   9.869   3.068 -0.9868 -1.3422  0.8576
  805THY    HM220122   5.025   9.971   2.978  0.0694  0.4025  0.0352
  805THY    HM320123   4.987   9.797   3.012  0.4677  1.5921  1.5392
  805THY    CA620124   5.136   9.707   2.804 -0.6394  0.2567  0.1424
  805THY    HA620125   5.107   9.620   2.863  1.3081  0.8045  2.0299
  806THY      O20126   2.050   2.018   1.663  0.0402 -0.3620 -0.4903
  806THY     HO20127   1.970   2.036   1.611  0.9854 -0.3316 -2.0121
  806THY    CA120128   2.102   1.907   1.604 -0.0205 -0.3179  0.2096
  806THY    CA220129   2.206   1.826   1.658  0.0423 -0.0308 -0.2963
  806THY    CP120130   2.255   1.856   1.805 -0.3019  0.6288 -0.3628
  806THY    HP120131   2.174   1.908   1.859  2.4459  2.6163  2.2026
  806THY    CP220132   2.290   1.722   1.883 -0.1832  0.3866 -0.0373
  806THY    HP220133   2.393   1.693   1.859 -0.1295  0.3771  0.1973
  806THY    HP320134   2.293   1.734   1.992  0.3685 -0.3870  0.0443
  806THY    HP420135   2.208   1.651   1.866  0.1062  0.3717 -1.5019
  806THY    CP320136   2.369   1.966   1.805 -0.3215 -0.4330 -0.5974
  806THY    HP520137   2.381   2.010   1.905 -0.8879 -0.2150 -0.6235
  806THY    HP620138   2.468   1.929   1.775  0.0556 -1.0943  1.2898
  806THY    HP720139   2.340   2.042   1.733 -1.3612  0.3423  0.6060
  806THY    CA320140   2.256   1.713   1.584  0.2359  0.2114  0.2614
  806THY    HA320141   2.331   1.650   1.632  0.7114  1.0919  0.6929
  806THY    CA420142   2.221   1.688   1.451 -0.4698 -0.1749 -0.2958
  806THY    HA420143   2.258   1.606   1.391 -0.6648 -1.5274  1.3568
  806THY    CA520144   2.128   1.774   1.394  0.3810  0.4336 -0.9493
  806THY    CM120145   2.086   1.748   1.257  0.0130  0.8042  0.3462
  806THY    HM120146   2.161   1.762   1.178  0.0805  1.5708  0.5442
  806THY    HM220147   2.052   1.644   1.255  0.6034  0.5868 -1.9436
  806THY    HM320148   2.007   1.817   1.224 -0.5888 -0.5743 -1.2156
  806THY    CA620149   2.067   1.880   1.469  0.1769  0.4210 -0.1629
  806THY    HA620150   1.995   1.939   1.414 -0.7770 -1.1015 -0.6159
  807THY      O20151   2.441   8.113   4.284 -0.1082 -0.6554  0.3570
  807THY     HO20152   2.441   8.102   4.381 -2.2478 -0.3304  0.4495
  807THY    CA120153   2.484   8.243   4.264 -0.3134 -0.7666  0.2337
  807THY    CA220154   2.469   8.316   4.138 -0.2712 -0.5648  0.1527
  807THY    CP120155   2.426   8.231   4.019 -0.2917 -0.5050 -0.0369
  807THY    HP120156   2.379   8.138   4.052  1.5424 -0.8144  1.9738
  807THY    CP220157   2.319   8.299   3.942 -0.0389  0.1745  0.0480
  807THY    HP220158   2.356   8.377   3.875 -1.7697 -0.1715 -1.4036
  807THY    HP320159   2.263   8.222   3.888  0.2417 -0.7205  1.0128
  807THY    HP420160   2.247   8.329   4.019  2.0519 -3.2110  3.6876
  807THY    CP320161   2.551   8.185   3.930  0.0054 -0.3010 -0.3124
  807THY    HP520162   2.591   8.276   3.885 -1.3397 -0.9257 -2.9149
  807THY    HP620163   2.630   8.133   3.987  0.7143  1.6726  0.6035
  807THY    HP720164   2.511   8.122   3.850  2.3818 -1.0743 -0.9874
  807THY    CA320165   2.508   8.448   4.127  0.1210  0.0125  0.6398
  807THY    HA320166   2.488   8.505   4.037  0.0183 -1.4512 -0.2964
  807THY    CA420167   2.565   8.508   4.233  0.8865  0.0548 -0.1106
  807THY    HA420168   2.598   8.612   4.228  1.7528 -0.2330 -4.2033
  807THY    CA520169   2.582   8.443   4.357  0.0171 -0.9786  0.6935
  807THY    CM120170   2.647   8.513   4.483 -0.4683  0.1492 -0.3704
  807THY    HM120171   2.620   8.619   4.477 -1.8623 -0.2302 -1.6935
  807THY    HM220172   2.595   8.478   4.573  1.0878 -1.0427  0.1016
  807THY    HM320173   2.749   8.478   4.499 -1.6162 -2.5758  2.1057
  807THY    CA620174   2.533   8.314   4.374 -0.3266 -0.1070 -0.0989
  807THY    HA620175   2.539   8.264   4.470 -1.7813  0.9530  0.5830
  808THY      O20176   6.811   9.769   0.977 -0.0345 -0.2813  0.1224
  808THY     HO20177   6.851   9.706   0.914  0.1218 -0.3217  0.2622
  808THY    CA120178   6.721   9.835   0.902  0.0025  1.0696  0.1683
  808THY    CA220179   6.630   9.927   0.954 -0.5632 -0.0418  0.8117
  808THY    CP120180   6.625   9.963   1.093  0.2688 -0.5472 -0.1624
  808THY    HP120181   6.724   9.955   1.138 -0.2971  2.9014  2.0692
  808THY    CP220182   6.584  10.105   1.112  1.1274 -0.2962 -0.3512
  808THY    HP220183   6.618  10.169   1.030  0.1443 -1.5644 -1.7997
  808THY    HP320184   6.476  10.122   1.113  1.2725  0.7097 -0.2383
  808THY    HP420185   6.626  10.148   1.204  3.1785 -2.0567 -0.3849
  808THY    CP320186   6.527   9.871   1.165  0.3802  0.3840  0.4966
  808THY    HP520187   6.524   9.892   1.272  0.9519 -0.8847  0.7871
  808THY    HP620188   6.429   9.863   1.117  0.5863  2.3800 -0.3559
  808THY    HP720189   6.568   9.769   1.170  0.5179  0.4567  0.8781
  808THY    CA320190   6.544   9.988   0.863  0.1636  0.4160  0.2584
  808THY    HA320191   6.465  10.052   0.899 -0.0762 -0.5329  1.5004
  808THY    CA420192   6.550   9.966   0.726  0.4146 -0.7043  0.9654
  808THY    HA420193   6.474  10.005   0.659  0.0287 -4.8956 -1.3339
  808THY    CA520194   6.639   9.875   0.677  0.3614  0.1286  0.0101
  808THY    CM120195   6.641   9.845   0.532  0.1762 -0.5464  0.1526
  808THY    HM120196   6.678   9.744   0.509  3.0000  0.3283  0.4821
  808THY    HM220197   6.544   9.848   0.482  0.8405 -0.3064 -1.1621
  808THY    HM320198   6.710   9.912   0.479  1.2562 -0.3258  1.7593
  808THY    CA620199   6.717   9.793   0.767  0.1773  0.4110 -0.2530
  808THY    HA620200   6.773   9.711   0.722  1.1264  0.0864  1.4195
  809THY      O20201   3.175   4.081   0.082 -0.1275  0.3096 -0.5333
  809THY     HO20202   3.163   4.080   0.179  0.6641 -0.2858 -0.4314
  809THY    CA120203   3.289   4.141   0.058 -0.4773  0.0867  0.4102
  809THY    CA220204   3.304   4.242  -0.035 -0.2261 -0.0942 -0.3373
  809THY    CP120205   3.195   4.264  -0.139  0.6801  0.0009  0.7140
  809THY    HP120206   3.163   4.163  -0.169 -2.5852  0.1048  3.2678
  809THY    CP220207   3.064   4.328  -0.093 -0.4049 -0.2627 -0.3136
  809THY    HP220208   3.072   4.426  -0.044  0.0561  0.8190 -2.3835
  809THY    HP320209   3.001   4.344  -0.182  0.7363  2.9064 -0.6813
  809THY    HP420210   3.013   4.266  -0.019 -0.1826  1.7830  1.6828
  809THY    CP320211   3.247   4.333  -0.260 -0.8799  0.0019  0.4204
  809THY    HP520212   3.188   4.294  -0.343 -2.0993 -2.6131  2.3722
  809THY    HP620213   3.236   4.442  -0.264  0.8565  0.2549  1.5129
  809THY    HP720214   3.343   4.296  -0.298 -1.9975 -0.8012 -1.7609
  809THY    CA320215   3.425   4.322  -0.036  0.1698  0.4210 -0.2228
  809THY    HA320216   3.431   4.408  -0.102 -1.3822  0.6558 -0.1074
  809THY    CA420217   3.526   4.294   0.059 -0.5035  0.6004  0.1414
  809THY    HA420218   3.620   4.349   0.057 -1.4669  2.2996 -0.4938
  809THY    CA520219   3.515   4.179   0.144  0.1509  0.1542 -0.0589
  809THY    CM120220   3.634   4.140   0.212 -0.2643  0.2371 -0.3545
  809THY    HM120221   3.614   4.043   0.260 -0.4407 -0.6250 -2.0872
  809THY    HM220222   3.713   4.131   0.137 -0.3299 -0.4640 -0.3509
  809THY    HM320223   3.661   4.216   0.286  1.8551  0.2032 -1.0188
  809THY    CA620224   3.393   4.107   0.145 -0.1185  0.6512  0.0856
  809THY    HA620225   3.379   4.018   0.205 -0.1150  0.8098  0.3207
  810THY      O20226   8.483   5.014   3.155 -0.0505 -0.3931 -0.1332
  810THY     HO20227   8.536   4.935   3.175 -2.4271 -2.1171 -0.2693
  810THY    CA120228   8.544   5.086   3.059 -0.0600  0.5031  0.0026
  810THY    CA220229   8.482   5.137   2.943  0.0411  0.2111 -0.5806
  810THY    CP120230   8.336   5.102   2.924  0.2861 -0.3251 -0.4498
  810THY    HP120231   8.295   5.060   3.017 -0.2272 -0.3854 -0.6984
  810THY    CP220232   8.250   5.228   2.909  0.2865 -0.3676 -0.0344
  810THY    HP220233   8.143   5.204   2.908  0.0441  0.6786 -0.6655
  810THY    HP320234   8.254   5.308   2.984 -1.5663 -2.1717  2.1569
  810THY    HP420235   8.266   5.274   2.811 -0.7045 -0.5205 -0.2765
  810THY    CP320236   8.319   5.002   2.805  0.7208 -0.4144  0.4030
  810THY    HP520237   8.348   4.903   2.842 -1.6709 -0.3961  2.6646
  810THY    HP620238   8.213   4.992   2.778  0.5736 -0.2017  0.8803
  810THY    HP720239   8.359   5.052   2.716 -2.9752  0.7762 -0.7785
  810THY    CA320240   8.553   5.227   2.855  0.3755 -0.0909 -0.2428
  810THY    HA320241   8.500   5.272   2.772  0.5883  1.5601  0.4681
  810THY    CA420242   8.684   5.254   2.874  0.0533  0.7281 -0.7478
  810THY    HA420243   8.746   5.323   2.817  1.0867  3.1673  2.9857
  810THY    CA520244   8.741   5.203   3.002 -0.1910 -0.8637  0.8108
  810THY    CM120245   8.875   5.261   3.041  0.4634  0.2181  0.2556
  810THY    HM120246   8.881   5.264   3.151 -1.1643  0.3941  0.3723
  810THY    HM220247   8.962   5.215   2.994  1.0627  0.3746  1.1942
  810THY    HM320248   8.903   5.361   3.008  2.0028 -0.6041 -1.0468
  810THY    CA620249   8.671   5.124   3.089  0.5523 -0.4505  0.3448
  810THY    HA620250   8.725   5.091   3.177 -0.0174  0.5862  1.1113
  811THY      O20251   5.881   2.002   4.171  0.6790 -0.7080 -0.4435
  811THY     HO20252   5.873   1.906   4.185  0.8191 -1.0564 -2.4654
  811THY    CA120253   5.776   2.035   4.095 -0.4113 -0.3522 -0.0409
  811THY    CA220254   5.721   2.166   4.097  0.4467  0.6451  0.7467
  811THY    CP120255   5.783   2.282   4.176 -0.2232 -0.2255  1.5470
  811THY    HP120256   5.863   2.233   4.232  1.1121  0.1339  0.0243
  811THY    CP220257   5.857   2.389   4.076 -0.6440 -0.7335 -0.9265
  811THY    HP220258   5.787   2.450   4.016  1.2265  1.2546 -1.2083
  811THY    HP320259   5.914   2.465   4.130  0.9671 -0.9563 -2.2488
  811THY    HP420260   5.919   2.332   4.006  1.2676 -0.9572  0.8582
  811THY    CP320261   5.694   2.352   4.276 -0.2172 -0.0553 -0.2068
  811THY    HP520262   5.626   2.280   4.324  0.3393  0.5584  1.5717
  811THY    HP620263   5.755   2.393   4.357 -2.0925  1.5963  0.4557
  811THY    HP720264   5.631   2.435   4.241  0.1588  1.2115  1.8966
  811THY    CA320265   5.597   2.183   4.032  0.6667 -0.1535  0.5182
  811THY    HA320266   5.558   2.284   4.021  0.6166 -0.4212 -2.8231
  811THY    CA420267   5.534   2.076   3.971 -0.1177  0.3541 -0.5085
  811THY    HA420268   5.438   2.090   3.922 -0.7115 -0.0777  0.4886
  811THY    CA520269   5.595   1.954   3.977  0.2634 -0.6059 -0.2025
  811THY    CM120270   5.523   1.829   3.925  0.1570  0.2607 -0.2513
  811THY    HM120271   5.573   1.778   3.841 -0.3446  0.0521 -0.4224
  811THY    HM220272   5.521   1.753   4.003  0.8112  0.9444  0.4561
  811THY    HM320273   5.421   1.856   3.897  0.4084 -0.9768 -2.5976
  811THY    CA620274   5.719   1.931   4.031 -0.8914 -0.1376 -0.1814
  811THY    HA620275   5.758   1.830   4.023  0.9483  0.5664 -0.4801
  812THY      O20276   3.254   6.564   2.278  0.5818  0.3770  0.0932
  812THY     HO20277   3.339   6.573   2.324  1.0811  0.4217 -0.7992
  812THY    CA120278   3.169   6.543   2.381 -0.6629  0.2173  0.3672
  812THY    CA220279   3.040   6.508   2.358 -0.0347  0.0528 -0.2053
  812THY    CP120280   2.981   6.503   2.219 -0.1799 -0.7782 -0.0338
  812THY    HP120281   3.032   6.577   2.157  0.8197 -0.4299  1.1740
  812THY    CP220282   3.002   6.368   2.153  0.2554  0.2860  1.1463
  812THY    HP220283   2.928   6.367   2.072 -2.0996  2.8822  3.0564
  812THY    HP320284   3.106   6.367   2.118  0.2033 -0.3694  1.0061
  812THY    HP420285   2.985   6.279   2.215  0.7228 -2.0275 -1.8221
  812THY    CP320286   2.832   6.539   2.210  0.1162  0.6128 -0.4287
  812THY    HP520287   2.793   6.449   2.257  2.4678  0.3425  1.1635
  812THY    HP620288   2.810   6.628   2.271 -2.3587 -0.5646  0.5356
  812THY    HP720289   2.798   6.560   2.108  0.0049  3.2096  0.0618
  812THY    CA320290   2.967   6.475   2.469 -0.2048  0.2176 -0.2337
  812THY    HA320291   2.868   6.437   2.444 -0.0181  0.6652 -1.7310
  812THY    CA420292   3.014   6.487   2.605  0.8505 -0.3291 -0.2529
  812THY    HA420293   2.955   6.471   2.695 -1.2414  1.3506 -1.2541
  812THY    CA520294   3.146   6.531   2.615  0.2936  0.4280 -0.9530
  812THY    CM120295   3.200   6.556   2.752 -0.3822  0.5975  0.5345
  812THY    HM120296   3.115   6.576   2.817  0.2475  2.1391  0.9247
  812THY    HM220297   3.244   6.459   2.781 -0.3563  0.6238  0.5828
  812THY    HM320298   3.268   6.643   2.750  0.8408 -0.2780  1.5732
  812THY    CA620299   3.225   6.539   2.504 -0.3227 -0.6501 -0.1063
  812THY    HA620300   3.328   6.571   2.513  0.0432 -1.3651 -1.5217
  813THY      O20301   4.774   1.546   3.421 -0.0873 -0.1006 -0.1769
  813THY     HO20302   4.743   1.590   3.502  0.3540  2.4051 -1.2708
  813THY    CA120303   4.665   1.490   3.364 -0.6861  0.0029 -0.0485
  813THY    CA220304   4.675   1.361   3.303  0.3076 -0.6331  0.3709
  813THY    CP120305   4.804   1.284   3.304  0.2152  0.4688  0.2927
  813THY    HP120306   4.864   1.340   3.376  0.4334  0.6921 -0.0564
  813THY    CP220307   4.777   1.140   3.359 -0.8075 -0.0347 -0.0180
  813THY    HP220308   4.744   1.075   3.277  0.8141 -1.5619  0.4811
  813THY    HP320309   4.872   1.092   3.384 -0.1749  0.9827 -0.4014
  813THY    HP420310   4.715   1.138   3.449 -1.8187  3.2761 -0.5171
  813THY    CP320311   4.879   1.296   3.166 -0.4692  0.1312 -0.2353
  813THY    HP520312   4.883   1.399   3.129 -0.4564  0.3700  0.4244
  813THY    HP620313   4.977   1.251   3.185 -0.5589  0.5570  1.3524
  813THY    HP720314   4.817   1.231   3.102  0.6574  0.5334 -1.7986
  813THY    CA320315   4.556   1.310   3.255 -0.3248 -0.2975 -0.1760
  813THY    HA320316   4.548   1.213   3.205  2.5010 -1.9883  2.3410
  813THY    CA420317   4.435   1.379   3.269 -0.4012  0.6310 -0.3785
  813THY    HA420318   4.345   1.329   3.233  0.8333 -1.2562 -0.9485
  813THY    CA520319   4.424   1.502   3.330  0.3451 -0.0262  0.0580
  813THY    CM120320   4.298   1.585   3.336  0.6327  0.4360  0.1415
  813THY    HM120321   4.319   1.690   3.312 -2.9814  1.4348  0.6829
  813THY    HM220322   4.232   1.543   3.259  1.7757 -0.6436 -0.2869
  813THY    HM320323   4.253   1.572   3.435 -0.1085  0.0743 -0.2307
  813THY    CA620324   4.546   1.563   3.364  0.4135 -0.2353 -0.4098
  813THY    HA620325   4.549   1.668   3.392 -2.1721  0.2816 -1.6964
  814THY      O20326   2.484   6.092   5.234  0.8609  0.4418  0.3001
  814THY     HO20327   2.485   6.188   5.248  2.1480  0.5424 -0.3335
  814THY    CA120328   2.431   6.061   5.117 -0.0597  0.1075  0.2808
  814THY    CA220329   2.298   6.014   5.107 -0.3543 -0.4392 -0.3320
  814THY    CP120330   2.210   6.006   5.237 -0.5124 -0.1156  0.6392
  814THY    HP120331   2.257   6.048   5.326 -0.7459  0.3795  0.5318
  814THY    CP220332   2.084   6.095   5.227 -0.2812 -0.1939  0.4897
  814THY    HP220333   2.113   6.198   5.204  0.9948 -0.8581 -1.0751
  814THY    HP320334   2.012   6.064   5.150 -0.5165  0.5929  0.3833
  814THY    HP420335   2.023   6.086   5.318 -2.7801 -1.4509 -1.2042
  814THY    CP320336   2.165   5.862   5.261  0.2598 -0.4097 -0.7829
  814THY    HP520337   2.259   5.809   5.280  2.0014  1.8891 -2.3759
  814THY    HP620338   2.100   5.865   5.349 -1.2763  1.9589 -1.9007
  814THY    HP720339   2.099   5.835   5.178 -2.4350  0.8543  0.8205
  814THY    CA320340   2.244   5.978   4.979  0.1227  0.7179 -0.3914
  814THY    HA320341   2.149   5.926   4.970  0.1559  0.2427  1.5004
  814THY    CA420342   2.324   5.991   4.866 -0.6416  0.4133 -0.1546
  814THY    HA420343   2.279   5.948   4.777 -2.2090  1.4408  0.1169
  814THY    CA520344   2.462   6.023   4.881 -0.4959  0.7425 -1.0314
  814THY    CM120345   2.550   6.023   4.756 -0.4685 -0.1808 -0.2389
  814THY    HM120346   2.532   5.931   4.700  1.1480  1.2711 -3.4437
  814THY    HM220347   2.532   6.113   4.696  1.6079 -0.2792 -1.1155
  814THY    HM320348   2.657   6.026   4.782 -0.3327 -1.5370 -0.5894
  814THY    CA620349   2.514   6.073   5.000  0.2392  0.2205 -0.0764
  814THY    HA620350   2.618   6.104   5.008  1.3215 -2.6107 -1.5254
  815THY      O20351   2.010   4.908   7.819  0.6660 -0.2214  0.0005
  815THY     HO20352   1.992   4.974   7.888 -0.4082 -0.8680  0.3517
  815THY    CA120353   1.919   4.921   7.718 -0.2899 -0.4534 -1.2306
  815THY    CA220354   1.895   4.816   7.629 -0.9184  0.6187 -0.4545
  815THY    CP120355   1.971   4.679   7.633  0.5399  0.2490 -0.2135
  815THY    HP120356   2.064   4.700   7.688 -1.5557  5.4023  2.0486
  815THY    CP220357   1.885   4.586   7.729  0.1841 -0.3099  0.3340
  815THY    HP220358   1.908   4.479   7.724 -0.3318 -0.5812  2.6901
  815THY    HP320359   1.897   4.617   7.833  0.3018 -1.0955  0.5612
  815THY    HP420360   1.780   4.600   7.699  0.6913 -0.6411 -1.8213
  815THY    CP320361   2.008   4.625   7.495 -0.5309  0.3803 -0.5484
  815THY    HP520362   2.060   4.696   7.430 -0.5243  0.9862  0.0991
  815THY    HP620363   2.080   4.543   7.512 -0.2838  0.6955 -0.0378
  815THY    HP720364   1.921   4.588   7.439 -1.6011 -1.0862  1.8998
  815THY    CA320365   1.804   4.842   7.526  0.0537  0.4209 -0.5615
  815THY    HA320366   1.787   4.763   7.453  2.2663  1.2300 -2.0491
  815THY    CA420367   1.749   4.974   7.507  0.1273 -0.1799 -0.1810
  815THY    HA420368   1.682   4.990   7.423 -1.3852 -3.1835  0.3485
  815THY    CA520369   1.762   5.073   7.605 -0.4576 -0.1581 -0.0226
  815THY    CM120370   1.703   5.207   7.582  0.1058 -0.0806 -0.9075
  815THY    HM120371   1.748   5.275   7.655  0.3176  0.3808 -1.4633
  815THY    HM220372   1.738   5.231   7.481 -0.3555 -2.9252 -1.8332
  815THY    HM320373   1.594   5.209   7.592 -0.2294 -5.5554 -0.6584
  815THY    CA620374   1.858   5.048   7.708 -0.0561  0.1112 -0.0630
  815THY    HA620375   1.889   5.133   7.768  0.4874  0.5280 -0.9131
  816THY      O20376   9.177   6.405   2.058  0.3977 -0.4935 -0.7457
  816THY     HO20377   9.180   6.316   2.098 -0.5207 -0.6788 -1.0781
  816THY    CA120378   9.176   6.381   1.920  1.3266  0.4177 -0.1518
  816THY    CA220379   9.173   6.483   1.817 -0.7727 -0.4332  0.1999
  816THY    CP120380   9.175   6.633   1.852  0.5376  0.1275  0.1471
  816THY    HP120381   9.204   6.644   1.957 -0.6488 -0.0635  0.5007
  816THY    CP220382   9.274   6.711   1.774  0.2880 -0.4916 -0.4930
  816THY    HP220383   9.360   6.645   1.763 -0.7103 -1.7221 -1.1313
  816THY    HP320384   9.242   6.716   1.669  0.3766 -1.1646 -0.5570
  816THY    HP420385   9.285   6.813   1.814  1.0061 -0.6030 -0.3850
  816THY    CP320386   9.032   6.687   1.838  0.6307  0.1181 -0.6011
  816THY    HP520387   8.964   6.643   1.913 -2.2171  0.7846 -2.6455
  816THY    HP620388   9.036   6.795   1.855 -1.2035 -0.1137  2.1136
  816THY    HP720389   8.984   6.677   1.740 -0.0906  0.5441 -0.3029
  816THY    CA320390   9.197   6.441   1.682  0.6216  0.3160 -0.2746
  816THY    HA320391   9.193   6.505   1.595  0.6396  0.7662  0.0480
  816THY    CA420392   9.194   6.305   1.659  0.5084  0.5401  0.3947
  816THY    HA420393   9.203   6.267   1.558  0.1880 -0.1634  0.6232
  816THY    CA520394   9.201   6.207   1.762 -0.7420 -0.4978 -0.4795
  816THY    CM120395   9.201   6.065   1.726  0.1559  0.2372 -0.9757
  816THY    HM120396   9.258   6.038   1.636  1.3093  0.6831 -0.3978
  816THY    HM220397   9.248   6.001   1.802 -0.2148  0.4518 -0.5606
  816THY    HM320398   9.095   6.037   1.726 -0.3370  1.7812  1.5407
  816THY    CA620399   9.195   6.249   1.894 -0.0322 -0.1925 -0.1562
  816THY    HA620400   9.193   6.176   1.975  3.2869  1.8956  2.0555
  817THY      O20401   2.305   5.173   6.115  0.1653  0.5778  0.8516
  817THY     HO20402   2.353   5.239   6.063  0.0866 -0.8894 -1.2015
  817THY    CA120403   2.199   5.149   6.038 -0.0545 -0.5264 -0.6079
  817THY    CA220404   2.107   5.044   6.060  0.2696 -0.0858 -0.2703
  817THY    CP120405   2.095   4.968   6.199  0.4905  0.4304  0.3457
  817THY    HP120406   2.129   5.036   6.278 -1.3517 -1.0732  2.5477
  817THY    CP220407   1.952   4.939   6.249 -0.0866  0.4204 -0.2904
  817THY    HP220408   1.921   4.846   6.199 -0.7799 -0.3512  1.4698
  817THY    HP320409   1.956   4.931   6.358 -0.1393  0.6783 -0.2696
  817THY    HP420410   1.892   5.027   6.222  0.2094  1.9096  3.3781
  817THY    CP320411   2.175   4.841   6.196 -0.1781  0.6609 -0.4668
  817THY    HP520412   2.282   4.855   6.174 -0.1156  0.5744 -0.2324
  817THY    HP620413   2.159   4.791   6.292 -1.5505 -0.6418 -1.3380
  817THY    HP720414   2.140   4.772   6.118  1.1085 -0.6022  0.0124
  817THY    CA320415   2.031   5.004   5.952 -0.0407  0.6211  0.2230
  817THY    HA320416   1.956   4.928   5.971  1.1638 -0.0362  2.7320
  817THY    CA420417   2.039   5.058   5.825  0.4644  0.3746  0.1607
  817THY    HA420418   1.980   5.034   5.736 -0.0474  1.8114  0.0898
  817THY    CA520419   2.122   5.173   5.809 -0.2595  0.3867 -0.1887
  817THY    CM120420   2.130   5.246   5.671  0.0706  0.3177 -0.1768
  817THY    HM120421   2.060   5.189   5.608  0.3576  1.8379 -1.9387
  817THY    HM220422   2.083   5.345   5.674  1.7331  1.1982 -1.4515
  817THY    HM320423   2.233   5.245   5.634 -0.1320  0.5713 -0.7590
  817THY    CA620424   2.194   5.220   5.911 -0.6420  0.1571  0.4465
  817THY    HA620425   2.248   5.313   5.894 -1.6753  1.1989  2.4772
  818THY      O20426   9.449   6.854   1.303 -0.2310  0.2337  0.3475
  818THY     HO20427   9.532   6.873   1.256  0.4450 -0.6027  1.1635
  818THY    CA120428   9.461   6.727   1.356  0.8816 -1.5520 -0.7963
  818THY    CA220429   9.375   6.622   1.314 -0.2291 -0.0689  0.3061
  818THY    CP120430   9.292   6.642   1.195  0.3545  0.4471  0.6357
  818THY    HP120431   9.266   6.747   1.180 -0.5313  0.0930 -0.4445
  818THY    CP220432   9.361   6.591   1.066  0.7625  0.1643 -0.3559
  818THY    HP220433   9.325   6.652   0.983 -0.0202  3.2962  2.1055
  818THY    HP320434   9.470   6.594   1.081  1.0840 -0.1983 -2.3317
  818THY    HP420435   9.334   6.485   1.054 -1.6302  0.3964  1.9658
  818THY    CP320436   9.158   6.575   1.221  0.4479  0.3895 -0.3878
  818THY    HP520437   9.079   6.611   1.154 -0.5715 -0.5457  0.2855
  818THY    HP620438   9.164   6.468   1.201 -0.9386 -0.0399  1.3129
  818THY    HP720439   9.117   6.600   1.319 -0.5641  0.8888 -0.9153
  818THY    CA320440   9.393   6.500   1.376  0.0676 -0.7580  0.8405
  818THY    HA320441   9.335   6.419   1.332  0.0913 -0.7453  0.7870
  818THY    CA420442   9.502   6.474   1.462  0.1784  0.3663  0.0272
  818THY    HA420443   9.526   6.373   1.495 -0.9598  0.2372  0.5091
  818THY    CA520444   9.575   6.584   1.504  0.3127 -0.0005  0.2219
  818THY    CM120445   9.679   6.563   1.609  0.1120  0.4491  0.2274
  818THY    HM120446   9.724   6.464   1.593 -1.0787 -0.4117  1.7743
  818THY    HM220447   9.755   6.641   1.607 -0.0957  0.6774  0.9400
  818THY    HM320448   9.639   6.544   1.710  1.8868  0.6836  1.0030
  818THY    CA620449   9.552   6.713   1.458  0.0149 -0.6810 -0.1102
  818THY    HA620450   9.601   6.803   1.493  0.8669 -0.9722 -0.5399
  819THY      O20451   4.323   5.761   0.723  0.0850 -0.6926  0.3878
  819THY     HO20452   4.335   5.690   0.788  0.0660  0.4803  1.7235
  819THY    CA120453   4.273   5.854   0.805  0.7112  0.5438 -0.2634
  819THY    CA220454   4.214   5.970   0.751 -0.3257 -0.1389 -0.3001
  819THY    CP120455   4.203   5.988   0.600  0.1776  0.3893 -0.3358
  819THY    HP120456   4.194   5.892   0.547 -0.6083  0.1961  0.1278
  819THY    CP220457   4.076   6.056   0.557  0.4094  0.4297 -0.0357
  819THY    HP220458   4.058   6.037   0.451 -0.7560  0.2026  0.1904
  819THY    HP320459   3.989   6.021   0.614 -0.1366  0.6288 -0.7213
  819THY    HP420460   4.086   6.165   0.566 -1.8899  0.7598 -0.6963
  819THY    CP320461   4.316   6.068   0.540  0.2250  0.0569  0.7303
  819THY    HP520462   4.405   6.017   0.577 -1.3122 -4.1559 -0.8256
  819THY    HP620463   4.330   6.063   0.431  0.2350 -0.7776  0.7661
  819THY    HP720464   4.317   6.176   0.561 -1.2766  0.4303 -0.8231
  819THY    CA320465   4.166   6.072   0.841 -0.1864  0.0151 -0.0341
  819THY    HA320466   4.117   6.165   0.815  0.2856  0.1982 -0.2980
  819THY    CA420467   4.200   6.057   0.973  0.4159 -0.0703  0.1658
  819THY    HA420468   4.172   6.135   1.044  0.9039 -2.0893  2.7300
  819THY    CA520469   4.253   5.943   1.027  0.3428  1.0239  0.3807
  819THY    CM120470   4.265   5.930   1.172 -0.3883 -0.7270 -1.0711
  819THY    HM120471   4.363   5.891   1.200 -0.6191 -1.3372 -1.0971
  819THY    HM220472   4.246   6.025   1.224 -0.6925 -0.8689 -0.9216
  819THY    HM320473   4.185   5.869   1.215  0.4894 -0.0887  1.6822
  819THY    CA620474   4.290   5.837   0.935  0.7480  0.5249 -0.0750
  819THY    HA620475   4.345   5.752   0.975  0.5739  0.2178 -0.4847
  820THY      O20476   9.813   4.866   8.160 -0.4689  0.5633  0.1136
  820THY     HO20477   9.728   4.883   8.116  0.1662  0.2031 -1.2942
  820THY    CA120478   9.822   4.947   8.264 -0.1292 -0.2358  0.1362
  820THY    CA220479   9.836   4.895   8.392  0.1665 -0.3989  0.0053
  820THY    CP120480   9.858   4.749   8.414  0.4129  0.0725 -0.5217
  820THY    HP120481   9.910   4.699   8.332  1.9197 -2.7313  1.9034
  820THY    CP220482   9.950   4.710   8.532  0.6178 -0.1665 -0.4168
  820THY    HP220483  10.045   4.762   8.517 -0.2638  1.2338 -1.4972
  820THY    HP320484   9.908   4.736   8.630  0.4671 -0.7078 -0.3326
  820THY    HP420485   9.949   4.601   8.530  2.8376 -0.2236 -1.4551
  820THY    CP320486   9.723   4.685   8.419  0.2950 -0.0382  0.0578
  820THY    HP520487   9.656   4.764   8.453 -0.9975 -0.9224 -0.3473
  820THY    HP620488   9.703   4.641   8.320  0.7630  0.7897 -0.4079
  820THY    HP720489   9.700   4.609   8.495 -1.3027 -0.7328 -1.0605
  820THY    CA320490   9.831   4.994   8.498  0.2037 -0.5821  0.5308
  820THY    HA320491   9.823   4.967   8.603  0.9685 -1.9439  0.2735
  820THY    CA420492   9.808   5.128   8.479  0.8171 -0.7100  0.0846
  820THY    HA420493   9.806   5.204   8.557  0.3642  0.8433 -1.3722
  820THY    CA520494   9.792   5.174   8.341  0.0947 -0.0158 -0.3029
  820THY    CM120495   9.766   5.319   8.320  0.1277  0.7353 -0.3946
  820THY    HM120496   9.815   5.355   8.229 -1.0694 -0.7605 -1.6917
  820THY    HM220497   9.659   5.340   8.322  0.2469  1.3893 -0.7099
  820THY    HM320498   9.810   5.386   8.394 -0.5113  1.8935 -1.0446
  820THY    CA620499   9.804   5.087   8.237 -0.4937  0.2441  0.3323
  820THY    HA620500   9.784   5.113   8.134  1.8058 -0.1021 -0.2493
  821THY      O20501   8.878   6.295   3.408  0.7410  0.2137  0.1657
  821THY     HO20502   8.866   6.284   3.504 -4.7579  2.0247 -0.0002
  821THY    CA120503   8.993   6.234   3.371  0.3628  0.7435 -0.4304
  821THY    CA220504   9.088   6.307   3.295  0.1472  0.5329  0.3612
  821THY    CP120505   9.036   6.438   3.221  0.1398 -0.1285 -0.3622
  821THY    HP120506   8.943   6.479   3.263 -0.4463  0.8415 -2.4870
  821THY    CP220507   9.130   6.548   3.246 -0.2329  0.1231 -0.4678
  821THY    HP220508   9.176   6.554   3.345  0.2313 -2.6069 -0.4242
  821THY    HP320509   9.213   6.553   3.175 -0.1606  3.5688 -0.2754
  821THY    HP420510   9.072   6.640   3.230  0.9591  0.9111 -0.3731
  821THY    CP320511   9.014   6.430   3.072  0.6142 -0.4860 -0.0529
  821THY    HP520512   9.108   6.417   3.017  0.2885 -1.0140 -0.5039
  821THY    HP620513   8.943   6.347   3.056 -0.0931  0.2908 -1.1511
  821THY    HP720514   8.965   6.525   3.047  3.3264  0.9393 -0.2087
  821THY    CA320515   9.207   6.240   3.259 -0.4579  0.6809 -0.2463
  821THY    HA320516   9.271   6.283   3.183 -0.7779 -0.8595 -1.4192
  821THY    CA420517   9.237   6.112   3.316  0.2450 -0.1030 -0.1419
  821THY    HA420518   9.330   6.061   3.297  0.1648 -1.4295  2.5237
  821THY    CA520519   9.147   6.051   3.402  0.5677  0.1300 -0.0813
  821THY    CM120520   9.170   5.905   3.450 -0.4083 -0.5883 -0.2157
  821THY    HM120521   9.109   5.848   3.379 -1.4572 -0.8716  0.8903
  821THY    HM220522   9.274   5.883   3.424 -0.6796 -0.0678 -1.8477
  821THY    HM320523   9.150   5.897   3.557  2.2691 -0.1261  0.3994
  821THY    CA620524   9.025   6.106   3.418 -0.1623  0.0596  0.4224
  821THY    HA620525   8.949   6.043   3.463 -1.1776  0.7467 -0.2861
  822THY      O20526   2.892   7.640   5.412 -0.1337  0.4289 -0.4156
  822THY     HO20527   2.895   7.586   5.331 -0.4749 -0.9114  0.4411
  822THY    CA120528   3.024   7.665   5.442  0.2455 -1.0062  0.1788
  822THY    CA220529   3.082   7.641   5.572 -0.2622  0.6065  0.2985
  822THY    CP120530   2.991   7.586   5.690  0.7570 -0.1471  0.4575
  822THY    HP120531   2.884   7.581   5.667  0.4897  1.4927  1.1933
  822THY    CP220532   3.047   7.444   5.745  0.1271  0.0515 -0.6907
  822THY    HP220533   3.059   7.373   5.662 -2.0617 -1.5756  0.2938
  822THY    HP320534   3.145   7.464   5.789 -0.5605  2.1520 -0.0040
  822THY    HP420535   2.985   7.388   5.817 -0.2362  3.1936  1.6415
  822THY    CP320536   3.002   7.685   5.807  1.3790  0.1818 -0.2614
  822THY    HP520537   3.107   7.712   5.827  1.5485 -0.0730 -0.7770
  822THY    HP620538   2.945   7.777   5.787  0.4103 -0.6698 -1.5666
  822THY    HP720539   2.955   7.635   5.892 -0.1411 -1.6092 -2.0629
  822THY    CA320540   3.225   7.658   5.583  0.3351  0.2902 -0.0567
  822THY    HA320541   3.270   7.630   5.678 -0.5643 -2.3019 -0.3158
  822THY    CA420542   3.297   7.705   5.483  0.8511  1.4718 -0.1944
  822THY    HA420543   3.406   7.703   5.487  0.8140 -0.2816  0.9909
  822THY    CA520544   3.238   7.722   5.358 -0.2368 -0.1618 -0.1072
  822THY    CM120545   3.329   7.752   5.242  0.4623 -0.3252  0.5955
  822THY    HM120546   3.435   7.727   5.250  0.5153 -0.2590  0.1556
  822THY    HM220547   3.287   7.711   5.149  0.4604 -0.0229  0.4612
  822THY    HM320548   3.325   7.861   5.227  1.3176 -0.4549 -0.7393
  822THY    CA620549   3.101   7.706   5.335  0.9182 -0.2318  0.3686
  822THY    HA620550   3.047   7.719   5.242 -1.0315  0.2799  1.4973
  823THY      O20551   7.267   2.689   1.303  0.2853 -0.2029  0.2410
  823THY     HO20552   7.352   2.735   1.308  0.7109 -1.0646  2.2389
  823THY    CA120553   7.249   2.640   1.181  0.1702 -0.4351  0.2238
  823THY    CA220554   7.118   2.632   1.126 -0.3262  0.3175  0.1698
  823THY    CP120555   6.995   2.668   1.215  0.8159  0.0477 -0.2530
  823THY    HP120556   7.011   2.673   1.323  0.6181 -1.6265 -0.1307
  823THY    CP220557   6.950   2.796   1.167  0.7579 -0.2666  0.2864
  823THY    HP220558   7.022   2.871   1.200  2.9807 -2.4339  0.6966
  823THY    HP320559   6.939   2.804   1.059  0.6930 -0.0867  0.3068
  823THY    HP420560   6.850   2.820   1.206 -0.0672 -0.6417 -1.5264
  823THY    CP320561   6.882   2.565   1.186  0.4534 -0.5790 -0.0589
  823THY    HP520562   6.925   2.466   1.207 -1.8376 -1.4019  1.1902
  823THY    HP620563   6.798   2.584   1.254 -0.0487 -1.0984 -0.5254
  823THY    HP720564   6.837   2.559   1.086 -0.8264 -3.2783  0.5751
  823THY    CA320565   7.107   2.571   0.997  0.5733  0.3517 -0.1962
  823THY    HA320566   7.011   2.561   0.948  0.7480 -0.4487 -0.3855
  823THY    CA420567   7.219   2.544   0.923 -0.4679 -0.3059  0.1497
  823THY    HA420568   7.207   2.519   0.818  1.2019  1.7185 -0.5936
  823THY    CA520569   7.344   2.551   0.977 -0.4681 -0.6775 -0.3201
  823THY    CM120570   7.465   2.500   0.898 -0.6002 -0.4169 -0.1004
  823THY    HM120571   7.450   2.404   0.847  0.2008  0.4593 -2.0633
  823THY    HM220572   7.493   2.573   0.822  0.2108 -0.6731 -0.0634
  823THY    HM320573   7.549   2.481   0.966 -2.3750 -3.0224  1.5815
  823THY    CA620574   7.361   2.599   1.105 -0.2608 -0.1549 -0.5644
  823THY    HA620575   7.462   2.603   1.145  0.2043  0.8661 -1.7796
  824THY      O20576   5.155   0.021   7.282  0.3260  0.1674 -0.2931
  824THY     HO20577   5.108  -0.062   7.261 -1.8873  1.2298  0.1347
  824THY    CA120578   5.167   0.082   7.155 -0.7511 -0.2486 -0.1610
  824THY    CA220579   5.262   0.191   7.134 -0.1768 -0.3688 -0.5427
  824THY    CP120580   5.358   0.227   7.256  0.7297  0.0518  0.3591
  824THY    HP120581   5.304   0.228   7.351 -0.1246 -1.9825 -0.0693
  824THY    CP220582   5.467   0.126   7.275 -0.5614  0.8124 -0.3356
  824THY    HP220583   5.533   0.151   7.358  2.3632  1.1858 -2.6039
  824THY    HP320584   5.423   0.026   7.287  0.6527  0.2568 -0.3978
  824THY    HP420585   5.531   0.135   7.186  0.9233  0.3226  0.6547
  824THY    CP320586   5.422   0.369   7.240 -0.4768  0.5194 -0.5152
  824THY    HP520587   5.479   0.418   7.320 -0.0042 -1.0047  0.1182
  824THY    HP620588   5.498   0.357   7.162 -1.6324 -1.1242 -1.4542
  824THY    HP720589   5.355   0.448   7.206 -0.6954  0.4761 -0.1854
  824THY    CA320590   5.260   0.266   7.023  0.2421  0.0778 -0.1833
  824THY    HA320591   5.326   0.348   6.995  0.5493 -0.3321 -0.6800
  824THY    CA420592   5.180   0.228   6.920  0.2722 -0.6014 -0.6637
  824THY    HA420593   5.180   0.289   6.830  0.7109  0.0262 -0.2455
  824THY    CA520594   5.092   0.115   6.930 -0.6389 -0.0130  0.4964
  824THY    CM120595   4.998   0.081   6.819 -0.4082  0.1224 -0.2373
  824THY    HM120596   4.991   0.164   6.747 -0.1723  0.6474  0.3370
  824THY    HM220597   5.041  -0.003   6.763  1.2704 -0.8307  2.2844
  824THY    HM320598   4.901   0.048   6.859  0.9182 -1.7754  1.6420
  824THY    CA620599   5.087   0.045   7.048  0.2747  0.2192 -0.1774
  824THY    HA620600   5.012  -0.033   7.057  0.4815  0.1888  1.4159
  825THY      O20601   3.217   2.564   3.441 -0.6284  0.6364 -0.1406
  825THY     HO20602   3.244   2.499   3.508  0.2964  1.4744  0.3301
  825THY    CA120603   3.186   2.489   3.326 -0.2521 -0.2483 -0.2726
  825THY    CA220604   3.128   2.548   3.218 -0.6789 -0.0120  0.6886
  825THY    CP120605   3.097   2.692   3.210 -0.4650  0.4092  0.1606
  825THY    HP120606   3.134   2.747   3.297  2.4196  0.5533 -1.0640
  825THY    CP220607   3.165   2.763   3.084  0.1693  0.1833 -1.5861
  825THY    HP220608   3.118   2.856   3.050  1.2636  1.2653 -0.2834
  825THY    HP320609   3.273   2.780   3.092 -0.2598  2.3474  1.1572
  825THY    HP420610   3.145   2.702   2.995 -2.0712  1.0732 -1.7724
  825THY    CP320611   2.949   2.716   3.208  0.4379  0.3732  0.7146
  825THY    HP520612   2.935   2.823   3.232  0.2407  0.2499  1.1644
  825THY    HP620613   2.900   2.701   3.111 -0.1502  0.8516  0.9275
  825THY    HP720614   2.899   2.652   3.282 -0.4695 -0.2353 -0.3854
  825THY    CA320615   3.086   2.472   3.111 -0.5180 -0.1599  0.3059
  825THY    HA320616   3.031   2.514   3.027 -1.6160  0.0304  1.0943
  825THY    CA420617   3.117   2.338   3.102 -0.2107  0.0965  0.7272
  825THY    HA420618   3.096   2.280   3.013  0.4170 -0.8442  1.1770
  825THY    CA520619   3.187   2.279   3.207 -0.5279  0.1679 -1.2650
  825THY    CM120620   3.226   2.130   3.198  0.4530  0.0615  0.3113
  825THY    HM120621   3.168   2.078   3.122 -0.5967 -0.2013  1.2782
  825THY    HM220622   3.329   2.131   3.161  0.4507 -0.1508  0.2985
  825THY    HM320623   3.227   2.069   3.289 -0.2611 -0.2808  0.0915
  825THY    CA620624   3.218   2.354   3.326  0.1454  0.1058 -0.5233
  825THY    HA620625   3.258   2.299   3.410  2.1422  1.5401 -0.4373
  826THY      O20626   8.321   8.425   1.375 -0.0375 -0.1148  0.1907
  826THY     HO20627   8.241   8.370   1.371 -0.0935  0.0424 -1.4389
  826THY    CA120628   8.311   8.513   1.475  0.4122  0.8772  0.7704
  826THY    CA220629   8.420   8.596   1.513 -0.0509  0.0129  0.9081
  826THY    CP120630   8.552   8.574   1.434 -0.3398 -0.3907 -0.1032
  826THY    HP120631   8.528   8.533   1.335 -0.6341 -3.5120  1.1334
  826THY    CP220632   8.624   8.699   1.414  0.5122 -0.7876  0.0103
  826THY    HP220633   8.674   8.723   1.509 -1.3077  0.0952  0.7899
  826THY    HP320634   8.702   8.687   1.339  1.3032 -0.4075  0.7481
  826THY    HP420635   8.554   8.773   1.374  1.9277 -1.1896 -3.5606
  826THY    CP320636   8.649   8.470   1.496  0.1000 -0.0138 -0.2271
  826THY    HP520637   8.687   8.514   1.589 -0.1270  1.8631 -0.9931
  826THY    HP620638   8.611   8.374   1.534 -0.4059  0.9583  1.8622
  826THY    HP720639   8.739   8.466   1.433 -0.3675  1.5010 -1.0195
  826THY    CA320640   8.405   8.673   1.625  0.3638 -0.1066 -0.7126
  826THY    HA320641   8.491   8.726   1.666 -1.1169  1.7693  0.1188
  826THY    CA420642   8.280   8.664   1.701 -0.1423  0.7850 -0.3116
  826THY    HA420643   8.271   8.717   1.796  2.2261 -0.6850  0.8307
  826THY    CA520644   8.172   8.592   1.643  0.6728 -0.6725 -0.6688
  826THY    CM120645   8.043   8.595   1.709  0.5703  0.1615  0.5919
  826THY    HM120646   8.041   8.642   1.808 -0.3576  0.4313  0.4592
  826THY    HM220647   7.987   8.664   1.645  1.7495  1.8486  1.3046
  826THY    HM320648   7.992   8.501   1.733 -1.0796  1.2383  1.5337
  826THY    CA620649   8.188   8.513   1.532 -0.1375 -0.7187 -0.2601
  826THY    HA620650   8.103   8.455   1.498 -0.4303 -1.0156  0.9357
  827THY      O20651   2.733   1.847   8.032 -0.3823 -0.0179 -0.0782
  827THY     HO20652   2.749   1.888   7.945  0.4894 -0.8598 -0.3401
  827THY    CA120653   2.811   1.731   8.044 -0.5049  0.4442  0.7070
  827THY    CA220654   2.805   1.645   8.155  0.7449 -0.3023 -0.4164
  827THY    CP120655   2.706   1.675   8.273  0.4323  0.1165  0.0711
  827THY    HP120656   2.627   1.738   8.228  0.6963 -0.9967 -2.0866
  827THY    CP220657   2.621   1.550   8.310 -0.4546  0.3448 -0.1635
  827THY    HP220658   2.680   1.483   8.373  0.2069 -1.2209 -2.3390
  827THY    HP320659   2.533   1.584   8.367 -0.5143 -0.2414  0.1061
  827THY    HP420660   2.592   1.503   8.216  0.0685  1.6145 -0.9948
  827THY    CP320661   2.756   1.753   8.387 -0.3796 -0.3565 -0.4750
  827THY    HP520662   2.843   1.706   8.434 -0.1388  1.2225  0.7168
  827THY    HP620663   2.790   1.854   8.363  2.5793 -0.7442  1.5303
  827THY    HP720664   2.680   1.772   8.463  1.8317  0.8343  1.5861
  827THY    CA320665   2.890   1.538   8.157  0.3092 -0.4205 -0.6015
  827THY    HA320666   2.878   1.471   8.242 -2.1646  1.8092  0.9701
  827THY    CA420667   2.988   1.524   8.061  0.2815 -0.3076 -0.0122
  827THY    HA420668   3.056   1.440   8.071  0.2815 -0.3943 -0.6866
  827THY    CA520669   3.001   1.616   7.948  0.7029 -0.1305 -0.4434
  827THY    CM120670   3.096   1.595   7.839 -0.6642 -0.2228  0.2570
  827THY    HM120671   3.132   1.690   7.797  1.6647 -1.3154 -0.4143
  827THY    HM220672   3.181   1.536   7.876 -0.4286 -0.3431 -0.4474
  827THY    HM320673   3.046   1.544   7.756 -1.4681 -0.2455  0.7497
  827THY    CA620674   2.906   1.720   7.946 -0.5628  0.2721 -0.5602
  827THY    HA620675   2.915   1.798   7.871  0.8258 -0.4265 -1.1361
  828THY      O20676   2.324   3.327   4.779 -0.1839 -0.2248  0.5244
  828THY     HO20677   2.265   3.322   4.701  0.3571  0.0084  0.0968
  828THY    CA120678   2.255   3.254   4.873 -0.2028  0.3584  0.6552
  828THY    CA220679   2.324   3.173   4.963  0.7397 -0.2000  0.1653
  828THY    CP120680   2.483   3.169   4.975 -0.3761 -0.4521  0.5178
  828THY    HP120681   2.522   3.165   4.872  0.0901  1.7876  0.5518
  828THY    CP220682   2.539   3.297   5.049  0.3161  0.3301  0.4035
  828THY    HP220683   2.486   3.287   5.144 -0.0805  0.0838  0.1623
  828THY    HP320684   2.648   3.296   5.057  0.4663 -1.1273 -1.2041
  828THY    HP420685   2.519   3.383   4.985  1.1962  1.2245  1.3030
  828THY    CP320686   2.534   3.048   5.038 -0.2982  0.2257  0.4546
  828THY    HP520687   2.510   3.028   5.143 -0.1372 -0.1446  0.4212
  828THY    HP620688   2.515   2.953   4.988 -0.2823 -0.3905  1.5753
  828THY    HP720689   2.643   3.056   5.036 -0.3406  0.7420 -0.8065
  828THY    CA320690   2.242   3.100   5.054 -0.2954  0.1723 -0.9443
  828THY    HA320691   2.288   3.042   5.134  0.1593  1.2021 -0.4394
  828THY    CA420692   2.100   3.111   5.048  0.4178 -0.2247  0.5492
  828THY    HA420693   2.039   3.049   5.114  0.3819  0.9377  1.6402
  828THY    CA520694   2.044   3.188   4.946 -0.4988  0.1563 -0.1896
  828THY    CM120695   1.900   3.190   4.927  0.4229  0.2894 -0.2411
  828THY    HM120696   1.876   3.091   4.887  0.7168  0.9249 -2.1165
  828THY    HM220697   1.844   3.198   5.021  0.3189 -1.3064 -0.1361
  828THY    HM320698   1.870   3.269   4.858  1.0964 -0.6906 -1.7159
  828THY    CA620699   2.121   3.259   4.859 -0.4206 -0.3752 -0.5291
  828THY    HA620700   2.083   3.333   4.788 -0.6814 -0.0168 -0.0276
  829THY      O20701   6.692   6.810   9.477 -0.9233 -0.0668  0.2376
  829THY     HO20702   6.620   6.818   9.542 -1.0606 -0.6194  0.1604
  829THY    CA120703   6.767   6.712   9.545 -0.4720  0.1398  0.0869
  829THY    CA220704   6.887   6.659   9.489  0.0331  0.0549  0.6210
  829THY    CP120705   6.937   6.708   9.352  0.2277  0.1786  0.4271
  829THY    HP120706   6.910   6.814   9.348 -0.1736  0.2241  2.8300
  829THY    CP220707   7.086   6.706   9.324 -0.0297  0.4195  0.6462
  829THY    HP220708   7.117   6.778   9.247  0.4499 -1.2611 -0.7987
  829THY    HP320709   7.135   6.729   9.419 -0.1395  1.1323  0.5378
  829THY    HP420710   7.126   6.611   9.286  0.7205  0.9305  0.1260
  829THY    CP320711   6.863   6.631   9.240 -0.5059  0.2300  0.0650
  829THY    HP520712   6.757   6.610   9.257 -1.2614  2.5992 -1.2205
  829THY    HP620713   6.890   6.674   9.143  0.3092  1.4862  0.8134
  829THY    HP720714   6.918   6.536   9.241  1.9214  1.4403  3.5834
  829THY    CA320715   6.962   6.565   9.567 -0.2896  0.2568  0.2689
  829THY    HA320716   7.053   6.527   9.521  0.7386  0.6876  1.8798
  829THY    CA420717   6.910   6.520   9.693 -0.8347 -0.0751  0.2896
  829THY    HA420718   6.965   6.450   9.756 -0.4470 -0.5850 -0.6025
  829THY    CA520719   6.787   6.565   9.739 -0.0916 -0.4012 -0.4333
  829THY    CM120720   6.734   6.504   9.867  0.0929 -0.2252  0.3055
  829THY    HM120721   6.672   6.419   9.836  0.0595  0.3944 -1.4613
  829THY    HM220722   6.818   6.472   9.928  0.8281  0.2765 -0.4225
  829THY    HM320723   6.689   6.580   9.933  2.5214  1.1967  0.4552
  829THY    CA620724   6.718   6.666   9.668 -0.1506 -0.5308 -0.7024
  829THY    HA620725   6.624   6.698   9.711  1.5195  1.0183  2.1361
  830THY      O20726   1.002   0.627   0.405 -0.2404 -0.0670 -0.6017
  830THY     HO20727   0.956   0.685   0.467 -2.6249  1.1923 -3.2710
  830THY    CA120728   0.903   0.566   0.344  0.0783  0.7313  0.5081
  830THY    CA220729   0.915   0.477   0.237  0.2902  0.1761  0.3459
  830THY    CP120730   1.044   0.456   0.176 -0.6939  0.0513 -0.0009
  830THY    HP120731   1.122   0.513   0.227 -1.8824  0.3135  1.5731
  830THY    CP220732   1.085   0.308   0.188 -0.3094 -0.0771 -0.3960
  830THY    HP220733   1.018   0.232   0.146  0.0220  0.5261 -2.0846
  830THY    HP320734   1.183   0.275   0.151  0.1763 -0.4635  1.1571
  830THY    HP420735   1.085   0.300   0.297  0.9046 -1.5355 -0.4748
  830THY    CP320736   1.060   0.507   0.035 -0.9202  0.1072  0.1922
  830THY    HP520737   1.071   0.616   0.032 -0.5896  0.1278  1.3068
  830THY    HP620738   1.154   0.462  -0.001  0.2111  1.7883  0.8870
  830THY    HP720739   0.984   0.470  -0.034 -0.7252 -1.1638  0.6336
  830THY    CA320740   0.797   0.413   0.184  0.8044  0.9414 -1.1637
  830THY    HA320741   0.803   0.348   0.097 -0.3780 -1.0092  0.1037
  830THY    CA420742   0.675   0.449   0.229 -0.6581 -0.7139  0.4226
  830THY    HA420743   0.592   0.409   0.170  1.2112 -0.5980 -2.5183
  830THY    CA520744   0.664   0.543   0.334 -0.7161 -0.1005 -0.1911
  830THY    CM120745   0.532   0.590   0.389  0.0869  1.1922  0.4059
  830THY    HM120746   0.447   0.532   0.352  1.5678 -1.2055  0.5307
  830THY    HM220747   0.535   0.584   0.498 -0.4836  0.1679  0.3755
  830THY    HM320748   0.517   0.694   0.359  1.3848  1.1385 -0.5398
  830THY    CA620749   0.780   0.604   0.386  0.9070  0.2497 -0.6579
  830THY    HA620750   0.766   0.671   0.471 -3.0702  0.3126 -1.1725
  831THY      O20751   6.348   4.775   5.789 -0.2107 -0.0401  0.2686
  831THY     HO20752   6.419   4.708   5.791 -0.1073  0.0461 -0.3453
  831THY    CA120753   6.229   4.716   5.773  0.1247 -0.1635 -0.3846
  831THY    CA220754   6.114   4.770   5.822 -0.0238 -0.3019  0.0208
  831THY    CP120755   6.111   4.900   5.900 -0.0000 -0.4933 -0.1005
  831THY    HP120756   6.210   4.947   5.896  0.7870 -2.0665 -0.2693
  831THY    CP220757   6.025   5.018   5.846  0.5582  1.0027  0.5052
  831THY    HP220758   6.050   5.028   5.739  0.9747 -3.2618  0.0222
  831THY    HP320759   5.920   4.996   5.868  0.8363 -0.9075  0.1027
  831THY    HP420760   6.054   5.110   5.897  1.2089  0.9150  0.3166
  831THY    CP320761   6.065   4.869   6.044  0.7328 -0.4204  0.5558
  831THY    HP520762   6.047   4.955   6.110  0.8314 -0.2744  0.3914
  831THY    HP620763   5.973   4.810   6.045 -1.0602  2.1656 -0.2796
  831THY    HP720764   6.145   4.810   6.091 -0.0846 -0.6977  1.6286
  831THY    CA320765   5.991   4.707   5.792  0.3341  0.1872 -0.3487
  831THY    HA320766   5.900   4.752   5.831  0.1199 -1.1537  0.7816
  831THY    CA420767   6.000   4.579   5.725 -0.0949 -0.6311  0.1600
  831THY    HA420768   5.910   4.526   5.695 -0.6491  1.4947 -2.3014
  831THY    CA520769   6.121   4.522   5.686 -0.1499  0.5673 -0.9220
  831THY    CM120770   6.126   4.383   5.627 -0.2468 -0.0607 -1.2296
  831THY    HM120771   6.090   4.317   5.707 -0.0221  0.0457 -1.0378
  831THY    HM220772   6.058   4.371   5.542 -1.1612  3.1238 -1.1020
  831THY    HM320773   6.224   4.354   5.587  1.4574 -0.0759  2.4814
  831THY    CA620774   6.239   4.591   5.714  0.2690 -0.6932 -0.1560
  831THY    HA620775   6.336   4.551   5.686  1.7539  1.3096  1.8135
  832THY      O20776   0.715   0.853   7.042  0.2197  0.3499 -0.0595
  832THY     HO20777   0.727   0.838   7.137  0.0697 -0.1443 -0.1170
  832THY    CA120778   0.589   0.819   7.001  0.5987  0.2448 -0.3412
  832THY    CA220779   0.562   0.822   6.866 -0.0342 -0.8067 -0.0230
  832THY    CP120780   0.674   0.858   6.763  0.5088 -0.5769 -0.3499
  832THY    HP120781   0.740   0.935   6.807  0.3213  1.3908 -3.2802
  832THY    CP220782   0.749   0.730   6.731  0.1676 -0.3901 -0.0635
  832THY    HP220783   0.831   0.748   6.660 -0.9752  0.5195 -1.2011
  832THY    HP320784   0.799   0.676   6.813  0.9761  0.3027 -0.0859
  832THY    HP420785   0.681   0.653   6.694  0.0795 -0.4024  0.1196
  832THY    CP320786   0.632   0.935   6.646  0.7884  0.2805 -0.0476
  832THY    HP520787   0.573   1.022   6.677  0.9337  0.5765 -0.5941
  832THY    HP620788   0.720   0.970   6.591  1.1571  0.7208  0.8120
  832THY    HP720789   0.578   0.879   6.568 -0.4102  2.6554 -1.0289
  832THY    CA320790   0.430   0.790   6.828  0.0602 -0.2006  0.3967
  832THY    HA320791   0.388   0.800   6.728  0.3785 -1.7944  0.0783
  832THY    CA420792   0.335   0.761   6.926  0.8075 -0.5012 -0.0105
  832THY    HA420793   0.232   0.753   6.893  0.3936  1.6404  0.5894
  832THY    CA520794   0.365   0.754   7.065  0.5828 -0.0661  1.0762
  832THY    CM120795   0.261   0.726   7.167  0.1748  0.0633  0.8041
  832THY    HM120796   0.205   0.633   7.151  0.0277  0.3367 -0.3297
  832THY    HM220797   0.303   0.724   7.268 -0.2878 -0.5875  0.9904
  832THY    HM320798   0.192   0.810   7.165 -0.3137 -0.3219  1.2677
  832THY    CA620799   0.495   0.784   7.098  0.3160 -0.5060 -0.0206
  832THY    HA620800   0.524   0.778   7.203  0.6598  2.9153  0.1689
  833THY      O20801   3.415   1.872   3.109  0.0986  0.0119 -0.3852
  833THY     HO20802   3.350   1.803   3.087  0.0571 -0.2533  0.5339
  833THY    CA120803   3.450   1.840   3.234 -0.1413 -0.0261 -0.0866
  833THY    CA220804   3.560   1.892   3.299  0.5824  0.1114  0.6841
  833THY    CP120805   3.670   1.951   3.209  0.4629  0.5811 -0.2154
  833THY    HP120806   3.624   2.007   3.127  2.3488  0.1942 -1.6140
  833THY    CP220807   3.760   2.049   3.289  0.0983  0.3433  1.0291
  833THY    HP220808   3.803   2.010   3.382  1.9308  2.6889  1.2533
  833THY    HP320809   3.849   2.074   3.230 -0.5390  3.0359  1.0985
  833THY    HP420810   3.706   2.143   3.304 -0.8107  0.2299 -1.2069
  833THY    CP320811   3.762   1.842   3.159  0.1411  0.2414  0.5425
  833THY    HP520812   3.708   1.754   3.124 -0.0675 -0.0242  1.4968
  833THY    HP620813   3.821   1.890   3.080 -0.6326 -3.0254 -2.2319
  833THY    HP720814   3.829   1.807   3.239  0.1271  0.4960  0.6692
  833THY    CA320815   3.590   1.844   3.428  0.5996 -0.5042  0.8716
  833THY    HA320816   3.692   1.866   3.461  1.3259  0.2354 -1.6220
  833THY    CA420817   3.505   1.756   3.497  0.4538 -0.1038  0.5955
  833THY    HA420818   3.526   1.724   3.598  1.4591 -3.4091 -0.5168
  833THY    CA520819   3.392   1.704   3.435  0.1748  0.5232 -0.4533
  833THY    CM120820   3.295   1.618   3.510 -0.5164  0.8894  0.5982
  833THY    HM120821   3.353   1.555   3.579  2.1021  0.7233 -1.5938
  833THY    HM220822   3.226   1.681   3.568  0.1284  1.0290  1.2270
  833THY    HM320823   3.235   1.549   3.450  2.5601 -1.4448 -0.0509
  833THY    CA620824   3.366   1.750   3.302 -0.3029  0.5660  0.6828
  833THY    HA620825   3.272   1.724   3.256 -0.7056  0.7428  1.3884
  834THY      O20826   2.159   6.925   3.705  0.2233 -0.0876  0.2225
  834THY     HO20827   2.082   6.955   3.655 -0.4080 -1.4316  0.3294
  834THY    CA120828   2.155   7.011   3.814 -0.1251 -0.3617 -0.1014
  834THY    CA220829   2.240   6.990   3.920 -0.6207 -0.0734 -0.2950
  834THY    CP120830   2.341   6.875   3.916 -0.0239 -0.7484  0.2790
  834THY    HP120831   2.374   6.871   3.812 -0.1761  0.3422  0.1843
  834THY    CP220832   2.475   6.896   3.993 -1.8099 -0.0714 -0.0218
  834THY    HP220833   2.556   6.879   3.921 -2.6108 -0.1784 -0.9294
  834THY    HP320834   2.488   7.001   4.022 -0.2475 -0.0481 -0.6935
  834THY    HP420835   2.486   6.837   4.085 -0.8839  1.6598  1.0210
  834THY    CP320836   2.276   6.735   3.941  0.0727 -0.0162 -0.5879
  834THY    HP520837   2.354   6.657   3.939 -0.5474 -0.6552 -0.1946
  834THY    HP620838   2.220   6.729   4.035  1.1846 -0.2110  0.0800
  834THY    HP720839   2.205   6.711   3.861 -0.9044 -0.7202  0.4597
  834THY    CA320840   2.232   7.074   4.031 -0.6060  0.6048 -0.0380
  834THY    HA320841   2.302   7.066   4.114 -1.8675 -1.2760  0.9018
  834THY    CA420842   2.138   7.180   4.031 -0.6508 -0.7368  0.2277
  834THY    HA420843   2.137   7.257   4.108  1.5856  1.5470 -1.8556
  834THY    CA520844   2.052   7.194   3.922 -0.4281  0.3754 -0.1671
  834THY    CM120845   1.946   7.307   3.930 -0.6499 -0.1703  0.0574
  834THY    HM120846   1.993   7.402   3.955  0.4567 -0.8523  0.6492
  834THY    HM220847   1.906   7.322   3.829  1.3205  0.3213 -0.7052
  834THY    HM320848   1.864   7.293   4.001 -0.2174  1.4910  0.9323
  834THY    CA620849   2.057   7.107   3.812  0.2929 -0.2335 -0.2479
  834THY    HA620850   1.988   7.125   3.730  1.2597  0.8349 -0.8650
  835THY      O20851   8.255   3.831   1.776 -0.0883 -0.0390 -0.5878
  835THY     HO20852   8.183   3.798   1.720  0.0299  0.9932 -1.3749
  835THY    CA120853   8.319   3.732   1.839 -0.6036  0.2450 -0.2648
  835THY    CA220854   8.345   3.736   1.976 -0.3008 -0.2878 -1.4276
  835THY    CP120855   8.290   3.864   2.054  0.1064  0.1257  0.1982
  835THY    HP120856   8.194   3.901   2.016 -0.4763  1.6117  2.8335
  835THY    CP220857   8.275   3.841   2.206 -0.3260 -0.2481  0.1188
  835THY    HP220858   8.216   3.921   2.252 -0.6130 -1.8121  2.6135
  835THY    HP320859   8.238   3.741   2.231 -1.6780  0.3038  0.4092
  835THY    HP420860   8.374   3.840   2.255 -0.8514 -0.4417  1.1969
  835THY    CP320861   8.390   3.975   2.029 -0.0273  0.2743  0.1317
  835THY    HP520862   8.402   4.000   1.923 -0.4267 -1.1108 -0.2582
  835THY    HP620863   8.364   4.072   2.073 -1.3469  0.0907 -0.1756
  835THY    HP720864   8.485   3.953   2.079 -1.1611 -2.0567  1.4526
  835THY    CA320865   8.427   3.638   2.034  0.3464 -0.5375  0.1061
  835THY    HA320866   8.452   3.639   2.140 -0.1476  0.8512  0.2365
  835THY    CA420867   8.485   3.540   1.952 -0.6209 -0.7967 -0.0007
  835THY    HA420868   8.562   3.476   1.994  0.2547 -0.4263 -0.9888
  835THY    CA520869   8.459   3.539   1.816  0.1297 -0.0899  0.5066
  835THY    CM120870   8.535   3.445   1.723 -0.0712 -0.3391  0.2270
  835THY    HM120871   8.490   3.437   1.623  0.7529 -0.5898 -0.1278
  835THY    HM220872   8.642   3.466   1.728 -0.2751  0.9499 -0.3159
  835THY    HM320873   8.542   3.339   1.748  3.2453 -0.9626 -2.6808
  835THY    CA620874   8.384   3.639   1.757  0.8135  0.1673 -0.3027
  835THY    HA620875   8.384   3.649   1.649  0.1300 -2.4373 -0.6226
  836THY      O20876   2.760   3.651   7.405 -0.0776  0.2336 -0.2113
  836THY     HO20877   2.732   3.733   7.450 -1.8543  0.3834 -1.4690
  836THY    CA120878   2.792   3.692   7.280  0.6899  0.1377  0.2299
  836THY    CA220879   2.698   3.749   7.184 -0.6431 -0.6441 -0.6521
  836THY    CP120880   2.559   3.805   7.230  0.2738 -0.1693  0.7343
  836THY    HP120881   2.508   3.735   7.297 -3.4301  0.8575 -0.7850
  836THY    CP220882   2.583   3.937   7.292 -0.0131 -0.5529 -0.1931
  836THY    HP220883   2.489   3.977   7.332  0.2498  0.6108 -0.6880
  836THY    HP320884   2.665   3.937   7.364  0.4124  0.3112 -0.6580
  836THY    HP420885   2.608   4.014   7.219 -1.9109  0.1401 -0.1825
  836THY    CP320886   2.454   3.822   7.116  0.4199 -0.3086 -0.3845
  836THY    HP520887   2.469   3.923   7.074 -0.1569  0.0779  0.3260
  836THY    HP620888   2.462   3.744   7.039 -0.2879 -0.9835  0.2176
  836THY    HP720889   2.357   3.808   7.164  0.8079 -2.1436 -0.0831
  836THY    CA320890   2.744   3.766   7.054  0.0752  0.3050 -0.3964
  836THY    HA320891   2.690   3.828   6.983 -0.5355 -0.9040 -1.0172
  836THY    CA420892   2.872   3.722   7.017  0.2577 -0.1383  0.3599
  836THY    HA420893   2.919   3.745   6.922  1.2481  0.3199  0.9365
  836THY    CA520894   2.958   3.662   7.104  0.4291  0.4375 -0.7666
  836THY    CM120895   3.097   3.611   7.057 -0.3592 -0.1947  0.4951
  836THY    HM120896   3.109   3.508   7.023 -0.0732  0.1559 -0.4950
  836THY    HM220897   3.137   3.666   6.971  0.2213 -1.9162 -0.3935
  836THY    HM320898   3.167   3.624   7.140  0.2944 -0.2646 -0.0310
  836THY    CA620899   2.919   3.646   7.241  0.8567  0.3364 -0.4544
  836THY    HA620900   2.988   3.604   7.313 -0.6707 -0.0460  0.8250
  837THY      O20901   6.186   6.276   8.397  0.0420  0.3197 -0.1342
  837THY     HO20902   6.208   6.305   8.307 -1.4845 -1.0776 -1.0228
  837THY    CA120903   6.220   6.373   8.477  0.0541 -0.3996  0.1270
  837THY    CA220904   6.154   6.398   8.601 -0.3442 -0.2775 -0.2225
  837THY    CP120905   6.030   6.316   8.635 -0.2298  0.5222 -0.2237
  837THY    HP120906   6.046   6.217   8.589 -0.9172  0.0232  0.5785
  837THY    CP220907   6.021   6.306   8.782 -0.2639  0.2471 -0.5796
  837THY    HP220908   6.119   6.267   8.814  1.5059  1.6914 -3.7614
  837THY    HP320909   5.997   6.393   8.844  0.7962 -0.7169  1.2525
  837THY    HP420910   5.945   6.234   8.814  0.9669 -0.4785  0.8375
  837THY    CP320911   5.906   6.382   8.577  0.1010 -0.0082 -0.2565
  837THY    HP520912   5.808   6.347   8.614 -0.1396 -2.7301 -3.1148
  837THY    HP620913   5.915   6.490   8.594  0.9681  0.2743 -2.3288
  837THY    HP720914   5.900   6.377   8.468 -2.4847  1.4703 -0.2721
  837THY    CA320915   6.207   6.503   8.680 -0.5677 -0.2396 -0.4583
  837THY    HA320916   6.162   6.526   8.776 -1.2790 -0.1404 -0.8043
  837THY    CA420917   6.322   6.579   8.641  0.7258  0.3029  0.2619
  837THY    HA420918   6.371   6.652   8.703 -2.3092  1.5613  1.3660
  837THY    CA520919   6.369   6.560   8.512  0.0590  0.5740 -0.0371
  837THY    CM120920   6.476   6.641   8.458  0.1989  0.1085  0.1615
  837THY    HM120921   6.527   6.693   8.540  0.3777  1.2563 -0.6484
  837THY    HM220922   6.559   6.578   8.424  1.1542  1.4669 -0.0861
  837THY    HM320923   6.454   6.720   8.385 -0.8638 -0.0391  0.3142
  837THY    CA620924   6.325   6.446   8.432 -0.6912  0.5341 -0.1491
  837THY    HA620925   6.366   6.430   8.332  0.0749  1.3459  0.0185
  838THY      O20926   7.087   7.528   0.004  0.2804 -0.1030 -0.2920
  838THY     HO20927   7.139   7.524  -0.078  3.4568 -1.5897  1.5736
  838THY    CA120928   7.092   7.661   0.036 -0.6994  0.0983 -0.2378
  838THY    CA220929   6.990   7.716   0.120 -0.1096 -0.1201 -0.0270
  838THY    CP120930   6.889   7.622   0.174  0.3710  0.7817 -0.5110
  838THY    HP120931   6.848   7.562   0.092 -0.0783 -0.9195  0.9032
  838THY    CP220932   6.950   7.518   0.277  0.7377  0.8344  0.5746
  838THY    HP220933   6.872   7.487   0.348 -0.1567  0.0732 -0.7026
  838THY    HP320934   6.991   7.428   0.230  1.0086  0.3591  1.6910
  838THY    HP420935   7.029   7.553   0.344  1.8122 -2.4497  1.1957
  838THY    CP320936   6.758   7.694   0.221  0.2522  0.1107  0.3696
  838THY    HP520937   6.678   7.623   0.244  0.2561  0.1495  0.5056
  838THY    HP620938   6.782   7.759   0.306 -3.6988  1.3758  0.7381
  838THY    HP720939   6.722   7.755   0.138  0.2370 -2.6294 -1.7550
  838THY    CA320940   7.002   7.848   0.155 -0.2349  0.5820 -0.3567
  838THY    HA320941   6.937   7.905   0.220  0.1330 -0.1428  0.6790
  838THY    CA420942   7.120   7.921   0.119 -0.4170  0.7959  1.1843
  838THY    HA420943   7.135   8.027   0.136  2.6145  0.7116 -0.2410
  838THY    CA520944   7.223   7.860   0.043 -0.1670 -0.0586 -0.6096
  838THY    CM120945   7.348   7.937   0.009  0.2423 -0.5942 -0.6389
  838THY    HM120946   7.347   7.986  -0.089  1.3942 -0.2100 -0.4697
  838THY    HM220947   7.348   8.026   0.071 -1.5742 -0.1965 -1.1516
  838THY    HM320948   7.438   7.877   0.027  0.1086 -0.7225 -0.3963
  838THY    CA620949   7.207   7.730  -0.006  0.2852  0.4676  0.4414
  838THY    HA620950   7.281   7.687  -0.073 -1.0870 -0.4679 -0.5489
  839THY      O20951   6.868   0.656   5.805 -0.2520 -0.3142 -0.0119
  839THY     HO20952   6.950   0.687   5.763 -1.2568  0.9912 -1.1385
  839THY    CA120953   6.810   0.569   5.722 -0.3149  0.1858  0.0504
  839THY    CA220954   6.670   0.555   5.724 -0.1967 -0.1200 -0.1928
  839THY    CP120955   6.586   0.648   5.808 -0.2639 -0.1039 -0.0981
  839THY    HP120956   6.643   0.709   5.879 -0.7124 -0.6242  0.7317
  839THY    CP220957   6.499   0.748   5.722  0.1454 -0.7185 -0.3247
  839THY    HP220958   6.570   0.813   5.669  0.0305  0.9641  1.4710
  839THY    HP320959   6.435   0.695   5.650  0.5769  0.6258 -1.7395
  839THY    HP420960   6.433   0.813   5.780  1.2846  1.3492 -1.2237
  839THY    CP320961   6.484   0.564   5.893 -0.1437 -0.1585  0.0479
  839THY    HP520962   6.408   0.524   5.825 -0.7845  0.4967  0.3631
  839THY    HP620963   6.512   0.477   5.953  0.1337  0.3692  0.7037
  839THY    HP720964   6.432   0.635   5.959 -0.2627 -0.3548  0.1648
  839THY    CA320965   6.614   0.465   5.636  0.5310 -0.7031 -0.3702
  839THY    HA320966   6.506   0.452   5.645  0.4728 -0.8253 -1.1547
  839THY    CA420967   6.693   0.386   5.548 -0.1737  0.3486 -0.5629
  839THY    HA420968   6.650   0.309   5.485 -0.6715  2.6340 -3.1970
  839THY    CA520969   6.833   0.403   5.550 -0.0889 -0.0822 -0.3841
  839THY    CM120970   6.921   0.311   5.462 -0.5409  0.4208  0.2981
  839THY    HM120971   6.992   0.354   5.392  1.4908 -2.0050  0.7200
  839THY    HM220972   6.978   0.234   5.516 -0.0604  0.1258 -0.6269
  839THY    HM320973   6.858   0.257   5.390 -0.3503  0.1314  0.3466
  839THY    CA620974   6.893   0.496   5.634  0.7920 -0.4404 -0.0832
  839THY    HA620975   7.001   0.505   5.637  0.7284  0.2234  0.4221
  840THY      O20976   3.343   8.746   0.716  0.1711  0.8184  0.7174
  840THY     HO20977   3.273   8.683   0.742  0.4084  0.8519  1.4774
  840THY    CA120978   3.386   8.767   0.842 -0.1432 -0.4224  1.2390
  840THY    CA220979   3.479   8.874   0.865 -0.2810  1.2859  0.4558
  840THY    CP120980   3.546   8.940   0.742 -0.1260  0.6840 -0.3543
  840THY    HP120981   3.567   8.864   0.665 -0.5647 -1.1815  1.2980
  840THY    CP220982   3.458   9.042   0.668 -0.0961  0.3447  0.6880
  840THY    HP220983   3.356   9.001   0.663  0.3650 -0.8989  1.1241
  840THY    HP320984   3.454   9.131   0.732  1.7824 -0.1658  1.5598
  840THY    HP420985   3.492   9.081   0.572 -3.0273 -1.7664 -1.3875
  840THY    CP320986   3.679   9.008   0.775 -0.0968  0.5313 -0.3297
  840THY    HP520987   3.656   9.099   0.833 -0.3022  0.0986  0.2773
  840THY    HP620988   3.743   8.937   0.829  0.6487 -0.3390 -2.2486
  840THY    HP720989   3.737   9.020   0.683 -0.9974 -2.3392 -1.3741
  840THY    CA320990   3.512   8.908   0.993 -0.3454 -0.2641  0.2761
  840THY    HA320991   3.597   8.968   1.022  0.6338 -1.6353  0.3578
  840THY    CA420992   3.448   8.840   1.099  0.2623 -0.2987 -0.3128
  840THY    HA420993   3.480   8.858   1.202  1.2979  2.5054 -1.0331
  840THY    CA520994   3.345   8.747   1.081 -0.0708  0.0686 -0.2872
  840THY    CM120995   3.282   8.692   1.207  0.3585 -0.3535 -0.2510
  840THY    HM120996   3.337   8.726   1.295  0.7079  0.4261 -0.7651
  840THY    HM220997   3.176   8.721   1.211  0.5484  0.3723 -0.3380
  840THY    HM320998   3.279   8.582   1.207  0.6510 -0.3619  0.3596
  840THY    CA620999   3.316   8.709   0.948  0.4497  0.7628 -0.3000
  840THY    HA621000   3.233   8.641   0.928  0.7198 -0.0290  1.0882
  841THY      O21001   5.701   6.289   6.181 -0.2458 -0.1806  0.4137
  841THY     HO21002   5.644   6.228   6.130  1.4248 -0.1366 -1.6579
  841THY    CA121003   5.677   6.410   6.134 -0.3454  0.3462  0.4277
  841THY    CA221004   5.753   6.524   6.177  0.3323 -0.2000 -0.8710
  841THY    CP121005   5.868   6.515   6.278  0.0997 -0.8479 -0.8466
  841THY    HP121006   5.870   6.416   6.326  0.8867 -1.5121 -2.1832
  841THY    CP221007   5.996   6.526   6.199  0.3507 -0.4960  1.0938
  841THY    HP221008   6.015   6.436   6.140 -0.2323 -0.4942  0.8926
  841THY    HP321009   5.990   6.601   6.118 -2.7451 -0.1191  1.5334
  841THY    HP421010   6.087   6.551   6.255  2.1884 -0.6294 -1.6149
  841THY    CP321011   5.866   6.627   6.382 -0.0850  0.0156 -1.0945
  841THY    HP521012   5.950   6.626   6.453  0.3473 -0.6973 -1.5964
  841THY    HP621013   5.858   6.727   6.339  0.0626 -0.4991 -2.3736
  841THY    HP721014   5.778   6.601   6.442  0.6430 -0.2412 -0.1080
  841THY    CA321015   5.727   6.646   6.110  0.0626  0.3823  0.1490
  841THY    HA321016   5.782   6.736   6.133 -1.7340  1.6741 -0.4011
  841THY    CA421017   5.632   6.659   6.013  0.4664 -0.6197  0.2730
  841THY    HA421018   5.617   6.753   5.961 -1.7067 -0.6995  0.6745
  841THY    CA521019   5.549   6.553   5.981  0.7716  0.5576 -0.2949
  841THY    CM121020   5.436   6.556   5.884 -0.1444 -0.1607  0.4527
  841THY    HM121021   5.393   6.656   5.869 -0.2699 -0.3411 -0.4874
  841THY    HM221022   5.478   6.535   5.785  0.1599 -0.3815  0.6294
  841THY    HM321023   5.348   6.491   5.897  0.1239 -0.7305 -0.4685
  841THY    CA621024   5.573   6.427   6.046  0.0985  0.1631  0.1764
  841THY    HA621025   5.509   6.341   6.029  0.7144 -0.5324  1.2362
  842THY      O21026   5.609   5.438   0.905  0.2111  0.5138 -0.0203
  842THY     HO21027   5.681   5.389   0.861  0.8548  1.2060  0.2368
  842THY    CA121028   5.653   5.460   1.035  0.2177  0.6442 -0.2343
  842THY    CA221029   5.573   5.538   1.130  0.2229  0.4525  0.0355
  842THY    CP121030   5.451   5.614   1.079  0.1773 -1.3081 -0.0297
  842THY    HP121031   5.411   5.576   0.984  0.7073 -1.5202 -0.1719
  842THY    CP221032   5.329   5.584   1.184 -0.2563 -0.7494  0.2242
  842THY    HP221033   5.338   5.648   1.273  0.9982 -0.0008 -0.4141
  842THY    HP321034   5.237   5.623   1.139  0.5297  1.9750  0.7823
  842THY    HP421035   5.311   5.477   1.198  1.9852 -0.9789  1.8576
  842THY    CP321036   5.468   5.764   1.065 -0.0545 -0.3824 -0.2998
  842THY    HP521037   5.528   5.788   0.977 -0.4558  2.8507  0.1825
  842THY    HP621038   5.374   5.818   1.047  1.2047  1.6784 -1.0092
  842THY    HP721039   5.520   5.811   1.149  1.8235 -1.1279 -0.9920
  842THY    CA321040   5.632   5.563   1.252 -0.2958  0.0920 -0.6916
  842THY    HA321041   5.583   5.633   1.320 -0.2567 -0.0965 -0.4670
  842THY    CA421042   5.758   5.508   1.285 -0.1732 -0.5880 -0.5130
  842THY    HA421043   5.804   5.536   1.379 -0.3899  1.1713 -0.8912
  842THY    CA521044   5.824   5.426   1.193  0.4557  0.0031 -0.5519
  842THY    CM121045   5.966   5.383   1.226  0.2795 -0.2230  0.3643
  842THY    HM121046   5.966   5.364   1.334  0.8269 -0.2481  0.3618
  842THY    HM221047   6.006   5.298   1.170 -1.6872  0.0448 -1.6434
  842THY    HM321048   6.033   5.466   1.200  0.1072 -0.6449 -1.6186
  842THY    CA621049   5.766   5.397   1.069  0.0899 -0.0119 -0.9259
  842THY    HA621050   5.828   5.340   0.999  2.1778 -0.4844  1.1634
  843THY      O21051   5.518   7.397   5.032  0.6845  0.0223  0.0582
  843THY     HO21052   5.601   7.353   5.006 -0.0165 -1.6746  0.5977
  843THY    CA121053   5.486   7.480   4.924 -0.0835  0.3128  0.6282
  843THY    CA221054   5.587   7.537   4.838  0.2295  0.4385  0.3880
  843THY    CP121055   5.737   7.519   4.870  0.1982 -0.4344  0.2218
  843THY    HP121056   5.741   7.418   4.913  0.2575  0.4896  2.4905
  843THY    CP221057   5.839   7.542   4.758  0.0539 -0.6870 -0.1652
  843THY    HP221058   5.803   7.487   4.670 -1.3999  0.2089 -0.1606
  843THY    HP321059   5.849   7.645   4.722  0.6465 -1.5284 -2.6161
  843THY    HP421060   5.941   7.512   4.785  0.9926  1.7782 -0.7154
  843THY    CP321061   5.783   7.620   4.974 -0.0343 -0.2551  0.2903
  843THY    HP521062   5.892   7.619   4.986  0.2008  0.8036 -1.4533
  843THY    HP621063   5.746   7.718   4.939 -0.5378 -0.9159 -1.0949
  843THY    HP721064   5.729   7.589   5.064 -1.8237 -2.1811 -1.3429
  843THY    CA321065   5.547   7.620   4.732 -0.0261  0.5063 -0.5045
  843THY    HA321066   5.618   7.687   4.685  1.5166 -1.3387 -0.9108
  843THY    CA421067   5.412   7.649   4.712 -0.0505  0.0910 -0.3792
  843THY    HA421068   5.378   7.723   4.640  1.6396  1.3591  0.0605
  843THY    CA521069   5.316   7.591   4.783 -0.1445  0.5814 -0.2248
  843THY    CM121070   5.169   7.616   4.768  0.0609 -0.2017 -0.5028
  843THY    HM121071   5.144   7.716   4.730 -1.2432 -0.6157 -0.8112
  843THY    HM221072   5.127   7.541   4.700  2.5375 -1.8649 -0.3205
  843THY    HM321073   5.117   7.603   4.864  0.7218 -1.3465 -0.2840
  843THY    CA621074   5.351   7.508   4.888 -0.4760 -0.3027  0.1943
  843THY    HA621075   5.274   7.464   4.951  0.3375  0.9012  2.1141
  844THY      O21076   3.579   5.020   1.531  0.3088  0.3569 -0.4639
  844THY     HO21077   3.551   4.956   1.464 -0.7861  1.7667 -1.3917
  844THY    CA121078   3.683   4.962   1.599  0.0757 -0.1671  0.4092
  844THY    CA221079   3.769   5.042   1.680  0.5448  0.5611 -0.1810
  844THY    CP121080   3.725   5.182   1.707  0.4819  0.3124  0.3401
  844THY    HP121081   3.647   5.211   1.636 -1.4503  0.8593  2.5573
  844THY    CP221082   3.642   5.173   1.843 -0.0264 -0.1763 -0.7005
  844THY    HP221083   3.559   5.103   1.830  0.6009 -1.1654  0.4287
  844THY    HP321084   3.709   5.141   1.923  0.1601 -2.9774 -1.8604
  844THY    HP421085   3.604   5.274   1.860  2.0625  0.7566 -1.3392
  844THY    CP321086   3.839   5.283   1.714  0.2883 -0.3937 -0.3679
  844THY    HP521087   3.901   5.265   1.803  1.1440 -1.1043 -1.0968
  844THY    HP621088   3.910   5.261   1.634  1.7256 -2.7753  1.4038
  844THY    HP721089   3.803   5.386   1.714 -0.0954 -0.5282 -0.8581
  844THY    CA321090   3.884   4.984   1.741 -0.6472 -0.2876  0.0398
  844THY    HA321091   3.944   5.045   1.808  0.1516 -1.5353  0.4837
  844THY    CA421092   3.896   4.847   1.726  0.8564 -0.3037  0.4954
  844THY    HA421093   3.983   4.807   1.778  0.6845  1.0204  1.8637
  844THY    CA521094   3.824   4.771   1.630  0.3975  0.0766  0.5019
  844THY    CM121095   3.878   4.642   1.580 -0.4643  0.1890  0.8006
  844THY    HM121096   3.966   4.614   1.640  1.0206  2.1130 -0.3570
  844THY    HM221097   3.806   4.562   1.563  1.0070 -0.4103 -4.4551
  844THY    HM321098   3.925   4.650   1.481  1.3755 -1.3142  1.4976
  844THY    CA621099   3.715   4.834   1.570  0.1032  0.5045 -0.5304
  844THY    HA621100   3.661   4.777   1.495  1.0723 -1.3677  0.1207
  845THY      O21101   3.827   6.075   8.738  0.6002 -0.5961  0.2166
  845THY     HO21102   3.818   6.164   8.776 -0.7782 -1.1208  1.1851
  845THY    CA121103   3.700   6.036   8.715  1.1439 -0.1340 -0.0477
  845THY    CA221104   3.665   5.895   8.694  0.1346 -1.1293 -0.3325
  845THY    CP121105   3.766   5.795   8.732 -0.2927 -0.4887  0.6351
  845THY    HP121106   3.863   5.844   8.733 -1.5161  2.1648 -0.4787
  845THY    CP221107   3.736   5.735   8.865 -0.7418  0.8690 -0.3992
  845THY    HP221108   3.634   5.700   8.885 -0.9153  0.5609 -1.7319
  845THY    HP321109   3.806   5.656   8.895 -1.5610  0.4724  0.5246
  845THY    HP421110   3.745   5.816   8.938 -0.5016 -1.2475  2.0462
  845THY    CP321111   3.778   5.678   8.626 -0.0046 -0.2229 -0.3148
  845THY    HP521112   3.871   5.621   8.640  0.0796  0.3291  1.7950
  845THY    HP621113   3.697   5.605   8.633 -2.3028  2.0946 -1.1049
  845THY    HP721114   3.784   5.721   8.526  1.7043  2.2877  0.7421
  845THY    CA321115   3.536   5.874   8.649  0.5191 -0.3307 -0.8658
  845THY    HA321116   3.491   5.775   8.647 -1.1763  0.3719  0.0622
  845THY    CA421117   3.455   5.984   8.623 -0.3765 -0.9180 -0.5433
  845THY    HA421118   3.353   5.954   8.602  0.0196 -1.7705 -1.3007
  845THY    CA521119   3.495   6.118   8.644 -0.4554 -0.8094  0.0648
  845THY    CM121120   3.394   6.227   8.631  0.1033  0.1153 -0.3930
  845THY    HM121121   3.338   6.230   8.725  0.4984  2.0660 -0.1814
  845THY    HM221122   3.436   6.328   8.618  0.1623  0.2088  0.4932
  845THY    HM321123   3.329   6.207   8.545  0.3052 -2.6137  0.0068
  845THY    CA621124   3.614   6.147   8.695  0.6142 -0.1439  0.3069
  845THY    HA621125   3.636   6.252   8.715 -1.8158  0.5070 -0.0548
  846THY      O21126   6.563   2.565   7.665 -0.1616 -0.2606  0.8182
  846THY     HO21127   6.635   2.611   7.712 -0.9176  2.7253 -0.7326
  846THY    CA121128   6.620   2.504   7.559 -0.7335 -0.1879 -0.3056
  846THY    CA221129   6.582   2.382   7.505  0.0059  0.3522  0.0708
  846THY    CP121130   6.480   2.291   7.568  0.3650 -0.0966 -0.2093
  846THY    HP121131   6.427   2.342   7.650 -0.6820  0.8655 -1.4505
  846THY    CP221132   6.369   2.234   7.478 -0.3976  0.2002 -0.6415
  846THY    HP221133   6.405   2.152   7.415  1.0821  0.4618 -0.1659
  846THY    HP321134   6.294   2.198   7.549 -0.1865  0.6378 -0.1902
  846THY    HP421135   6.324   2.319   7.426 -0.3441  0.9197  0.4601
  846THY    CP321136   6.563   2.175   7.632  0.1402 -0.2219  0.6475
  846THY    HP521137   6.629   2.124   7.561  1.5404  0.4910  1.3808
  846THY    HP621138   6.624   2.228   7.706  0.9164 -0.0472 -0.1057
  846THY    HP721139   6.489   2.108   7.677  0.6024  0.2058  2.1062
  846THY    CA321140   6.648   2.329   7.390  0.4200 -0.0456 -0.4471
  846THY    HA321141   6.618   2.233   7.348  3.5285 -2.1461  1.6521
  846THY    CA421142   6.758   2.396   7.337 -0.1632  0.4345 -0.1683
  846THY    HA421143   6.810   2.361   7.248  0.1756  1.8659 -0.5514
  846THY    CA521144   6.799   2.523   7.391  0.4307 -0.0560  0.3398
  846THY    CM121145   6.913   2.584   7.325  0.1515 -0.3766 -0.5839
  846THY    HM121146   6.911   2.577   7.215 -0.6139 -1.1881 -0.5268
  846THY    HM221147   6.902   2.689   7.354  2.3683  0.0875 -1.1963
  846THY    HM321148   7.004   2.543   7.371  0.7426  1.3412 -0.1550
  846THY    CA621149   6.726   2.578   7.502  0.7949 -0.2405  0.3049
  846THY    HA621150   6.758   2.674   7.541  2.2363 -0.5227 -0.1290
  847THY      O21151   0.586   9.026   8.817 -0.0381  0.0100  0.5116
  847THY     HO21152   0.601   9.084   8.740  1.5220 -0.0423  0.7565
  847THY    CA121153   0.567   9.106   8.923  0.1096  0.9632 -0.5188
  847THY    CA221154   0.666   9.191   8.972 -0.3587  0.3193 -0.6042
  847THY    CP121155   0.801   9.193   8.908  0.5277 -0.4563  0.0680
  847THY    HP121156   0.787   9.184   8.800  2.3568 -2.1259 -0.0781
  847THY    CP221157   0.876   9.324   8.927 -0.2348 -0.1065  0.2626
  847THY    HP221158   0.949   9.328   8.845 -1.1242  1.9332 -0.4855
  847THY    HP321159   0.801   9.402   8.909 -1.2317 -1.5814 -2.6424
  847THY    HP421160   0.939   9.342   9.014  0.4725  3.7316 -0.8591
  847THY    CP321161   0.901   9.079   8.947 -0.2378  0.5166 -0.4507
  847THY    HP521162   0.871   8.974   8.937  0.5152  0.0119  1.9926
  847THY    HP621163   0.991   9.091   8.885  0.1781  0.8042  0.1970
  847THY    HP721164   0.935   9.088   9.051 -0.7746  2.9706 -0.4337
  847THY    CA321165   0.638   9.257   9.096 -0.2281 -0.1174  0.0806
  847THY    HA321166   0.717   9.313   9.146  1.2336 -2.1860  0.2074
  847THY    CA421167   0.520   9.228   9.164 -0.7610  0.1860  0.3649
  847THY    HA421168   0.508   9.252   9.269 -1.2792 -0.1208  0.3775
  847THY    CA521169   0.422   9.149   9.112 -0.4593  0.0039 -0.4751
  847THY    CM121170   0.295   9.133   9.184 -0.5781 -0.0925 -0.7777
  847THY    HM121171   0.293   9.196   9.273  1.8144  0.3967 -0.9928
  847THY    HM221172   0.212   9.163   9.118 -0.6945 -0.7624 -0.9465
  847THY    HM321173   0.280   9.030   9.217  2.5083  0.5034  3.1591
  847THY    CA621174   0.443   9.097   8.989 -0.0055  0.2832 -0.0435
  847THY    HA621175   0.368   9.036   8.940  2.7451 -2.0430 -1.7387
  848THY      O21176   7.336   0.643   2.382 -0.0188 -0.5129 -0.3054
  848THY     HO21177   7.269   0.691   2.434 -1.6654 -2.0604 -0.9045
  848THY    CA121178   7.409   0.744   2.324 -0.6738 -0.7222  0.1416
  848THY    CA221179   7.515   0.718   2.235 -0.1517 -0.3688 -0.1086
  848THY    CP121180   7.537   0.575   2.171  0.0360  0.3242 -0.4878
  848THY    HP121181   7.483   0.502   2.231 -0.2763 -0.6223 -1.8692
  848THY    CP221182   7.478   0.578   2.024  0.0353  0.4409 -0.7696
  848THY    HP221183   7.460   0.475   1.993  0.0970  0.3830 -0.6122
  848THY    HP321184   7.378   0.624   2.024 -0.6562 -0.9204  1.4288
  848THY    HP421185   7.541   0.631   1.951  0.9071  1.4026  0.6167
  848THY    CP321186   7.680   0.531   2.175 -0.7253  0.6828  0.0779
  848THY    HP521187   7.679   0.424   2.198 -3.0977 -0.0754 -2.8563
  848THY    HP621188   7.741   0.537   2.084 -0.5772 -1.7750 -0.0555
  848THY    HP721189   7.722   0.588   2.259 -0.2093 -0.6525  0.7501
  848THY    CA321190   7.576   0.831   2.168 -0.4266  0.6656 -0.0149
  848THY    HA321191   7.636   0.816   2.078 -0.2152 -1.1480  0.3901
  848THY    CA421192   7.553   0.965   2.217 -0.0268  0.4986 -0.1575
  848THY    HA421193   7.606   1.043   2.163  0.5565 -1.4543 -2.6177
  848THY    CA521194   7.455   0.984   2.315  0.0222 -1.1294  0.4927
  848THY    CM121195   7.433   1.120   2.373  0.2750 -0.2091  0.1087
  848THY    HM121196   7.347   1.166   2.322  1.8095  2.7741 -0.0366
  848THY    HM221197   7.423   1.105   2.481  0.5184  0.3595  0.2146
  848THY    HM321198   7.515   1.191   2.359 -0.6148  1.6115  3.0032
  848THY    CA621199   7.383   0.874   2.367  0.2230 -1.3601 -0.1331
  848THY    HA621200   7.308   0.901   2.440 -0.4518 -0.4241 -1.1402
  849THY      O21201   9.082   9.111   6.585 -0.4451  0.3090  0.3145
  849THY     HO21202   9.097   9.027   6.630 -3.1626  0.1123  1.0031
  849THY    CA121203   9.035   9.194   6.678  0.3675  0.9496  0.1185
  849THY    CA221204   9.068   9.332   6.679  0.4106  0.5449 -0.0492
  849THY    CP121205   9.145   9.400   6.565  1.0794  0.7215 -0.3824
  849THY    HP121206   9.209   9.326   6.515 -0.9491  1.0121 -3.6766
  849THY    CP221207   9.051   9.468   6.462  0.2914  0.1705  0.1707
  849THY    HP221208   8.971   9.411   6.415 -0.4372  1.2270  0.1033
  849THY    HP321209   8.996   9.555   6.501  2.0056  1.9887 -1.1994
  849THY    HP421210   9.114   9.496   6.377 -0.2588 -0.8286 -0.5798
  849THY    CP321211   9.257   9.485   6.608 -0.3536 -0.6630  0.1980
  849THY    HP521212   9.306   9.513   6.514  1.5815  1.4187  1.7165
  849THY    HP621213   9.231   9.581   6.655  1.7140 -0.2943  0.6965
  849THY    HP721214   9.323   9.431   6.677 -0.1324  0.8437  1.2267
  849THY    CA321215   9.015   9.417   6.782  0.9398  0.1801  0.7529
  849THY    HA321216   9.033   9.524   6.778  0.2608  0.2482 -1.7503
  849THY    CA421217   8.947   9.356   6.884 -0.7049 -0.2417  0.2111
  849THY    HA421218   8.915   9.417   6.968  0.1564 -0.3767  0.6488
  849THY    CA521219   8.933   9.221   6.889  0.0011  0.1343 -0.0103
  849THY    CM121220   8.863   9.155   7.009 -0.2238 -0.1343 -0.0367
  849THY    HM121221   8.921   9.181   7.098  1.3485  1.0645 -1.3409
  849THY    HM221222   8.766   9.204   7.021  1.0976  2.4575  0.8272
  849THY    HM321223   8.859   9.045   7.006  0.8283 -0.1988  0.3818
  849THY    CA621224   8.967   9.141   6.786  0.0891  0.7303  0.6836
  849THY    HA621225   8.940   9.038   6.807 -1.1453  1.3470  2.3519
  850THY      O21226   9.378   8.378   9.299 -0.4387 -0.3417 -0.1049
  850THY     HO21227   9.357   8.440   9.227 -0.5108 -1.1264 -0.7793
  850THY    CA121228   9.515   8.374   9.290  0.1442  0.4141  0.1482
  850THY    CA221229   9.589   8.268   9.356  0.0270 -0.7305 -0.0197
  850THY    CP121230   9.525   8.179   9.456  0.1510 -0.2830 -0.3651
  850THY    HP121231   9.435   8.234   9.486 -0.0793  0.6383 -2.5846
  850THY    CP221232   9.489   8.048   9.392 -0.3816 -0.3156 -0.0163
  850THY    HP221233   9.444   8.077   9.296 -1.4435 -0.1108  0.5219
  850THY    HP321234   9.576   7.986   9.369  1.8176  2.5957 -0.1513
  850THY    HP421235   9.411   7.992   9.444 -2.0399 -0.7851 -2.8076
  850THY    CP321236   9.609   8.166   9.586 -0.4672 -0.3476 -0.0110
  850THY    HP521237   9.609   8.245   9.662  0.4250 -1.7402  1.5254
  850THY    HP621238   9.589   8.076   9.645  1.3071 -0.3807  0.6083
  850THY    HP721239   9.714   8.143   9.566 -0.3540  0.4422 -0.3400
  850THY    CA321240   9.727   8.253   9.319 -0.0904 -0.6112  0.2191
  850THY    HA321241   9.793   8.181   9.368  0.6352  0.2261  0.4906
  850THY    CA421242   9.778   8.346   9.224 -0.2247  0.3835 -0.2715
  850THY    HA421243   9.884   8.348   9.200  0.0757  2.9784  0.8809
  850THY    CA521244   9.702   8.444   9.164  1.0953 -0.5834 -0.9617
  850THY    CM121245   9.768   8.537   9.067  0.4435  0.1069 -0.0320
  850THY    HM121246   9.877   8.525   9.065  0.8759  3.1574 -0.1383
  850THY    HM221247   9.720   8.530   8.968 -1.7962  3.5537  0.6298
  850THY    HM321248   9.766   8.646   9.082  2.2237  0.6115 -2.6686
  850THY    CA621249   9.566   8.455   9.192 -0.3464 -1.0079 -0.7271
  850THY    HA621250   9.510   8.537   9.146  0.9841  0.2799 -0.1059
  851THY      O21251   2.356   2.319   8.430 -0.1703 -0.5727 -0.1949
  851THY     HO21252   2.403   2.336   8.347  2.6930 -1.1547  1.1386
  851THY    CA121253   2.338   2.186   8.439  0.5063 -0.3519  1.3969
  851THY    CA221254   2.286   2.119   8.324  0.2899 -1.1099 -0.5945
  851THY    CP121255   2.204   2.204   8.223  0.3553 -0.8456  0.6045
  851THY    HP121256   2.188   2.301   8.270 -1.1706 -0.7154 -0.1106
  851THY    CP221257   2.280   2.233   8.093  0.1679  0.6126 -0.5697
  851THY    HP221258   2.290   2.139   8.036 -0.1408 -1.2154  2.1676
  851THY    HP321259   2.227   2.304   8.029  2.3897  2.1012 -0.8705
  851THY    HP421260   2.380   2.274   8.109 -1.3458  4.4628 -0.0132
  851THY    CP321261   2.068   2.141   8.180 -0.0644 -0.2823  0.4406
  851THY    HP521262   2.014   2.213   8.118 -0.5471 -0.3641  0.7619
  851THY    HP621263   2.092   2.058   8.112 -0.1677  2.5676 -3.3875
  851THY    HP721264   2.005   2.119   8.267 -1.3442  2.9086  0.4294
  851THY    CA321265   2.289   1.981   8.324 -0.7305  0.4000 -0.0598
  851THY    HA321266   2.257   1.919   8.240  1.0368  1.9870 -2.0295
  851THY    CA421267   2.337   1.909   8.434  0.0831  0.2919  0.9209
  851THY    HA421268   2.324   1.802   8.425  1.1055  0.3625 -3.1569
  851THY    CA521269   2.381   1.979   8.548 -0.2286 -0.2127  0.9152
  851THY    CM121270   2.431   1.903   8.667  0.0006 -0.2352 -0.6933
  851THY    HM121271   2.359   1.916   8.750  2.1804  2.1801  0.9573
  851THY    HM221272   2.443   1.797   8.642 -1.4371 -0.2921 -1.2368
  851THY    HM321273   2.529   1.938   8.699 -0.1471  0.0049 -0.5050
  851THY    CA621274   2.383   2.119   8.542  0.9181  0.1398 -0.5311
  851THY    HA621275   2.428   2.170   8.627  0.8411  1.1864 -1.0992
  852THY      O21276   2.150   4.075   1.029 -0.2206  0.0205  0.1222
  852THY     HO21277   2.076   4.026   0.988  0.6725  0.1437 -1.7420
  852THY    CA121278   2.259   3.988   1.027  0.8754 -0.4008 -0.7426
  852THY    CA221279   2.385   4.014   1.090 -0.1737 -0.0261  0.0800
  852THY    CP121280   2.395   4.140   1.181 -0.5600  0.6055 -0.6703
  852THY    HP121281   2.301   4.193   1.199 -0.9179  0.0327 -0.8335
  852THY    CP221282   2.458   4.106   1.319  0.1009  0.3780  0.0519
  852THY    HP221283   2.551   4.050   1.304 -1.4675 -2.5384  0.4905
  852THY    HP321284   2.487   4.196   1.376 -2.2039  0.6696  0.8573
  852THY    HP421285   2.392   4.038   1.374 -1.0902  1.4720  0.0394
  852THY    CP321286   2.492   4.241   1.117 -0.5476  0.2931  0.4799
  852THY    HP521287   2.463   4.264   1.014  0.8289  0.3520  0.0850
  852THY    HP621288   2.488   4.330   1.181  0.9178  0.1591  0.8009
  852THY    HP721289   2.597   4.209   1.118 -0.5092  0.2903 -1.0790
  852THY    CA321290   2.492   3.924   1.063 -0.0359  0.0633  0.1386
  852THY    HA321291   2.589   3.952   1.101  0.3645 -0.9644 -0.0959
  852THY    CA421292   2.468   3.815   0.975 -0.0697  0.3861 -0.2618
  852THY    HA421293   2.560   3.769   0.940  0.6615  2.6430 -1.4935
  852THY    CA521294   2.349   3.801   0.902  0.3123 -0.4189 -0.5716
  852THY    CM121295   2.345   3.718   0.787  0.2699  0.2929  0.4345
  852THY    HM121296   2.383   3.617   0.807 -0.8828  0.1601  2.1955
  852THY    HM221297   2.251   3.706   0.733  0.2062 -0.4611  0.7014
  852THY    HM321298   2.418   3.759   0.717  3.6169  1.5187  4.2490
  852THY    CA621299   2.240   3.888   0.934 -0.0539  0.6629  0.0884
  852THY    HA621300   2.151   3.886   0.872 -0.1207 -0.3740  0.1945
  853THY      O21301   2.342   5.872   9.403  0.3126  0.7831  0.6256
  853THY     HO21302   2.291   5.843   9.325  1.3625  0.1681  0.1493
  853THY    CA121303   2.377   5.999   9.383  0.3083  0.5513 -0.2616
  853THY    CA221304   2.451   6.073   9.472 -1.4322  0.0486  0.3666
  853THY    CP121305   2.491   6.010   9.602  0.1539 -1.1648 -0.2473
  853THY    HP121306   2.399   5.959   9.633 -0.5680  0.3802  0.2758
  853THY    CP221307   2.614   5.912   9.599 -0.5311  0.2650  0.0429
  853THY    HP221308   2.700   5.970   9.634 -0.8269  0.4245  0.5184
  853THY    HP321309   2.598   5.824   9.663 -0.9112  1.4555  1.6486
  853THY    HP421310   2.641   5.865   9.504 -1.1147 -2.2438  1.0285
  853THY    CP321311   2.506   6.106   9.723  0.3311 -0.2750 -0.1499
  853THY    HP521312   2.423   6.176   9.736  0.7765 -0.0737  2.0217
  853THY    HP621313   2.523   6.057   9.820 -0.3366  0.8806  0.5866
  853THY    HP721314   2.598   6.161   9.701 -0.6990  0.7463 -2.1172
  853THY    CA321315   2.497   6.204   9.436  0.4764 -0.5588  0.5965
  853THY    HA321316   2.559   6.264   9.502  1.4228 -1.5576  0.6288
  853THY    CA421317   2.453   6.260   9.314 -0.3185 -0.3670 -0.4533
  853THY    HA421318   2.474   6.362   9.285  0.9787  0.1535  2.0774
  853THY    CA521319   2.371   6.181   9.228  0.2179 -0.4840 -0.2087
  853THY    CM121320   2.316   6.247   9.113  0.1385 -0.4045  0.2941
  853THY    HM121321   2.320   6.183   9.025  0.9138 -2.0085  1.4549
  853THY    HM221322   2.211   6.279   9.117  0.3791  0.6203 -0.8953
  853THY    HM321323   2.371   6.339   9.087  0.4820 -0.7702 -0.2903
  853THY    CA621324   2.336   6.055   9.264 -0.2291 -0.7498  0.6948
  853THY    HA621325   2.277   5.999   9.193 -0.1224 -1.1399  0.9114
  854THY      O21326   1.839   5.955   7.562 -0.2314 -0.3026 -0.2045
  854THY     HO21327   1.803   6.009   7.490 -2.9208  0.6016  1.6748
  854THY    CA121328   1.729   5.913   7.634 -0.8092 -0.1830  0.4104
  854THY    CA221329   1.749   5.819   7.729  0.2015 -0.3858 -0.2391
  854THY    CP121330   1.881   5.758   7.766  0.0292  0.2985  0.2308
  854THY    HP121331   1.953   5.841   7.762  1.6549 -1.1141 -0.7019
  854THY    CP221332   1.894   5.704   7.915  0.3766 -0.5535  0.7391
  854THY    HP221333   1.823   5.626   7.941 -2.6201  1.8206  0.2498
  854THY    HP321334   1.996   5.670   7.938  0.1386 -0.3133  2.2814
  854THY    HP421335   1.882   5.778   7.995 -0.2060  0.2271 -0.0531
  854THY    CP321336   1.916   5.651   7.661 -0.2483  0.2163  0.6744
  854THY    HP521337   1.961   5.698   7.573  0.5020 -2.2842 -0.3774
  854THY    HP621338   1.992   5.586   7.707  0.2986  0.9178  0.7809
  854THY    HP721339   1.830   5.591   7.631  2.6640 -3.0849 -1.9101
  854THY    CA321340   1.632   5.767   7.794  0.3836  0.1554  0.1352
  854THY    HA321341   1.639   5.682   7.861  0.9463 -0.0821 -0.2120
  854THY    CA421342   1.507   5.828   7.774 -0.5443 -0.7946  0.1969
  854THY    HA421343   1.413   5.801   7.821 -0.2440 -1.5076  0.4063
  854THY    CA521344   1.494   5.940   7.692 -0.0717 -0.0162 -0.0069
  854THY    CM121345   1.360   5.996   7.678  0.3876  0.1994 -0.2059
  854THY    HM121346   1.363   6.093   7.629  0.6419  0.9189  1.1886
  854THY    HM221347   1.295   5.930   7.619  1.0145  1.1404 -1.9947
  854THY    HM321348   1.314   6.008   7.777  0.1967  1.5946 -0.4514
  854THY    CA621349   1.604   5.974   7.620 -0.5655 -0.2302 -0.3949
  854THY    HA621350   1.595   6.045   7.538  1.6568  0.5037 -0.0788
  855THY      O21351   2.968   9.430   1.222 -0.4619  0.0841  0.2324
  855THY     HO21352   2.916   9.431   1.140  0.8038  1.5128 -0.6149
  855THY    CA121353   3.043   9.320   1.238 -0.2784 -0.3815 -0.1171
  855THY    CA221354   3.078   9.267   1.365 -0.2260  0.1760  0.4496
  855THY    CP121355   3.034   9.342   1.494  0.0610 -0.3493  0.3053
  855THY    HP121356   3.011   9.446   1.467 -2.5784 -0.5086  1.6413
  855THY    CP221357   2.896   9.303   1.533  0.5547 -0.2758  0.2770
  855THY    HP221358   2.866   9.360   1.622 -2.3411 -0.4482 -0.4960
  855THY    HP321359   2.826   9.339   1.456  0.2634 -1.1347  0.1346
  855THY    HP421360   2.889   9.194   1.541 -1.5098 -0.5780 -3.3679
  855THY    CP321361   3.133   9.340   1.612 -0.3067 -0.0771 -0.1352
  855THY    HP521362   3.123   9.238   1.650  0.9062 -1.2972 -2.8758
  855THY    HP621363   3.238   9.359   1.587  0.2005 -1.9635  0.3482
  855THY    HP721364   3.107   9.417   1.687 -3.9363 -1.1288 -0.1322
  855THY    CA321365   3.147   9.146   1.370  0.3547 -0.1246  0.6640
  855THY    HA321366   3.173   9.104   1.466 -0.8799 -1.9616  0.2593
  855THY    CA421367   3.186   9.085   1.248  0.5835  0.3910 -0.1611
  855THY    HA421368   3.228   8.985   1.239 -2.0493 -1.0884  2.2455
  855THY    CA521369   3.156   9.153   1.119  0.2548  0.2330 -0.3669
  855THY    CM121370   3.199   9.094   0.988  0.7986 -0.7195 -0.8868
  855THY    HM121371   3.132   9.135   0.911 -0.8040 -1.3727  0.1010
  855THY    HM221372   3.303   9.113   0.961  1.5525 -2.0092  0.9114
  855THY    HM321373   3.189   8.986   0.975  3.7946 -0.8530 -2.9694
  855THY    CA621374   3.083   9.269   1.123 -0.7321 -0.2476  0.1746
  855THY    HA621375   3.051   9.315   1.030 -0.4682  0.1713  0.2892
  856THY      O21376   8.367   0.773   3.509 -0.8969 -0.0460 -0.3021
  856THY     HO21377   8.371   0.779   3.606 -2.2515 -0.1250 -0.2219
  856THY    CA121378   8.433   0.875   3.443  0.0067 -1.0301 -0.3952
  856THY    CA221379   8.519   0.842   3.335 -0.5507 -0.2603 -0.4285
  856THY    CP121380   8.531   0.697   3.285  0.4817  0.4133  0.6540
  856THY    HP121381   8.478   0.630   3.353 -2.5757  2.2729  0.3020
  856THY    CP221382   8.479   0.686   3.139  0.4496  0.0934  0.3118
  856THY    HP221383   8.379   0.731   3.141  1.2799  2.0132  1.5707
  856THY    HP321384   8.540   0.751   3.075 -1.8185  2.3925  0.3509
  856THY    HP421385   8.471   0.582   3.105  0.9557  0.0360  0.3506
  856THY    CP321386   8.678   0.651   3.281 -0.9094  0.1466  0.2633
  856THY    HP521387   8.742   0.701   3.208 -0.6241  0.9402  1.0394
  856THY    HP621388   8.730   0.666   3.377 -0.1114 -0.2861 -0.0913
  856THY    HP721389   8.682   0.545   3.253 -0.1174 -0.1025  1.2538
  856THY    CA321390   8.602   0.946   3.287  0.4796 -0.4150 -0.1859
  856THY    HA321391   8.672   0.933   3.205  0.1812 -0.5818 -0.4156
  856THY    CA421392   8.589   1.080   3.346  0.1766  0.1773  0.4121
  856THY    HA421393   8.627   1.166   3.291  0.4865 -0.0267  0.3012
  856THY    CA521394   8.504   1.105   3.457 -0.1490 -0.0661  0.1716
  856THY    CM121395   8.466   1.244   3.501  0.0964 -0.3125 -0.5548
  856THY    HM121396   8.415   1.234   3.597  1.2054 -2.2598 -0.1044
  856THY    HM221397   8.556   1.304   3.520  0.6059 -2.0072  3.3496
  856THY    HM321398   8.395   1.296   3.436 -0.5254  1.0493  1.1417
  856THY    CA621399   8.432   0.998   3.511  0.3730 -0.0990  0.7595
  856THY    HA621400   8.359   1.017   3.589  1.8391 -0.3748  2.2297
  857THY      O21401   5.584   2.996   6.504  0.5590  0.0785 -0.6004
  857THY     HO21402   5.541   2.926   6.556  1.1852  0.8247  0.9886
  857THY    CA121403   5.616   2.952   6.379 -1.2402  0.8865 -0.4815
  857THY    CA221404   5.729   3.011   6.312 -0.0550 -0.0389  0.1633
  857THY    CP121405   5.811   3.128   6.374  0.0489 -0.1063 -0.9412
  857THY    HP121406   5.753   3.180   6.452  0.6128 -0.5224 -0.2279
  857THY    CP221407   5.944   3.078   6.436  1.2684 -0.4016  0.9095
  857THY    HP221408   6.025   3.063   6.364  0.7090  0.1887  0.1514
  857THY    HP321409   5.982   3.143   6.516  1.2133  0.1563  0.4800
  857THY    HP421410   5.934   2.979   6.483  3.5815 -0.4963  1.3166
  857THY    CP321411   5.838   3.240   6.275 -0.5951  0.2369  0.0096
  857THY    HP521412   5.932   3.230   6.221  0.7321 -0.1844  2.2845
  857THY    HP621413   5.759   3.254   6.200  1.3390 -0.8583 -2.3372
  857THY    HP721414   5.845   3.339   6.323 -1.6414 -0.7296  2.3559
  857THY    CA321415   5.774   2.961   6.187 -0.2651 -0.2545 -0.1161
  857THY    HA321416   5.851   3.002   6.123 -1.0608  0.4488 -0.6409
  857THY    CA421417   5.713   2.842   6.151 -0.9235 -0.6267 -0.2211
  857THY    HA421418   5.748   2.805   6.055  0.6828 -0.1108  0.1347
  857THY    CA521419   5.619   2.776   6.228  0.2043 -0.1775  0.2097
  857THY    CM121420   5.573   2.643   6.183 -0.0619  0.3544 -0.4134
  857THY    HM121421   5.483   2.651   6.122 -0.0154 -1.1491 -0.7189
  857THY    HM221422   5.650   2.590   6.126 -0.8005 -3.3771  1.7549
  857THY    HM321423   5.552   2.577   6.268 -1.3577  0.4534 -0.6446
  857THY    CA621424   5.569   2.828   6.342  0.7279 -0.1019  0.3390
  857THY    HA621425   5.499   2.773   6.404  2.0517 -0.2032  1.8136
  858THY      O21426   4.676   9.810   4.905  0.3170  0.2655  0.0752
  858THY     HO21427   4.676   9.792   4.809  2.0477  0.1244  0.0731
  858THY    CA121428   4.794   9.749   4.942 -0.4817  0.0860 -0.1879
  858THY    CA221429   4.864   9.788   5.064  0.3010 -0.6752  0.0372
  858THY    CP121430   4.809   9.887   5.165 -0.8383  0.3219  0.2844
  858THY    HP121431   4.706   9.849   5.174 -0.7424  0.2312  1.1586
  858THY    CP221432   4.877   9.876   5.306 -0.2662 -0.0846  0.0908
  858THY    HP221433   4.971   9.932   5.314 -0.2509  0.8251 -4.0281
  858THY    HP321434   4.808   9.923   5.376 -0.7041 -0.0722 -0.3417
  858THY    HP421435   4.886   9.769   5.328  0.0718 -0.0242  0.2653
  858THY    CP321436   4.825  10.029   5.111 -0.2110 -0.5941 -0.0660
  858THY    HP521437   4.783  10.103   5.180  0.1339 -1.2154  0.8292
  858THY    HP621438   4.931  10.044   5.091  0.2246  0.1326  2.4989
  858THY    HP721439   4.768  10.033   5.017 -0.5322 -0.7199  0.1215
  858THY    CA321440   4.999   9.739   5.077  0.9332  0.0489 -0.0970
  858THY    HA321441   5.061   9.774   5.159 -0.1384  0.4402  0.5775
  858THY    CA421442   5.056   9.652   4.986  0.3945 -0.4085 -0.6719
  858THY    HA421443   5.153   9.610   5.010 -0.4588 -1.5482  1.0001
  858THY    CA521444   4.978   9.615   4.864 -0.1570 -0.0271  0.7185
  858THY    CM121445   5.052   9.539   4.760  0.6261 -0.5780 -0.1928
  858THY    HM121446   5.105   9.609   4.694 -3.0081  1.6371 -1.0471
  858THY    HM221447   5.106   9.448   4.788 -0.5161 -1.4026 -0.5636
  858THY    HM321448   4.968   9.493   4.705 -1.2714  2.6148 -0.2282
  858THY    CA621449   4.850   9.673   4.842  0.1517  0.2111  0.1458
  858THY    HA621450   4.799   9.644   4.751  0.6355 -1.1473  0.2899
  859THY      O21451   0.525   2.555   5.153 -0.0132  0.2672  0.3702
  859THY     HO21452   0.577   2.607   5.217  1.8200  1.0169 -1.6125
  859THY    CA121453   0.597   2.454   5.092 -0.1951  0.4297 -0.3611
  859THY    CA221454   0.539   2.334   5.053  0.7162 -0.6208  0.4862
  859THY    CP121455   0.388   2.311   5.085 -0.1391  0.1266  0.1912
  859THY    HP121456   0.353   2.360   5.177 -1.6925 -1.2401  0.3852
  859THY    CP221457   0.296   2.372   4.988  0.4088 -0.2563  1.2239
  859THY    HP221458   0.319   2.475   4.957 -0.4142  0.2315  2.1790
  859THY    HP321459   0.282   2.305   4.902 -1.1286  0.5364  0.8097
  859THY    HP421460   0.196   2.387   5.030 -0.5911  0.6994 -1.3110
  859THY    CP321461   0.357   2.166   5.109  0.3806 -0.8349  0.4417
  859THY    HP521462   0.347   2.112   5.014  1.1303  0.6608 -0.5236
  859THY    HP621463   0.431   2.119   5.174 -0.3893 -0.5524  1.5456
  859THY    HP721464   0.268   2.150   5.171  1.3764 -1.1601  1.8187
  859THY    CA321465   0.616   2.242   4.982 -0.2823  0.1809  0.9238
  859THY    HA321466   0.574   2.152   4.938 -2.6631  1.3864  0.5574
  859THY    CA421467   0.751   2.271   4.953  0.0510 -0.2546  0.0097
  859THY    HA421468   0.812   2.204   4.893 -0.6232  0.6696 -1.7808
  859THY    CA521469   0.809   2.390   4.996  0.8903  0.3326 -0.3834
  859THY    CM121470   0.952   2.418   4.959  0.3880 -0.5336 -0.2771
  859THY    HM121471   0.963   2.394   4.852 -1.3634  0.1406 -0.6534
  859THY    HM221472   0.979   2.524   4.959  2.1651 -0.9539 -0.8525
  859THY    HM321473   1.025   2.360   5.015 -1.0375 -0.7959  1.3700
  859THY    CA621474   0.734   2.477   5.069 -0.3002 -0.0035  0.0743
  859THY    HA621475   0.788   2.564   5.104  0.1213 -0.7004  1.2124
  860THY      O21476   2.905   3.177   9.149  0.1309 -0.1189  0.3130
  860THY     HO21477   2.835   3.214   9.205 -1.2096 -0.0437 -1.3301
  860THY    CA121478   2.908   3.250   9.042  0.7447 -0.6079  0.3310
  860THY    CA221479   2.935   3.199   8.910  0.1510 -1.1207  0.2086
  860THY    CP121480   2.967   3.055   8.887 -0.0087  0.3474 -0.0666
  860THY    HP121481   2.925   2.998   8.971  0.4767  0.0221 -0.0391
  860THY    CP221482   2.905   3.004   8.761 -0.0611 -0.0995  0.4911
  860THY    HP221483   2.960   3.038   8.673 -0.6085 -1.9115 -0.6148
  860THY    HP321484   2.922   2.896   8.767  1.6686  0.1029 -0.1663
  860THY    HP421485   2.798   3.028   8.768 -0.1213  0.0063 -0.5669
  860THY    CP321486   3.117   3.037   8.885 -0.1595 -0.6318  1.0939
  860THY    HP521487   3.155   3.085   8.976  0.1135  2.0845 -0.3500
  860THY    HP621488   3.139   2.930   8.897 -0.7632 -0.9688 -0.4928
  860THY    HP721489   3.180   3.065   8.800 -2.9657 -0.7017 -1.1579
  860THY    CA321490   2.941   3.291   8.804 -0.8051  0.2215 -0.5101
  860THY    HA321491   2.961   3.257   8.703 -0.7143 -0.9586 -0.1094
  860THY    CA421492   2.947   3.425   8.838 -0.1470 -0.2962  0.2876
  860THY    HA421493   2.976   3.497   8.761  0.3557 -1.8099 -0.9828
  860THY    CA521494   2.911   3.476   8.963 -0.0990 -0.7130 -0.8745
  860THY    CM121495   2.901   3.627   8.990  0.2947 -0.5454  1.0454
  860THY    HM121496   2.999   3.676   9.000  0.6820 -1.0090 -0.1889
  860THY    HM221497   2.838   3.673   8.913 -1.6710 -0.0809  2.8522
  860THY    HM321498   2.858   3.638   9.090 -0.6461  0.6921  0.5212
  860THY    CA621499   2.878   3.384   9.058  0.0696  0.6289  0.4393
  860THY    HA621500   2.838   3.421   9.152 -1.9759 -1.2502  0.4137
  861THY      O21501   4.794   8.616   3.497 -0.6629 -0.2962 -0.7965
  861THY     HO21502   4.873   8.603   3.442 -0.2683 -0.6456 -0.1592
  861THY    CA121503   4.754   8.745   3.485  0.0608 -0.7815  0.1661
  861THY    CA221504   4.673   8.797   3.584  0.0443 -0.1804 -0.3252
  861THY    CP121505   4.661   8.733   3.719 -0.4658 -0.1295 -0.8139
  861THY    HP121506   4.653   8.624   3.710  0.4035 -0.1635 -1.2845
  861THY    CP221507   4.789   8.757   3.801  0.1796  0.4032 -0.6651
  861THY    HP221508   4.814   8.863   3.815 -1.1686  0.6464  0.1229
  861THY    HP321509   4.772   8.702   3.894  1.5427 -1.6126 -1.5275
  861THY    HP421510   4.867   8.692   3.759 -0.2279 -0.9872  0.6250
  861THY    CP321511   4.538   8.769   3.800  0.2295 -1.1555 -0.2815
  861THY    HP521512   4.538   8.875   3.828  2.7567 -1.1564 -0.0838
  861THY    HP621513   4.448   8.753   3.739 -0.9031  0.4883  0.8607
  861THY    HP721514   4.529   8.699   3.884  0.4315 -2.1238 -1.0601
  861THY    CA321515   4.618   8.923   3.566 -0.4943 -0.7404 -0.7714
  861THY    HA321516   4.555   8.975   3.638  2.2846  0.0820  1.2219
  861THY    CA421517   4.657   8.991   3.446 -0.5311 -0.5620  0.7066
  861THY    HA421518   4.615   9.090   3.433  2.7915  1.2724  2.4020
  861THY    CA521519   4.752   8.945   3.356 -0.9055 -0.1366 -0.0233
  861THY    CM121520   4.817   9.025   3.246 -0.0098 -0.7102  0.1129
  861THY    HM121521   4.765   9.117   3.220 -0.5898 -0.9743  0.3315
  861THY    HM221522   4.924   9.037   3.270  0.0262 -0.7213 -0.0366
  861THY    HM321523   4.809   8.964   3.155 -0.5230  0.7369 -0.8354
  861THY    CA621524   4.798   8.816   3.378  0.5221 -0.0201  0.4834
  861THY    HA621525   4.879   8.773   3.320  0.8986  0.9104  0.3161
  862THY      O21526   0.257   0.071   7.646 -0.1575  0.4573  0.0776
  862THY     HO21527   0.320   0.116   7.587  0.2297 -0.4540 -0.2136
  862THY    CA121528   0.171   0.174   7.673 -0.0155  0.4049 -0.0590
  862THY    CA221529   0.038   0.148   7.709  0.2583  0.4606 -0.0265
  862THY    CP121530  -0.018   0.007   7.727  0.2642 -0.4005  0.3133
  862THY    HP121531   0.060  -0.055   7.772 -0.4971 -1.4367  0.2419
  862THY    CP221532  -0.127  -0.011   7.830 -0.1335  0.4301  0.4013
  862THY    HP221533  -0.211   0.049   7.793  1.3832  0.7767 -2.8659
  862THY    HP321534  -0.150  -0.118   7.841  4.4275 -0.6432  1.3932
  862THY    HP421535  -0.090   0.023   7.927  1.6348  0.5297 -0.2829
  862THY    CP321536  -0.063  -0.067   7.596  0.2250 -0.4863 -0.1896
  862THY    HP521537  -0.162  -0.049   7.552  0.9771 -0.2587 -1.8570
  862THY    HP621538   0.009  -0.039   7.518  0.5800 -0.1581  0.2528
  862THY    HP721539  -0.050  -0.175   7.613  1.0809 -0.3099  0.3235
  862THY    CA321540  -0.049   0.264   7.726  0.3079 -0.2791 -0.2296
  862THY    HA321541  -0.153   0.247   7.748  0.0188  0.1043 -1.2167
  862THY    CA421542   0.000   0.394   7.714  0.4958  0.0881  0.1144
  862THY    HA421543  -0.055   0.482   7.745 -1.4847 -0.9619 -0.2900
  862THY    CA521544   0.136   0.414   7.679  0.2576 -0.2352 -0.0872
  862THY    CM121545   0.202   0.549   7.667  0.0344  0.5116 -0.3530
  862THY    HM121546   0.226   0.567   7.561 -1.3060  0.7380 -0.6365
  862THY    HM221547   0.137   0.632   7.695  0.8030  1.0724 -0.1943
  862THY    HM321548   0.299   0.564   7.716 -0.3922 -1.3928  1.1823
  862THY    CA621549   0.216   0.306   7.652 -0.3035  0.0549 -0.6138
  862THY    HA621550   0.320   0.334   7.634 -0.2839  0.3321 -0.0830
  863THY      O21551   7.728   4.625   2.111 -0.0972  0.7467 -0.2282
  863THY     HO21552   7.668   4.701   2.101  1.0877  1.5531 -1.6574
  863THY    CA121553   7.840   4.650   2.045  0.1095 -0.4177 -0.0605
  863THY    CA221554   7.970   4.624   2.090 -0.1850  0.3249  0.4280
  863THY    CP121555   7.986   4.537   2.214  0.6778 -0.0124 -0.2236
  863THY    HP121556   7.910   4.459   2.214  0.1852  0.4319  1.1179
  863THY    CP221557   8.107   4.457   2.211  0.5893 -0.4909 -0.4319
  863THY    HP221558   8.193   4.524   2.224  1.5365 -1.7983  0.2212
  863THY    HP321559   8.099   4.393   2.299 -0.4264  2.4689  1.7962
  863THY    HP421560   8.112   4.396   2.120  1.2266 -2.2847  0.7600
  863THY    CP321561   7.978   4.624   2.337 -0.1173  0.1161 -0.4329
  863THY    HP521562   8.055   4.702   2.337 -1.1221  1.1379  0.3908
  863THY    HP621563   7.877   4.668   2.332 -1.2142 -2.0378  1.0716
  863THY    HP721564   7.977   4.557   2.423  0.4414 -3.1972 -2.8071
  863THY    CA321565   8.078   4.678   2.014  0.2309 -0.6009 -0.5236
  863THY    HA321566   8.180   4.653   2.044  0.4622  2.1151  1.4350
  863THY    CA421567   8.054   4.761   1.904  0.1306 -0.4539  0.4535
  863THY    HA421568   8.139   4.798   1.848 -0.6727  1.8594  0.6633
  863THY    CA521569   7.923   4.792   1.863  0.0771 -0.0291 -0.1291
  863THY    CM121570   7.901   4.880   1.751  0.4452 -1.3146  0.9573
  863THY    HM121571   7.985   4.877   1.681 -0.8527  1.0121 -0.8604
  863THY    HM221572   7.819   4.848   1.685  1.2166 -2.0036  0.3069
  863THY    HM321573   7.878   4.983   1.777  0.4683 -1.1513  0.3568
  863THY    CA621574   7.819   4.727   1.931 -0.2837 -0.3226 -0.0760
  863THY    HA621575   7.722   4.750   1.890  0.6800  2.3276 -1.1389
  864THY      O21576   9.169   8.705   3.136  0.0646  0.0165 -0.0959
  864THY     HO21577   9.104   8.658   3.080  1.8106 -1.1208 -1.2526
  864THY    CA121578   9.284   8.709   3.066  0.5410  0.4637 -0.2156
  864THY    CA221579   9.393   8.779   3.127 -0.0060  0.2465 -0.9631
  864THY    CP121580   9.379   8.859   3.263  0.3006 -0.2032  0.4834
  864THY    HP121581   9.285   8.844   3.316  0.9959  0.9438  2.1087
  864THY    CP221582   9.499   8.826   3.356  0.1658  0.2395  0.4275
  864THY    HP221583   9.587   8.861   3.301  0.1093  0.1948  0.3095
  864THY    HP321584   9.471   8.866   3.454 -3.6867  0.8699 -0.7356
  864THY    HP421585   9.514   8.718   3.366  1.4758  0.4386  0.8451
  864THY    CP321586   9.368   9.008   3.239 -0.0097  0.6446 -0.2064
  864THY    HP521587   9.465   9.046   3.206  1.1934 -1.7183  0.3291
  864THY    HP621588   9.288   9.040   3.172 -1.0504  1.5607  1.3837
  864THY    HP721589   9.356   9.047   3.341  0.7295 -0.6369  0.3991
  864THY    CA321590   9.513   8.780   3.056  0.1507 -0.2480 -0.2081
  864THY    HA321591   9.595   8.842   3.090  1.1519 -1.8225  0.3829
  864THY    CA421592   9.527   8.708   2.941  0.6259  0.3455  0.3880
  864THY    HA421593   9.624   8.712   2.893  1.3190 -0.6586  1.6374
  864THY    CA521594   9.423   8.625   2.884 -0.7778  0.1260 -1.2577
  864THY    CM121595   9.443   8.560   2.754  0.2843  0.3094 -0.2958
  864THY    HM121596   9.458   8.639   2.679  1.8949 -0.3840 -0.7587
  864THY    HM221597   9.536   8.502   2.758  2.0143  2.9918  1.0079
  864THY    HM321598   9.357   8.505   2.714 -0.0923  0.9805 -0.4305
  864THY    CA621599   9.296   8.625   2.951  0.3329 -0.3133 -0.2172
  864THY    HA621600   9.213   8.567   2.912 -0.5813 -0.0580  1.2831
  865THY      O21601   9.369   1.230   8.583 -0.3860  0.3109  0.1751
  865THY     HO21602   9.385   1.179   8.664 -2.5035  3.0613  2.4993
  865THY    CA121603   9.493   1.280   8.559  0.5716 -0.2823  0.3481
  865THY    CA221604   9.523   1.388   8.467 -0.3035  0.3203 -0.7761
  865THY    CP121605   9.409   1.463   8.400 -0.3596 -0.3540  0.2101
  865THY    HP121606   9.316   1.442   8.454 -0.4548  2.1405  1.1892
  865THY    CP221607   9.417   1.616   8.407 -0.5957  0.0238  0.2038
  865THY    HP221608   9.466   1.644   8.502  1.5509 -0.0183 -0.8246
  865THY    HP321609   9.466   1.658   8.319 -0.6902  0.1123  0.1951
  865THY    HP421610   9.313   1.650   8.410 -0.8133  0.1564 -3.8099
  865THY    CP321611   9.369   1.422   8.263  0.1555  0.2837  0.0115
  865THY    HP521612   9.259   1.423   8.259 -0.2851 -3.9648  3.4152
  865THY    HP621613   9.409   1.486   8.184  0.2403  1.4908  0.9987
  865THY    HP721614   9.394   1.316   8.246 -2.0849 -0.3557  0.3222
  865THY    CA321615   9.658   1.426   8.448 -0.0232 -0.0826 -0.2459
  865THY    HA321616   9.688   1.514   8.392 -0.1528 -0.4646 -0.9202
  865THY    CA421617   9.762   1.356   8.510  0.3551 -0.0957  0.6093
  865THY    HA421618   9.863   1.394   8.501 -0.1554  1.4478  1.0465
  865THY    CA521619   9.732   1.239   8.589  0.2786 -0.3032 -0.3831
  865THY    CM121620   9.837   1.167   8.673 -0.9185  0.1922 -0.0848
  865THY    HM121621   9.807   1.184   8.777 -1.1683 -0.3043 -0.0737
  865THY    HM221622   9.830   1.060   8.652  0.4400  0.1200 -0.2360
  865THY    HM321623   9.936   1.201   8.643 -1.4265  2.0241  0.1474
  865THY    CA621624   9.600   1.208   8.617 -0.7151 -0.3390  0.1522
  865THY    HA621625   9.578   1.124   8.683 -1.3250  1.4356  2.3107
  866THY      O21626   4.451   7.756   1.884 -0.2127 -0.3278 -0.8455
  866THY     HO21627   4.524   7.794   1.937 -1.0422  1.7025 -1.0438
  866THY    CA121628   4.477   7.625   1.904 -0.2292  0.0794 -0.2007
  866THY    CA221629   4.386   7.534   1.953 -0.0195 -0.4610 -0.4482
  866THY    CP121630   4.250   7.578   1.996  0.5408  0.6140  0.5942
  866THY    HP121631   4.210   7.651   1.925 -1.7650 -0.3188  0.8800
  866THY    CP221632   4.136   7.469   2.005  0.8522  0.4546  0.2046
  866THY    HP221633   4.143   7.387   2.077 -3.2686 -1.1893 -1.0028
  866THY    HP321634   4.043   7.526   2.014 -0.3038 -1.5854  1.9939
  866THY    HP421635   4.124   7.424   1.906  1.1232 -1.0327  0.8294
  866THY    CP321636   4.256   7.669   2.122  0.3364  0.0520 -0.0419
  866THY    HP521637   4.157   7.711   2.142  1.1912  1.9184  0.5775
  866THY    HP621638   4.296   7.600   2.197 -0.6472 -2.0563 -1.3731
  866THY    HP721639   4.325   7.754   2.109 -0.8030  0.8576 -1.0663
  866THY    CA321640   4.431   7.411   1.985 -0.0728  0.0223 -0.6650
  866THY    HA321641   4.359   7.344   2.030  0.2050  1.7083  2.4994
  866THY    CA421642   4.566   7.374   1.971  0.2226  0.5050  0.6415
  866THY    HA421643   4.607   7.279   2.004  1.0100  0.7450  0.3834
  866THY    CA521644   4.654   7.460   1.902  0.5075  0.1309 -0.6497
  866THY    CM121645   4.801   7.425   1.874  0.0149 -0.3051  0.5549
  866THY    HM121646   4.808   7.316   1.879 -1.5604 -0.5260 -1.0373
  866THY    HM221647   4.823   7.453   1.770 -2.9254 -3.6132 -1.1777
  866THY    HM321648   4.873   7.480   1.936  0.7315  0.1131 -0.6082
  866THY    CA621649   4.607   7.591   1.869  0.5951 -0.3735 -1.0558
  866THY    HA621650   4.678   7.664   1.831  2.6777 -1.4535  0.5492
  867THY      O21651   2.242   9.902   4.898 -0.2952  0.0607 -0.1261
  867THY     HO21652   2.157   9.916   4.945 -0.5003 -1.1889 -0.1024
  867THY    CA121653   2.319   9.992   4.963  0.0964  0.3344 -0.0912
  867THY    CA221654   2.462   9.997   4.946  0.1355  0.1249 -0.0751
  867THY    CP121655   2.534   9.890   4.846  0.5983  0.4967 -0.9307
  867THY    HP121656   2.458   9.815   4.822  0.9721 -0.2367  0.0980
  867THY    CP221657   2.586   9.962   4.719  0.8886  0.4280  0.4995
  867THY    HP221658   2.655   9.888   4.678  1.2535 -0.0840  1.9868
  867THY    HP321659   2.500   9.966   4.651 -0.2947  1.6272  1.9696
  867THY    HP421660   2.632  10.060   4.740 -0.7088  1.8305 -2.0505
  867THY    CP321661   2.649   9.817   4.928 -0.1659  1.1761 -0.1932
  867THY    HP521662   2.706   9.754   4.858  0.4421  1.9584 -0.4076
  867THY    HP621663   2.715   9.889   4.978 -1.0016  1.3725  0.6528
  867THY    HP721664   2.598   9.751   5.000 -1.4581  0.3247 -1.8159
  867THY    CA321665   2.536  10.109   4.990  0.4278  0.1237 -0.9321
  867THY    HA321666   2.641  10.126   4.967  0.9277  1.6336  1.9810
  867THY    CA421667   2.468  10.194   5.085 -0.1761 -0.5291  0.2688
  867THY    HA421668   2.526  10.272   5.133 -0.3395 -0.1940 -0.0724
  867THY    CA521669   2.334  10.168   5.122  0.0815  0.2536  0.2260
  867THY    CM121670   2.266  10.263   5.221 -0.4215 -0.1821 -0.3266
  867THY    HM121671   2.334  10.326   5.278 -1.2613 -1.2133  1.9106
  867THY    HM221672   2.197  10.325   5.163 -0.6294  2.0429  2.1244
  867THY    HM321673   2.213  10.214   5.303 -2.0163  2.0924  0.0972
  867THY    CA621674   2.257  10.079   5.054 -0.5330 -0.5366 -0.4692
  867THY    HA621675   2.150  10.070   5.073 -1.2305  0.7411 -3.2140
  868THY      O21676   0.307   6.862   4.690 -0.5124  0.2042 -0.6611
  868THY     HO21677   0.235   6.895   4.634 -0.6161 -1.2105 -1.3931
  868THY    CA121678   0.317   6.946   4.804  0.1669 -0.2211  0.2010
  868THY    CA221679   0.423   6.944   4.898 -0.4983 -1.1056  0.1073
  868THY    CP121680   0.537   6.836   4.878  0.5943 -0.1491 -0.5747
  868THY    HP121681   0.503   6.745   4.827  1.4196 -0.8834  0.1642
  868THY    CP221682   0.642   6.896   4.784  0.8318  0.1911 -0.2591
  868THY    HP221683   0.739   6.844   4.792  1.1275  0.7677 -0.0730
  868THY    HP321684   0.604   6.880   4.683  0.4404  1.9941 -0.4237
  868THY    HP421685   0.655   7.004   4.795 -1.0572  0.4957 -0.7369
  868THY    CP321686   0.609   6.795   5.011 -0.5880  0.0419 -0.0594
  868THY    HP521687   0.648   6.883   5.063 -0.2852 -0.3627  0.4119
  868THY    HP621688   0.535   6.749   5.078 -2.8357  2.3711 -0.7940
  868THY    HP721689   0.695   6.729   4.993 -1.0894 -0.4879 -0.5539
  868THY    CA321690   0.428   7.036   5.003 -0.5555  0.0328  0.1371
  868THY    HA321691   0.497   7.027   5.087 -2.7810  1.0700  2.1862
  868THY    CA421692   0.346   7.143   4.999 -0.3248 -0.9659 -0.1633
  868THY    HA421693   0.342   7.230   5.064 -0.1588 -0.3999 -0.8878
  868THY    CA521694   0.238   7.149   4.910  0.4598 -0.3089  0.0278
  868THY    CM121695   0.141   7.263   4.927 -0.1074 -0.1075 -0.0654
  868THY    HM121696   0.169   7.362   4.889 -3.9192  0.8164 -0.8425
  868THY    HM221697   0.056   7.240   4.863  0.0957  1.6213 -1.0155
  868THY    HM321698   0.122   7.283   5.033 -0.2407  1.1971 -0.3180
  868THY    CA621699   0.219   7.046   4.813  0.4487 -1.2144  0.0784
  868THY    HA621700   0.136   7.066   4.746  1.5567 -0.4270 -1.1313
  869THY      O21701   1.669   3.956   7.438  0.3421  0.4977 -0.3782
  869THY     HO21702   1.606   3.883   7.444  1.7037 -0.5720  2.3282
  869THY    CA121703   1.663   4.011   7.565  0.0811 -0.1398 -0.2431
  869THY    CA221704   1.706   4.143   7.597 -0.6890  0.1649 -0.6829
  869THY    CP121705   1.763   4.224   7.487  0.0431  0.5795 -0.1691
  869THY    HP121706   1.719   4.181   7.396 -1.0886 -2.2673  1.5795
  869THY    CP221707   1.713   4.365   7.488 -0.1739  0.2399 -0.3367
  869THY    HP221708   1.604   4.358   7.498  0.1122 -1.4694  3.0871
  869THY    HP321709   1.755   4.415   7.576  0.3645 -2.4342  1.0264
  869THY    HP421710   1.739   4.418   7.396  1.6681  0.1744  0.1051
  869THY    CP321711   1.914   4.227   7.489  0.0463  0.2675 -0.8180
  869THY    HP521712   1.944   4.123   7.503 -0.2214  0.2266 -0.5174
  869THY    HP621713   1.964   4.276   7.405 -0.5941 -0.2773 -1.5320
  869THY    HP721714   1.950   4.275   7.581  0.5842  0.4101 -1.1040
  869THY    CA321715   1.724   4.176   7.733  0.4627  0.1218  0.1754
  869THY    HA321716   1.770   4.269   7.765 -0.8287 -0.1629  3.2008
  869THY    CA421717   1.661   4.099   7.834 -0.5018  0.0200 -0.3370
  869THY    HA421718   1.674   4.131   7.937 -1.0210  1.7683 -0.7755
  869THY    CA521719   1.604   3.972   7.794  0.4943  0.4384 -0.6879
  869THY    CM121720   1.552   3.888   7.914  0.0934  0.1459  0.1984
  869THY    HM121721   1.496   3.799   7.882 -1.5930  0.7794  1.2612
  869THY    HM221722   1.629   3.845   7.978 -0.3166  0.0912  0.6606
  869THY    HM321723   1.489   3.947   7.982 -0.9426  0.1012 -0.6822
  869THY    CA621724   1.599   3.931   7.662  0.0979  0.2553 -0.7184
  869THY    HA621725   1.558   3.834   7.635 -0.3383  0.0471  0.6267
  870THY      O21726   7.490   4.915   7.680 -0.0269  0.3649 -0.0321
  870THY     HO21727   7.526   4.936   7.592 -2.9450  0.6737 -1.2637
  870THY    CA121728   7.594   4.887   7.762 -0.5027  0.1739 -0.1111
  870THY    CA221729   7.583   4.850   7.892 -0.5114 -0.1121 -1.1109
  870THY    CP121730   7.443   4.845   7.967  0.0657 -0.0744  0.1584
  870THY    HP121731   7.370   4.901   7.906  1.5174  0.9585 -0.6970
  870THY    CP221732   7.398   4.706   7.997 -0.9622  0.1175 -0.1460
  870THY    HP221733   7.427   4.636   7.918 -1.1729 -0.3988  0.2323
  870THY    HP321734   7.441   4.666   8.090  2.8916  0.1357 -1.7525
  870THY    HP421735   7.293   4.678   8.011 -0.3337 -2.2924  0.1554
  870THY    CP321736   7.447   4.940   8.091 -0.0421  0.2777  0.3492
  870THY    HP521737   7.491   5.032   8.053  1.4120 -0.6505 -0.2864
  870THY    HP621738   7.348   4.958   8.134 -0.6553  0.4122 -1.0636
  870THY    HP721739   7.505   4.896   8.174 -1.0917 -0.3628  0.7629
  870THY    CA321740   7.703   4.816   7.959 -0.2040 -0.2322 -0.1221
  870THY    HA321741   7.701   4.799   8.066 -1.5898  1.7586  0.2455
  870THY    CA421742   7.820   4.802   7.899 -0.9898  0.2532  0.2628
  870THY    HA421743   7.909   4.767   7.951 -0.4667  0.2015 -0.6254
  870THY    CA521744   7.828   4.831   7.759  0.4642 -0.5557 -0.2350
  870THY    CM121745   7.953   4.802   7.681  0.2722 -0.0102 -0.3034
  870THY    HM121746   8.034   4.778   7.750 -1.1530 -0.6184  1.2218
  870THY    HM221747   7.950   4.712   7.618  2.5104 -0.7091  0.5033
  870THY    HM321748   7.983   4.890   7.622  0.9176  0.5725  0.8691
  870THY    CA621749   7.718   4.885   7.698  0.1210  0.3215  0.5671
  870THY    HA621750   7.723   4.921   7.596 -1.9231 -0.9978 -0.0630
  871THY      O21751   4.868   1.350   1.492  0.2354 -0.0453 -0.0318
  871THY     HO21752   4.822   1.329   1.409  1.1340 -0.2690 -0.4898
  871THY    CA121753   4.874   1.484   1.519 -0.2420  0.2483  0.0779
  871THY    CA221754   4.942   1.536   1.634  0.0680  0.1756  0.2439
  871THY    CP121755   5.018   1.433   1.723 -0.4444  0.3574 -0.7806
  871THY    HP121756   5.000   1.335   1.676 -0.6993  0.6501 -1.3051
  871THY    CP221757   5.168   1.461   1.725 -0.1103  0.7551 -0.1119
  871THY    HP221758   5.179   1.549   1.789  1.5944 -0.3218  1.1494
  871THY    HP321759   5.218   1.375   1.770 -0.0839  1.3378  1.0170
  871THY    HP421760   5.215   1.466   1.626  1.0489  0.6372  0.4190
  871THY    CP321761   4.958   1.434   1.864 -0.1868 -0.8759  0.3899
  871THY    HP521762   4.994   1.346   1.919  2.4244  0.3224  0.7781
  871THY    HP621763   4.982   1.530   1.911  0.2709 -0.4406 -0.7194
  871THY    HP721764   4.849   1.426   1.865 -0.2564 -0.3336 -0.8633
  871THY    CA321765   4.921   1.667   1.677 -0.0814  0.0208 -0.6768
  871THY    HA321766   4.959   1.698   1.774  0.0537 -1.2049 -0.3271
  871THY    CA421767   4.838   1.746   1.603 -0.1438 -0.1961  0.9106
  871THY    HA421768   4.823   1.849   1.634  1.4768  0.6964 -1.0016
  871THY    CA521769   4.785   1.698   1.480 -0.6358  0.0830 -0.6804
  871THY    CM121770   4.694   1.780   1.402  0.3839  0.4248 -0.1562
  871THY    HM121771   4.617   1.720   1.352  1.6114  1.1237 -3.0866
  871THY    HM221772   4.634   1.853   1.458  2.5256  2.1416  0.0269
  871THY    HM321773   4.747   1.829   1.319  1.4049 -3.6001 -2.1274
  871THY    CA621774   4.793   1.566   1.443 -0.0876  0.2328  0.0972
  871THY    HA621775   4.739   1.537   1.353  1.3629 -0.3541 -0.6042
  872THY      O21776   3.922   9.364   6.701 -0.1213  0.3849 -0.3625
  872THY     HO21777   3.925   9.426   6.776 -1.5528  0.2588 -0.1719
  872THY    CA121778   3.808   9.287   6.725 -0.3636  1.1017 -0.3052
  872THY    CA221779   3.779   9.170   6.642  0.0126 -0.2353  0.1025
  872THY    CP121780   3.884   9.116   6.539  0.8786 -0.3809 -0.2660
  872THY    HP121781   3.957   9.193   6.512 -2.1417  2.9991  0.4195
  872THY    CP221782   3.934   8.980   6.586 -0.0930 -0.1747 -0.8486
  872THY    HP221783   3.987   8.989   6.681 -2.0467  0.9082  0.2093
  872THY    HP321784   3.857   8.904   6.603 -0.8336  1.0985  2.0539
  872THY    HP421785   4.008   8.948   6.512  1.9831  0.3665  0.9016
  872THY    CP321786   3.815   9.086   6.404 -0.0445  0.3292 -0.1260
  872THY    HP521787   3.896   9.056   6.337  0.5578  0.4250  0.5544
  872THY    HP621788   3.743   9.003   6.400 -0.0772  0.3941 -1.2961
  872THY    HP721789   3.758   9.167   6.356  0.1678 -0.9385 -2.6943
  872THY    CA321790   3.653   9.109   6.652  0.3482 -0.7461  0.2529
  872THY    HA321791   3.622   9.037   6.577 -0.2076 -0.7547  0.4859
  872THY    CA421792   3.563   9.161   6.746  0.4228  0.0482 -1.0140
  872THY    HA421793   3.465   9.117   6.756  0.1073  0.6701 -1.2981
  872THY    CA521794   3.590   9.273   6.828  0.3533  0.0649 -0.2982
  872THY    CM121795   3.481   9.326   6.920 -0.3307 -0.1620  0.6433
  872THY    HM121796   3.511   9.321   7.025  0.6765  3.0186  0.5995
  872THY    HM221797   3.464   9.433   6.899 -2.8319 -0.5955  0.0891
  872THY    HM321798   3.387   9.271   6.906 -0.5003  0.3711 -0.4491
  872THY    CA621799   3.709   9.339   6.807 -0.2065  0.2849  0.1041
  872THY    HA621800   3.734   9.430   6.861 -1.3535  1.1102 -0.6954
  873THY      O21801   6.932   6.423   4.796 -0.2588  0.7213 -0.2617
  873THY     HO21802   6.905   6.336   4.831 -1.8950  1.3675  0.1793
  873THY    CA121803   6.983   6.394   4.673  0.3088  0.6362 -0.1620
  873THY    CA221804   7.041   6.496   4.601 -0.8146 -0.0762 -0.0834
  873THY    CP121805   7.039   6.638   4.643 -0.0701 -0.9672  0.6418
  873THY    HP121806   6.971   6.651   4.727 -2.2162  1.4960 -1.3179
  873THY    CP221807   7.173   6.673   4.702  0.1234 -0.1558 -0.5855
  873THY    HP221808   7.181   6.776   4.737 -2.2051 -0.3210  0.6467
  873THY    HP321809   7.193   6.622   4.797  1.3279 -0.8418 -1.1873
  873THY    HP421810   7.258   6.665   4.632 -2.5673  0.2489 -4.1979
  873THY    CP321811   6.983   6.744   4.539 -0.3852  0.0113  0.3883
  873THY    HP521812   6.983   6.836   4.598  1.8958  0.5469 -0.3625
  873THY    HP621813   7.031   6.764   4.443 -0.5869  1.2820  0.5459
  873THY    HP721814   6.877   6.721   4.518 -0.5879  1.5152 -0.3620
  873THY    CA321815   7.092   6.463   4.472 -0.1469 -0.1381  0.3925
  873THY    HA321816   7.128   6.535   4.399 -0.6976 -0.6001 -0.3460
  873THY    CA421817   7.080   6.331   4.424 -0.0272  0.2298 -0.3167
  873THY    HA421818   7.117   6.309   4.324  1.1390  1.4097 -0.1832
  873THY    CA521819   7.019   6.233   4.499  0.1147 -0.2582  0.2032
  873THY    CM121820   7.021   6.094   4.439  0.4041  0.2237 -0.1424
  873THY    HM121821   7.115   6.049   4.403 -0.4273 -0.0498 -2.1183
  873THY    HM221822   6.987   6.023   4.516 -2.4916 -2.0738 -3.2152
  873THY    HM321823   6.950   6.086   4.356 -1.1876  0.0216  1.1992
  873THY    CA621824   6.964   6.264   4.622 -0.7475 -0.1979 -0.7936
  873THY    HA621825   6.919   6.185   4.682  1.8265 -0.6393  0.6805
  874THY      O21826   4.531   1.601   0.759  0.5568  0.0615  0.0457
  874THY     HO21827   4.492   1.519   0.792 -0.0908 -0.2915 -1.4922
  874THY    CA121828   4.445   1.631   0.657 -0.1899  0.6815  0.3239
  874THY    CA221829   4.473   1.732   0.568 -0.3237  0.0726 -0.2913
  874THY    CP121830   4.606   1.821   0.583  0.4606 -0.1969  0.4497
  874THY    HP121831   4.678   1.777   0.653  1.3272 -2.0950 -1.4982
  874THY    CP221832   4.686   1.827   0.445  0.2578  0.6912 -0.4083
  874THY    HP221833   4.789   1.856   0.470  0.1632  0.4540  0.2925
  874THY    HP321834   4.668   1.727   0.404 -2.0637  0.6582  0.5198
  874THY    HP421835   4.639   1.908   0.388  0.5412  1.0317 -0.1631
  874THY    CP321836   4.580   1.962   0.625  0.3838 -0.4422  0.6355
  874THY    HP521837   4.540   1.961   0.727  1.3758 -2.3962  1.0429
  874THY    HP621838   4.665   2.029   0.607  0.0564 -0.3281 -0.5983
  874THY    HP721839   4.497   2.005   0.567 -0.3094 -0.7941  1.3584
  874THY    CA321840   4.381   1.761   0.465 -0.0325  0.7002 -0.1626
  874THY    HA321841   4.399   1.837   0.390 -1.4771  1.6625  0.4234
  874THY    CA421842   4.258   1.688   0.463 -0.5477 -0.5183  0.1890
  874THY    HA421843   4.181   1.716   0.391 -0.9450 -0.1125  0.7573
  874THY    CA521844   4.232   1.586   0.550  0.4306 -0.3655  0.2109
  874THY    CM121845   4.101   1.511   0.532  0.0598 -0.4166 -0.4238
  874THY    HM121846   4.096   1.418   0.589  0.3060  0.5738  1.2911
  874THY    HM221847   4.019   1.566   0.579  2.6124  0.8295  3.0138
  874THY    HM321848   4.073   1.495   0.427  1.4406 -0.0523 -0.8782
  874THY    CA621849   4.327   1.561   0.646  0.5543 -0.1402  1.0920
  874THY    HA621850   4.305   1.485   0.721  2.5735 -1.0688  0.8062
  875THY      O21851   6.003   2.191   3.434 -0.0189 -0.8393 -0.2541
  875THY     HO21852   6.095   2.173   3.408 -0.0016  0.1373 -0.9085
  875THY    CA121853   5.991   2.152   3.564 -0.2290  0.8585  0.2037
  875THY    CA221854   5.872   2.168   3.640  0.4512  1.0197  0.8777
  875THY    CP121855   5.736   2.228   3.577 -0.0365 -0.2342 -0.1421
  875THY    HP121856   5.734   2.225   3.468  2.6153 -1.0752 -0.2322
  875THY    CP221857   5.608   2.144   3.619  0.2247  0.4698 -0.5191
  875THY    HP221858   5.627   2.045   3.577  3.7613  0.2228  1.3529
  875THY    HP321859   5.600   2.127   3.727 -0.5287  0.0111 -0.6381
  875THY    HP421860   5.512   2.189   3.590  0.8772  2.5469  0.3526
  875THY    CP321861   5.715   2.375   3.609 -0.6916  0.0220  0.3619
  875THY    HP521862   5.609   2.403   3.602 -0.8192 -0.5345 -0.0042
  875THY    HP621863   5.751   2.404   3.708  1.7530  1.5947 -0.8827
  875THY    HP721864   5.770   2.442   3.542  2.8683 -0.2682  2.7366
  875THY    CA321865   5.878   2.159   3.777  0.0365  0.4159 -0.1492
  875THY    HA321866   5.789   2.167   3.838 -0.1523 -0.5731 -0.2938
  875THY    CA421867   6.007   2.140   3.835  0.0656  0.0447 -0.5947
  875THY    HA421868   6.009   2.160   3.942 -4.8829  0.9909 -0.4027
  875THY    CA521869   6.119   2.118   3.755 -0.5519  0.5147 -0.0443
  875THY    CM121870   6.247   2.105   3.829 -0.0507  0.2350  0.3690
  875THY    HM121871   6.245   2.006   3.878  3.2860  0.2526  0.7431
  875THY    HM221872   6.337   2.115   3.768 -1.4503  0.1681 -1.7929
  875THY    HM321873   6.257   2.188   3.900  0.2730  0.5479 -0.0412
  875THY    CA621874   6.109   2.116   3.617  0.7231  0.1450  0.2262
  875THY    HA621875   6.195   2.093   3.556  0.7587 -0.2778  0.4322
  876THY      O21876   2.567   8.819   1.501  0.7194  0.2332  0.2873
  876THY     HO21877   2.497   8.885   1.492 -1.5954 -2.0683  0.1608
  876THY    CA121878   2.673   8.860   1.431  0.3740  0.2297 -0.4957
  876THY    CA221879   2.797   8.787   1.430  0.9791  0.0326 -1.2098
  876THY    CP121880   2.826   8.667   1.521 -0.0216  0.1475  0.1528
  876THY    HP121881   2.934   8.657   1.531 -0.3042 -2.1917  2.1312
  876THY    CP221882   2.769   8.684   1.660 -0.1209  0.1359 -0.2395
  876THY    HP221883   2.664   8.654   1.660  0.1640 -0.9456  0.9829
  876THY    HP321884   2.824   8.620   1.730 -0.1008  0.5183  0.0997
  876THY    HP421885   2.787   8.787   1.694  1.6658 -0.5128  0.9115
  876THY    CP321886   2.777   8.532   1.458 -0.9217  0.3880  0.1768
  876THY    HP521887   2.822   8.446   1.509 -0.1171 -0.0232 -1.1673
  876THY    HP621888   2.668   8.531   1.461 -0.9041 -1.2302  1.0146
  876THY    HP721889   2.805   8.510   1.354 -1.2035 -1.4436  0.4713
  876THY    CA321890   2.891   8.830   1.337  0.4662  0.2040 -0.1300
  876THY    HA321891   2.984   8.776   1.326 -0.5400 -2.0236  1.5046
  876THY    CA421892   2.873   8.949   1.260  0.8486  0.4926 -0.2788
  876THY    HA421893   2.954   8.990   1.200  1.7758  0.8097  1.1450
  876THY    CA521894   2.758   9.026   1.266 -0.4702 -0.0824  0.1759
  876THY    CM121895   2.762   9.153   1.183  0.0814 -0.5931  0.1235
  876THY    HM121896   2.827   9.157   1.094  1.4865 -0.5495  1.1328
  876THY    HM221897   2.663   9.173   1.140 -0.1290  1.9810  1.6758
  876THY    HM321898   2.788   9.238   1.246  0.5069 -0.1165 -0.6713
  876THY    CA621899   2.652   8.968   1.337  0.0841  0.9077 -0.1621
  876THY    HA621900   2.554   9.015   1.335 -0.5096 -0.2904 -0.1563
  877THY      O21901   9.351   3.375   4.952  0.3029 -0.5936 -0.3041
  877THY     HO21902   9.393   3.326   5.025 -3.3446 -0.5509  2.1158
  877THY    CA121903   9.338   3.285   4.851 -0.5000 -0.1069  0.3996
  877THY    CA221904   9.251   3.173   4.847 -0.4031  0.3358  0.1488
  877THY    CP121905   9.170   3.136   4.970 -0.3115 -0.5676 -0.0640
  877THY    HP121906   9.186   3.210   5.049  1.8083 -0.0575 -0.8902
  877THY    CP221907   9.022   3.123   4.921  0.3033  0.1151  0.0410
  877THY    HP221908   9.011   3.201   4.845  1.6229  1.1103  0.8353
  877THY    HP321909   8.996   3.025   4.878 -1.4031 -0.2024  1.6568
  877THY    HP421910   8.951   3.136   5.004 -1.1523 -0.0346 -1.1459
  877THY    CP321911   9.228   3.001   5.035  0.8362 -0.0534  0.6184
  877THY    HP521912   9.165   2.978   5.121 -0.5723 -0.8371 -0.5839
  877THY    HP621913   9.219   2.918   4.964 -2.6483  2.1743 -1.8562
  877THY    HP721914   9.332   3.011   5.071  0.2957 -0.7334  2.4941
  877THY    CA321915   9.252   3.090   4.727  0.2162  0.0939 -0.0545
  877THY    HA321916   9.190   3.002   4.714  0.9455 -0.5786  0.8972
  877THY    CA421917   9.344   3.121   4.624  0.1691  0.3872  0.2264
  877THY    HA421918   9.350   3.069   4.529 -1.8306  0.6859 -0.0987
  877THY    CA521919   9.433   3.233   4.631  1.0775  0.4363  0.2829
  877THY    CM121920   9.527   3.270   4.519 -0.1322  0.5857  0.0911
  877THY    HM121921   9.526   3.376   4.491 -1.4207  0.7486  0.6902
  877THY    HM221922   9.627   3.259   4.563 -0.5662  1.2029  1.2632
  877THY    HM321923   9.515   3.190   4.445 -0.2462 -3.1206  3.7059
  877THY    CA621924   9.432   3.305   4.750 -0.5865 -0.5026 -0.6982
  877THY    HA621925   9.512   3.377   4.767 -1.7155  0.2210  2.3106
  878THY      O21926   0.676   9.594   9.706  0.4320 -0.6801 -0.1725
  878THY     HO21927   0.632   9.650   9.772 -0.1098 -0.7784 -0.4439
  878THY    CA121928   0.728   9.492   9.768 -0.2843 -0.3001 -0.9721
  878THY    CA221929   0.778   9.378   9.700 -0.2118 -0.3629 -0.3930
  878THY    CP121930   0.791   9.364   9.540 -0.5304  0.3399 -0.8067
  878THY    HP121931   0.767   9.460   9.493  1.0142 -0.2913 -3.0515
  878THY    CP221932   0.940   9.340   9.510 -0.7385  0.3124  0.1989
  878THY    HP221933   0.963   9.236   9.536 -0.5414  0.0141 -1.0722
  878THY    HP321934   0.978   9.362   9.409 -1.4194 -0.6212 -0.2815
  878THY    HP421935   0.995   9.400   9.583 -1.1308  1.1160 -0.1568
  878THY    CP321936   0.703   9.252   9.486 -0.1511 -0.3035 -0.3186
  878THY    HP521937   0.709   9.156   9.539 -0.9183  0.6125  1.5301
  878THY    HP621938   0.600   9.287   9.479  0.6877  2.2331 -1.1294
  878THY    HP721939   0.744   9.232   9.386 -0.3205  1.9561 -0.8942
  878THY    CA321940   0.831   9.272   9.775  0.7491 -0.7581 -0.1833
  878THY    HA321941   0.878   9.185   9.731 -0.4927 -0.5529 -2.0053
  878THY    CA421942   0.832   9.285   9.914 -0.2334  0.4284 -0.9830
  878THY    HA421943   0.873   9.201   9.968  1.0616  3.1600  2.7558
  878THY    CA521944   0.778   9.394   9.985 -0.2615  1.5074  0.7567
  878THY    CM121945   0.761   9.376  10.126  0.5689 -0.6078 -0.0285
  878THY    HM121946   0.661   9.404  10.162  1.1490  1.0030  0.3845
  878THY    HM221947   0.788   9.275  10.161 -1.5171 -0.7846  1.2947
  878THY    HM321948   0.828   9.453  10.166 -2.5752  1.9648  0.7289
  878THY    CA621949   0.732   9.502   9.908 -0.0817  0.3444 -0.4322
  878THY    HA621950   0.679   9.584   9.956 -0.0880 -1.0947  2.1804
  879THY      O21951   0.568   6.510   1.361 -0.1776  0.0390  0.5865
  879THY     HO21952   0.636   6.515   1.293 -1.9938  2.8580 -1.2042
  879THY    CA121953   0.587   6.404   1.446  0.1952 -0.2721 -0.7051
  879THY    CA221954   0.472   6.337   1.482  1.1131  0.2729 -0.0146
  879THY    CP121955   0.337   6.389   1.433 -0.4761  0.4895  0.5921
  879THY    HP121956   0.340   6.499   1.435  2.4667  0.4927  0.4051
  879THY    CP221957   0.303   6.336   1.296  0.5105 -0.2905 -0.6066
  879THY    HP221958   0.209   6.389   1.274  0.7284  0.8798  1.0596
  879THY    HP321959   0.379   6.349   1.218 -1.1620  0.2868 -2.2266
  879THY    HP421960   0.290   6.228   1.306  1.9709 -0.3388  1.3826
  879THY    CP321961   0.221   6.350   1.530 -0.3709  0.0349 -0.2024
  879THY    HP521962   0.244   6.373   1.634  1.2683  0.4915 -0.6311
  879THY    HP621963   0.128   6.402   1.505 -1.1096 -0.7050  0.9456
  879THY    HP721964   0.199   6.243   1.528  2.2268 -0.5680 -0.6331
  879THY    CA321965   0.486   6.226   1.573  0.3415 -0.2766  0.0863
  879THY    HA321966   0.402   6.162   1.598 -0.1681  0.9107  1.5408
  879THY    CA421967   0.615   6.191   1.613  1.1124  0.0035  0.0704
  879THY    HA421968   0.629   6.101   1.671  0.7258  0.4742  0.9056
  879THY    CA521969   0.729   6.263   1.584  0.1286  0.3367 -0.3470
  879THY    CM121970   0.866   6.222   1.654 -0.4963 -0.1952 -0.5176
  879THY    HM121971   0.927   6.154   1.592  0.0302 -2.2315  2.0715
  879THY    HM221972   0.926   6.310   1.682 -0.0528 -0.0710 -1.7776
  879THY    HM321973   0.849   6.174   1.751 -1.5022  0.6265 -0.2667
  879THY    CA621974   0.717   6.368   1.497 -0.2678  0.0312 -0.0965
  879THY    HA621975   0.794   6.442   1.478 -2.2416  1.7918 -1.8497
  880THY      O21976   1.301   0.431   6.729  0.1654  0.4864 -0.2544
  880THY     HO21977   1.212   0.463   6.709  0.4809  0.7558 -1.2987
  880THY    CA121978   1.346   0.404   6.613  0.1640 -0.4304 -0.4076
  880THY    CA221979   1.473   0.426   6.574 -0.2106  1.0094 -0.3056
  880THY    CP121980   1.588   0.471   6.676 -0.0886  0.1401 -0.0291
  880THY    HP121981   1.558   0.496   6.778 -0.5471 -2.1379  0.4631
  880THY    CP221982   1.696   0.356   6.699 -0.1909 -0.0727  0.4150
  880THY    HP221983   1.765   0.395   6.775 -2.7474  1.0838  2.2937
  880THY    HP321984   1.645   0.269   6.741  0.0563 -0.2030  0.4439
  880THY    HP421985   1.745   0.332   6.604 -3.1559  1.1855 -1.5912
  880THY    CP321986   1.666   0.588   6.619  0.3272  0.4366 -0.6337
  880THY    HP521987   1.725   0.629   6.702 -1.0035  0.8419  0.1369
  880THY    HP621988   1.737   0.558   6.541  0.6665  1.4857 -0.7378
  880THY    HP721989   1.593   0.663   6.587  0.1829  1.3539  1.6441
  880THY    CA321990   1.517   0.391   6.444  0.0121 -0.0337  0.1617
  880THY    HA321991   1.620   0.395   6.410 -0.4554 -0.9230 -1.4986
  880THY    CA421992   1.418   0.335   6.357 -1.2256  0.1346 -0.3789
  880THY    HA421993   1.442   0.294   6.259 -0.4225 -3.1435  1.0244
  880THY    CA521994   1.289   0.304   6.402 -0.3418  0.2190 -0.0240
  880THY    CM121995   1.192   0.225   6.312 -0.3424 -0.5148  0.9186
  880THY    HM121996   1.147   0.144   6.371 -2.3987  0.6322  1.0246
  880THY    HM221997   1.117   0.286   6.260 -0.6119 -0.9625  0.7747
  880THY    HM321998   1.247   0.167   6.238 -0.7906 -1.6085  1.4213
  880THY    CA621999   1.249   0.335   6.532  0.1959 -0.3070 -0.3680
  880THY    HA622000   1.152   0.301   6.565  0.6561 -2.1284 -0.7795
  881THY      O22001   8.885   3.973   4.368 -0.2137  0.2294  0.1385
  881THY     HO22002   8.835   3.938   4.292  1.2010 -1.2733 -0.1637
  881THY    CA122003   8.855   4.107   4.374 -0.3124  0.1436  0.4804
  881THY    CA222004   8.885   4.190   4.477  0.6947 -0.3491 -0.0954
  881THY    CP122005   8.990   4.147   4.587 -0.2114 -0.4772 -0.5478
  881THY    HP122006   8.976   4.040   4.608 -0.3347 -0.7660 -1.9903
  881THY    CP222007   9.128   4.147   4.528 -0.2451 -0.0506 -0.1599
  881THY    HP222008   9.167   4.241   4.489  2.2922 -0.5693  0.9317
  881THY    HP322009   9.185   4.116   4.616 -0.9050  2.2388  1.1637
  881THY    HP422010   9.129   4.060   4.461 -4.8708 -0.7832  0.3500
  881THY    CP322011   8.995   4.222   4.715  0.5720  0.0272 -0.2186
  881THY    HP522012   9.075   4.297   4.719 -0.2794  0.9055  1.2655
  881THY    HP622013   8.895   4.253   4.748  1.1058 -0.1253  1.6451
  881THY    HP722014   9.023   4.152   4.795 -2.4776 -0.5304  0.4579
  881THY    CA322015   8.838   4.327   4.465  0.4475 -0.0227  0.0136
  881THY    HA322016   8.859   4.395   4.546  3.2123 -1.2719  0.4556
  881THY    CA422017   8.760   4.369   4.355  0.0611  0.1266  0.5077
  881THY    HA422018   8.724   4.471   4.352  0.7428  0.3546 -0.4059
  881THY    CA522019   8.730   4.276   4.254  0.5624 -0.0967 -0.7844
  881THY    CM122020   8.641   4.308   4.138 -0.1590  0.4710  0.2017
  881THY    HM122021   8.658   4.256   4.043  0.6895  0.5364  0.3096
  881THY    HM222022   8.533   4.291   4.151 -0.5223  2.3674 -0.1397
  881THY    HM322023   8.654   4.410   4.102  0.3868 -0.5380 -2.7707
  881THY    CA622024   8.787   4.146   4.264  0.4145  0.0449 -0.3042
  881THY    HA622025   8.765   4.070   4.189 -0.5989 -2.5210  2.3955
  882THY      O22026   9.262   3.462   6.431 -0.0764  0.1670  0.0921
  882THY     HO22027   9.225   3.430   6.346 -1.1744  0.8891  0.2787
  882THY    CA122028   9.362   3.548   6.389 -0.0379  0.1433 -0.6037
  882THY    CA222029   9.441   3.621   6.481  0.0073 -0.8555 -0.3755
  882THY    CP122030   9.402   3.614   6.625 -0.0633  0.1178 -0.3651
  882THY    HP122031   9.396   3.512   6.663 -1.4771  0.3558  0.1022
  882THY    CP222032   9.515   3.666   6.714  0.2442  0.0295  0.3297
  882THY    HP222033   9.495   3.635   6.817  1.2369  1.7038  1.0713
  882THY    HP322034   9.610   3.626   6.677 -0.5080  0.1638 -1.8515
  882THY    HP422035   9.528   3.775   6.714 -0.3939  0.1229  1.0597
  882THY    CP322036   9.265   3.686   6.632 -0.3544 -0.6722  0.3012
  882THY    HP522037   9.238   3.680   6.738 -1.6927 -0.9985 -0.0248
  882THY    HP622038   9.275   3.793   6.608  0.1407 -0.8091 -0.1220
  882THY    HP722039   9.182   3.638   6.578 -1.2642  1.1513 -0.0201
  882THY    CA322040   9.548   3.699   6.435 -0.7244  0.1158  0.2434
  882THY    HA322041   9.609   3.761   6.500  1.0337 -1.9368  0.6591
  882THY    CA422042   9.569   3.707   6.295  0.0283 -0.3302  0.5941
  882THY    HA422043   9.648   3.770   6.254  0.7691 -0.4525  1.7842
  882THY    CA522044   9.493   3.630   6.210 -0.5728  0.3462  0.1950
  882THY    CM122045   9.529   3.641   6.059 -0.0687  0.5435  0.2117
  882THY    HM122046   9.473   3.573   5.994 -0.2304  1.5407 -0.7268
  882THY    HM222047   9.494   3.732   6.010 -2.6776 -1.7436 -2.5402
  882THY    HM322048   9.637   3.634   6.042 -0.3933  0.9629 -2.3419
  882THY    CA622049   9.382   3.558   6.253 -0.0627 -0.7200 -0.0280
  882THY    HA622050   9.323   3.502   6.181  2.2261 -1.2904 -1.5795
  883THY      O22051   5.309   4.409   5.620 -0.0844  0.2991  0.1955
  883THY     HO22052   5.360   4.490   5.600  1.5916 -0.7799 -0.1755
  883THY    CA122053   5.374   4.355   5.722 -0.6304  0.3750  0.2717
  883THY    CA222054   5.338   4.230   5.761 -0.2720  0.0545  0.7783
  883THY    CP122055   5.230   4.148   5.683  0.7426 -0.2248 -0.2690
  883THY    HP122056   5.199   4.209   5.598 -1.2205  0.7504  1.0709
  883THY    CP222057   5.300   4.012   5.634 -0.4498 -0.5525  0.1556
  883THY    HP222058   5.399   4.039   5.597 -1.0360 -1.3710 -2.1939
  883THY    HP322059   5.305   3.939   5.716 -1.9459 -1.6907 -0.7110
  883THY    HP422060   5.241   3.956   5.560 -1.0084  0.0272  0.1472
  883THY    CP322061   5.104   4.115   5.767  0.2085  0.0924  0.1079
  883THY    HP522062   5.042   4.204   5.780 -0.5455 -0.2890 -0.7715
  883THY    HP622063   5.047   4.038   5.713 -0.1191  0.9759 -0.8269
  883THY    HP722064   5.129   4.085   5.870 -2.9902  1.3475  1.3828
  883THY    CA322065   5.402   4.169   5.865  0.7856 -0.4538 -0.0909
  883THY    HA322066   5.375   4.074   5.908  0.6824  0.5434  2.2031
  883THY    CA422067   5.503   4.246   5.933 -0.1915 -0.3812  0.4920
  883THY    HA422068   5.542   4.202   6.024 -0.6817 -3.7602 -0.7903
  883THY    CA522069   5.538   4.377   5.901  0.7408 -0.6033  0.1799
  883THY    CM122070   5.631   4.461   5.989 -0.0041 -0.0972 -0.7185
  883THY    HM122071   5.596   4.562   6.011  0.4571  0.4461 -2.4030
  883THY    HM222072   5.647   4.417   6.088  1.6481  0.1902 -0.8439
  883THY    HM322073   5.724   4.485   5.937  2.2867 -2.6228  1.8364
  883THY    CA622074   5.465   4.432   5.800  0.2667  0.2158  0.9225
  883THY    HA622075   5.484   4.533   5.764 -0.5611 -0.4510 -1.5926
  884THY      O22076   9.778   1.451   0.338  0.2585 -0.6634 -0.6182
  884THY     HO22077   9.776   1.374   0.397 -2.3461 -0.3710 -0.2055
  884THY    CA122078   9.773   1.397   0.213  0.7029 -0.5880  0.4934
  884THY    CA222079   9.808   1.477   0.109  0.8041  0.0276  0.4945
  884THY    CP122080   9.847   1.626   0.126 -0.5036  0.1690  0.5868
  884THY    HP122081   9.897   1.651   0.220 -0.4544  1.5130  0.2250
  884THY    CP222082   9.938   1.683   0.018  0.2008  0.1047  0.8713
  884THY    HP222083   9.901   1.680  -0.086  2.2171  3.5339 -0.1081
  884THY    HP322084   9.971   1.781   0.054  2.0127 -0.9802  2.2936
  884THY    HP422085  10.030   1.624   0.016 -0.0983 -0.3475  0.0399
  884THY    CP322086   9.722   1.719   0.134  0.6385  0.0743 -0.5428
  884THY    HP522087   9.648   1.681   0.206  3.1550 -2.3048  0.9869
  884THY    HP622088   9.754   1.820   0.161 -0.5305  0.0825  0.9977
  884THY    HP722089   9.662   1.723   0.043 -1.4722  2.6625  0.8051
  884THY    CA322090   9.818   1.419  -0.022  0.5814  0.2752 -0.2486
  884THY    HA322091   9.842   1.472  -0.113  1.7453 -1.7686 -1.2219
  884THY    CA422092   9.772   1.283  -0.041  0.7932  0.6128  0.0542
  884THY    HA422093   9.765   1.239  -0.140 -0.4811  1.3723 -0.2139
  884THY    CA522094   9.732   1.209   0.072  0.4476  0.6225 -0.3974
  884THY    CM122095   9.701   1.064   0.060 -0.2086  0.0682  0.2189
  884THY    HM122096   9.604   1.031   0.022 -0.0919  0.7711 -0.7200
  884THY    HM222097   9.781   1.022  -0.003 -0.3579 -0.1298  0.1610
  884THY    HM322098   9.720   1.012   0.155  2.3385  1.5337  0.6148
  884THY    CA622099   9.737   1.264   0.202  0.2149 -0.2496  0.4169
  884THY    HA622100   9.713   1.207   0.291  1.6579 -0.4495  0.7034
  885THY      O22101   0.639   0.114   7.458  0.0864  0.2169 -0.2898
  885THY     HO22102   0.641   0.023   7.490 -1.1481  0.0346 -0.6798
  885THY    CA122103   0.532   0.118   7.377  0.1184  0.3196  0.0830
  885THY    CA222104   0.495   0.234   7.303  0.1863 -0.6958  0.4194
  885THY    CP122105   0.578   0.363   7.318  0.3918  0.2059 -0.0666
  885THY    HP122106   0.640   0.366   7.408  0.8127  0.7148 -0.3711
  885THY    CP222107   0.671   0.379   7.193 -0.1043  0.2376 -0.0140
  885THY    HP222108   0.702   0.484   7.187  1.1355 -0.1842 -1.3809
  885THY    HP322109   0.750   0.306   7.214  2.1404  2.5825  0.1293
  885THY    HP422110   0.614   0.360   7.102  2.7999 -2.6223 -1.4286
  885THY    CP322111   0.484   0.488   7.337 -0.1526 -0.1757  0.2661
  885THY    HP522112   0.442   0.515   7.240  1.2130  3.1188  0.4647
  885THY    HP622113   0.395   0.463   7.395 -1.2500  1.8894 -0.4394
  885THY    HP722114   0.537   0.575   7.378 -1.6514  0.6692  0.4562
  885THY    CA322115   0.377   0.231   7.225 -0.5924 -0.3152 -0.3645
  885THY    HA322116   0.346   0.321   7.171 -0.8150  1.4155  2.4226
  885THY    CA422117   0.309   0.109   7.198 -0.1347 -0.0266  0.2524
  885THY    HA422118   0.219   0.112   7.138  0.2064 -2.2656 -0.4358
  885THY    CA522119   0.344  -0.004   7.272  0.4004 -1.0162 -0.1917
  885THY    CM122120   0.278  -0.139   7.250 -0.3294 -0.3439 -0.3155
  885THY    HM122121   0.348  -0.193   7.184  1.6855  2.4345 -0.6361
  885THY    HM222122   0.280  -0.195   7.344  1.4314  1.1144  0.5715
  885THY    HM322123   0.176  -0.145   7.211 -0.2592 -0.7558 -0.4455
  885THY    CA622124   0.457  -0.001   7.356 -1.0534 -0.0328  0.2586
  885THY    HA622125   0.483  -0.094   7.404 -4.7808 -1.8799 -0.9086
  886THY      O22126   4.762   6.244   9.370  0.5575 -0.4545 -0.0458
  886THY     HO22127   4.737   6.211   9.282 -0.0376  0.5436 -0.2674
  886THY    CA122128   4.736   6.376   9.351 -0.3900  0.1927 -0.5830
  886THY    CA222129   4.808   6.481   9.421  0.2304 -0.5879  0.4678
  886THY    CP122130   4.893   6.445   9.540 -0.4144 -0.2309  1.1557
  886THY    HP122131   4.867   6.361   9.605  0.4357 -1.9391 -0.5933
  886THY    CP222132   5.027   6.408   9.476  0.2867 -0.1229 -0.0723
  886THY    HP222133   5.103   6.392   9.554 -1.5158  0.2217  1.8189
  886THY    HP322134   5.030   6.320   9.410  3.0719 -0.4731  0.3953
  886THY    HP422135   5.067   6.489   9.413  1.6162  0.0947  0.9976
  886THY    CP322136   4.905   6.562   9.644  0.3639  0.7733 -0.5714
  886THY    HP522137   4.936   6.656   9.598  0.5075  0.0002 -2.1181
  886THY    HP622138   4.812   6.563   9.701 -0.5459  0.9002 -2.0230
  886THY    HP722139   4.993   6.547   9.708 -0.7018  1.3680  1.1107
  886THY    CA322140   4.781   6.618   9.378  0.7566 -0.6318  0.3937
  886THY    HA322141   4.828   6.702   9.430  1.0155 -1.4611  1.5350
  886THY    CA422142   4.676   6.638   9.280 -0.0359 -0.3403  0.4999
  886THY    HA422143   4.651   6.741   9.258  0.9422 -0.2300 -0.1296
  886THY    CA522144   4.618   6.534   9.217 -0.4230 -0.6857  0.3214
  886THY    CM122145   4.523   6.554   9.094  0.3530  0.5823 -0.6587
  886THY    HM122146   4.419   6.529   9.116  0.3392  0.5389 -0.7735
  886THY    HM222147   4.521   6.660   9.069  1.3986  0.9738  0.7618
  886THY    HM322148   4.569   6.501   9.010  3.2665 -0.5474  1.4482
  886THY    CA622149   4.649   6.403   9.248 -0.1581 -0.3962 -0.1847
  886THY    HA622150   4.588   6.327   9.201  0.8925 -0.1246 -2.0694
  887THY      O22151   8.210   8.837   6.700 -0.3703 -0.2182  0.1786
  887THY     HO22152   8.307   8.844   6.705 -0.5293  1.5328  1.9539
  887THY    CA122153   8.169   8.947   6.638  0.7867  0.4441 -0.2726
  887THY    CA222154   8.074   9.036   6.693 -0.1566 -0.2097 -0.3087
  887THY    CP122155   8.021   9.021   6.833  0.7365 -0.3484 -0.3862
  887THY    HP122156   8.012   8.913   6.847 -0.4197 -0.3029 -0.6458
  887THY    CP222157   8.116   9.078   6.936 -0.4215  0.1004 -0.2364
  887THY    HP222158   8.070   9.089   7.034 -2.3488 -1.4898 -0.8879
  887THY    HP322159   8.211   9.023   6.926  0.5596  1.8456 -1.1522
  887THY    HP422160   8.148   9.179   6.909 -1.1130  0.0229 -1.4149
  887THY    CP322161   7.883   9.076   6.862 -0.0632  0.2861 -0.8017
  887THY    HP522162   7.848   9.172   6.821 -3.9545 -1.4943 -2.0877
  887THY    HP622163   7.815   9.001   6.821  1.3938 -1.9686  0.6709
  887THY    HP722164   7.864   9.081   6.970 -0.8196  1.8261 -0.9820
  887THY    CA322165   8.034   9.154   6.615 -0.3805 -0.3427 -0.5026
  887THY    HA322166   7.961   9.226   6.648  0.2244  0.3502 -0.6459
  887THY    CA422167   8.101   9.183   6.494  0.0659  0.0227  0.9738
  887THY    HA422168   8.080   9.271   6.433  0.9773 -0.4549 -0.0679
  887THY    CA522169   8.204   9.100   6.444  0.1143 -0.4788 -0.5691
  887THY    CM122170   8.263   9.121   6.310 -0.1045  0.4829  0.2317
  887THY    HM122171   8.189   9.131   6.230  1.8199  0.2976 -1.6817
  887THY    HM222172   8.331   9.207   6.308  1.5776 -0.8027 -1.1758
  887THY    HM322173   8.306   9.027   6.273 -2.5462 -0.2235 -1.0098
  887THY    CA622174   8.224   8.979   6.518 -0.3084 -0.3068 -0.3462
  887THY    HA622175   8.302   8.918   6.471  1.2178  0.9242  0.4854
  888THY      O22176   8.569   5.071   6.099  0.4802 -0.1591  0.0640
  888THY     HO22177   8.511   5.000   6.066  0.2514 -1.6796  3.2967
  888THY    CA122178   8.655   5.025   6.193 -0.2632 -0.2571 -0.4301
  888THY    CA222179   8.715   5.107   6.297  0.6152 -0.4410 -0.0827
  888THY    CP122180   8.685   5.259   6.312 -0.2086  0.5691  0.5246
  888THY    HP122181   8.588   5.283   6.267 -0.3014 -0.0683  0.3776
  888THY    CP222182   8.661   5.290   6.460 -0.0046  0.1502  0.1804
  888THY    HP222183   8.596   5.219   6.513 -0.6369  0.5298 -0.0833
  888THY    HP322184   8.760   5.297   6.508 -0.6104 -0.6848  1.6299
  888THY    HP422185   8.625   5.394   6.463  0.5364  0.5322  5.8074
  888THY    CP322186   8.796   5.342   6.243 -0.4071  0.3175  0.2650
  888THY    HP522187   8.892   5.341   6.294  0.1929 -1.5087 -0.7948
  888THY    HP622188   8.815   5.303   6.142 -3.4966  1.1716 -0.7744
  888THY    HP722189   8.766   5.447   6.245  1.0517  0.8389 -1.9456
  888THY    CA322190   8.814   5.043   6.369  0.0648  0.1691 -0.8100
  888THY    HA322191   8.872   5.100   6.441  0.5950 -1.2435 -0.0651
  888THY    CA422192   8.839   4.904   6.358 -0.1758  0.4775  0.1678
  888THY    HA422193   8.908   4.850   6.421 -0.7945  0.5914  0.9636
  888THY    CA522194   8.765   4.826   6.269  0.0637 -0.4798  0.3395
  888THY    CM122195   8.776   4.678   6.281 -0.1706  0.3172 -0.2432
  888THY    HM122196   8.720   4.632   6.198  0.9810 -0.5616 -0.5531
  888THY    HM222197   8.881   4.651   6.266 -0.3702 -0.2063 -0.7411
  888THY    HM322198   8.737   4.639   6.376 -1.3426  1.2319 -0.3239
  888THY    CA622199   8.670   4.885   6.184  0.1804  0.0148  0.7173
  888THY    HA622200   8.604   4.831   6.117  1.0681 -1.7549  1.2054
  889THY      O22201   4.045   9.148   5.415  1.0324  0.5069  0.1800
  889THY     HO22202   4.066   9.077   5.479  3.7517 -0.6068 -1.7646
  889THY    CA122203   4.120   9.116   5.307 -1.5986  0.1340 -0.3301
  889THY    CA222204   4.167   9.211   5.222 -0.6647  0.1425 -0.8377
  889THY    CP122205   4.113   9.352   5.224 -0.0368  0.1969  0.4099
  889THY    HP122206   4.016   9.343   5.275  0.1963  0.6538  0.9595
  889THY    CP222207   4.191   9.439   5.322  0.4463 -0.2349  0.2437
  889THY    HP222208   4.174   9.389   5.418 -2.5659  1.3050  0.6211
  889THY    HP322209   4.297   9.427   5.294  0.5235 -1.8163  1.0661
  889THY    HP422210   4.164   9.545   5.325  0.3069 -0.2014 -1.3162
  889THY    CP322211   4.102   9.410   5.080  0.4385  0.1503 -0.1318
  889THY    HP522212   4.024   9.487   5.087  1.9167  1.5918  1.1437
  889THY    HP622213   4.192   9.455   5.038  0.4970  0.0177 -0.1511
  889THY    HP722214   4.082   9.334   5.003  1.1742  0.3939 -0.5704
  889THY    CA322215   4.266   9.178   5.122 -0.0099  0.0002 -0.2420
  889THY    HA322216   4.301   9.253   5.052 -0.6687  1.6282  1.0958
  889THY    CA422217   4.315   9.043   5.125 -0.6288 -0.3919  0.1622
  889THY    HA422218   4.392   9.016   5.053 -0.5120  3.2686 -1.3138
  889THY    CA522219   4.268   8.948   5.217  0.6730  0.4377  0.7105
  889THY    CM122220   4.321   8.810   5.214 -0.4293 -0.0741  0.2613
  889THY    HM122221   4.422   8.797   5.254 -0.3508 -2.1855 -0.5070
  889THY    HM222222   4.261   8.736   5.268  0.9753 -1.8139 -0.4791
  889THY    HM322223   4.310   8.770   5.113  0.2755  2.0716 -0.7379
  889THY    CA622224   4.171   8.984   5.310  0.0634  0.0679  0.0668
  889THY    HA622225   4.138   8.911   5.383  1.6265  1.0144  1.8080
  890THY      O22226   9.228   5.180   5.628  0.2329  0.5326  0.1788
  890THY     HO22227   9.283   5.154   5.552  0.5494  0.5870  0.3879
  890THY    CA122228   9.203   5.059   5.684 -0.3151  0.4568  0.0490
  890THY    CA222229   9.124   5.042   5.799  0.1526  0.1425 -0.3407
  890THY    CP122230   9.055   5.169   5.867  0.0746  1.0100  0.4570
  890THY    HP122231   9.045   5.260   5.806  1.8585  1.3858  0.6807
  890THY    CP222232   8.912   5.132   5.911 -0.0508  0.8196  0.2395
  890THY    HP222233   8.910   5.072   6.003  0.6291 -0.3042 -0.4594
  890THY    HP322234   8.845   5.219   5.913  0.5408  1.4194 -2.4427
  890THY    HP422235   8.864   5.065   5.840 -1.2775  0.8490  1.0118
  890THY    CP322236   9.123   5.214   5.994 -0.3514  0.3309 -0.2316
  890THY    HP522237   9.093   5.306   6.044  1.9681  0.6552  0.7137
  890THY    HP622238   9.122   5.134   6.069  0.2263 -0.6712 -1.2427
  890THY    HP722239   9.230   5.210   5.969 -0.4041 -2.2093 -0.2818
  890THY    CA322240   9.107   4.917   5.857  0.0022  0.9022  0.4868
  890THY    HA322241   9.056   4.907   5.952 -0.2145 -0.9468  0.2046
  890THY    CA422242   9.161   4.807   5.797 -0.4163 -0.4426 -0.4538
  890THY    HA422243   9.137   4.708   5.835  2.9334 -0.6328  1.6470
  890THY    CA522244   9.231   4.822   5.675  0.3147 -0.6184 -0.2811
  890THY    CM122245   9.289   4.710   5.606 -0.0605  0.7327 -0.1103
  890THY    HM122246   9.286   4.710   5.496 -0.1330 -1.4404 -0.1601
  890THY    HM222247   9.389   4.689   5.644 -0.2107 -0.8384 -0.4956
  890THY    HM322248   9.236   4.617   5.629 -2.1379  1.5918 -1.1657
  890THY    CA622249   9.248   4.951   5.615  0.5421 -0.5109 -0.0026
  890THY    HA622250   9.312   4.959   5.528  3.3988 -0.9320  1.9233
  891THY      O22251   0.472   9.818   9.897 -0.1000 -0.2316  0.6510
  891THY     HO22252   0.396   9.758   9.904  0.3835 -0.9390  0.0191
  891THY    CA122253   0.458   9.899   9.786 -0.1548 -0.4726 -0.6447
  891THY    CA222254   0.563   9.984   9.747 -0.1568 -0.8807  0.2632
  891THY    CP122255   0.704   9.981   9.805 -0.6832  0.2113  0.1873
  891THY    HP122256   0.703   9.905   9.884  0.1125 -0.1484 -0.1278
  891THY    CP222257   0.803   9.936   9.694 -0.2985  0.0340  0.4999
  891THY    HP222258   0.777   9.989   9.602 -1.8367 -2.3963 -0.6000
  891THY    HP322259   0.905   9.950   9.730 -0.6828  2.7978  0.7056
  891THY    HP422260   0.789   9.831   9.666  1.4654  0.3222 -1.6640
  891THY    CP322261   0.749  10.123   9.857 -0.2245 -0.2513  0.8717
  891THY    HP522262   0.783  10.187   9.775  0.7663  1.5015  2.5803
  891THY    HP622263   0.661  10.170   9.902 -1.3631 -0.3621 -1.1399
  891THY    HP722264   0.828  10.120   9.933  2.3651 -0.7196 -1.6781
  891THY    CA322265   0.537  10.079   9.646 -0.1298  0.5874  0.5743
  891THY    HA322266   0.613  10.149   9.613  1.3812 -0.7717  1.0379
  891THY    CA422267   0.415  10.073   9.577 -0.5257  0.4681  0.5449
  891THY    HA422268   0.386  10.152   9.509 -0.6599 -0.6413 -0.7360
  891THY    CA522269   0.321   9.976   9.609  0.4091  0.2295  0.7612
  891THY    CM122270   0.183   9.965   9.538 -0.5702  0.3144 -0.4769
  891THY    HM122271   0.142  10.064   9.515  0.1358  0.8736  0.5778
  891THY    HM222272   0.197   9.907   9.446 -1.1076  2.1394 -1.7494
  891THY    HM322273   0.117   9.915   9.609  0.8080  1.9292  2.1194
  891THY    CA622274   0.344   9.891   9.718 -0.1293 -0.3629  0.1003
  891THY    HA622275   0.264   9.819   9.737  0.0245 -1.0201 -1.5279
  892THY      O22276   6.068   1.601   6.584  0.5038 -0.5020 -0.1634
  892THY     HO22277   6.093   1.635   6.496 -0.8598 -0.6272 -0.6329
  892THY    CA122278   6.013   1.693   6.665 -0.0500  0.3823 -0.5350
  892THY    CA222279   6.021   1.684   6.802  0.3512 -0.2793 -0.5731
  892THY    CP122280   6.079   1.557   6.862  0.0733 -0.2828 -0.3240
  892THY    HP122281   6.151   1.511   6.794  0.2906  0.4543 -0.5972
  892THY    CP222282   6.172   1.579   6.980  0.5852 -0.2273  0.2884
  892THY    HP222283   6.169   1.485   7.036 -0.6915 -0.9653 -0.9871
  892THY    HP322284   6.276   1.603   6.953  0.3268 -0.1211 -0.6338
  892THY    HP422285   6.135   1.664   7.039 -0.0008  0.1463 -0.5997
  892THY    CP322286   5.975   1.453   6.885  0.4658  0.0598  0.2182
  892THY    HP522287   6.022   1.363   6.927 -0.5140 -0.1420  0.9406
  892THY    HP622288   5.890   1.490   6.943 -0.2445  0.1286 -0.8373
  892THY    HP722289   5.925   1.430   6.790  3.1679  0.5233 -1.4068
  892THY    CA322290   5.940   1.771   6.884 -0.5150 -0.4135 -0.3140
  892THY    HA322291   5.935   1.762   6.992  2.8459  1.1373  0.0868
  892THY    CA422292   5.870   1.879   6.819  0.0936 -0.0018 -0.1053
  892THY    HA422293   5.811   1.946   6.881  0.9754 -0.8394  1.7350
  892THY    CA522294   5.880   1.900   6.680 -0.4731  0.2301  0.0841
  892THY    CM122295   5.818   2.014   6.611  0.5901 -0.6455  0.4030
  892THY    HM122296   5.859   2.106   6.656 -0.6110 -0.0847  0.3916
  892THY    HM222297   5.826   2.007   6.502  3.7306  1.1507  0.3902
  892THY    HM322298   5.713   2.020   6.641  1.1361  0.3155  2.3524
  892THY    CA622299   5.948   1.800   6.605  0.4538  0.1682 -0.6604
  892THY    HA622300   5.947   1.813   6.497  0.7035 -1.9598 -0.9591
  893THY      O22301   8.269   0.474   0.801 -0.0220  0.4342  0.2289
  893THY     HO22302   8.330   0.398   0.811  1.5784  1.6481  0.0234
  893THY    CA122303   8.332   0.546   0.704  0.4827  0.2987 -0.1806
  893THY    CA222304   8.344   0.684   0.718  0.1681  0.0633 -0.0937
  893THY    CP122305   8.284   0.751   0.841  0.1282 -0.4475 -0.6388
  893THY    HP122306   8.254   0.683   0.922  2.5122  0.7993  1.4135
  893THY    CP222307   8.383   0.847   0.908 -0.1043  0.1455 -0.1697
  893THY    HP222308   8.354   0.870   1.011 -0.8970 -2.3009  0.2115
  893THY    HP322309   8.476   0.788   0.910 -0.6005 -0.6951 -1.2005
  893THY    HP422310   8.410   0.936   0.850  0.3658 -0.9147 -1.6248
  893THY    CP322311   8.149   0.824   0.814 -0.1485 -0.6259  0.2239
  893THY    HP522312   8.169   0.894   0.732 -0.2988 -1.7412 -0.7946
  893THY    HP622313   8.072   0.757   0.774 -1.7992 -0.2652  2.6429
  893THY    HP722314   8.106   0.875   0.900  2.1658 -0.8522  1.6034
  893THY    CA322315   8.405   0.764   0.613 -0.2509  0.0385 -0.0258
  893THY    HA322316   8.410   0.872   0.611  2.3482  0.0428  2.0510
  893THY    CA422317   8.470   0.692   0.518  0.1752  0.4463  0.3333
  893THY    HA422318   8.519   0.745   0.436 -1.9865  0.6500 -0.8869
  893THY    CA522319   8.457   0.551   0.495  0.4890 -0.3130  0.0720
  893THY    CM122320   8.511   0.478   0.380  0.2832 -0.7282  0.4852
  893THY    HM122321   8.462   0.384   0.350 -1.2962  0.8695 -2.3587
  893THY    HM222322   8.515   0.538   0.288 -0.5902  1.6069  1.8835
  893THY    HM322323   8.619   0.464   0.392  0.9165  1.0198 -2.3886
  893THY    CA622324   8.387   0.480   0.594  0.5561 -0.3742 -0.0491
  893THY    HA622325   8.374   0.373   0.581 -1.8279  0.0858 -2.4462
  894THY      O22326   1.243   0.726   0.463  0.5976 -0.3604 -0.0058
  894THY     HO22327   1.175   0.657   0.452  0.4109 -0.5377  1.8613
  894THY    CA122328   1.348   0.663   0.516  0.2365  0.3922 -0.2395
  894THY    CA222329   1.474   0.722   0.542  0.3355  0.1543  0.5055
  894THY    CP122330   1.500   0.873   0.537  0.0988  0.6448 -0.4806
  894THY    HP122331   1.410   0.925   0.501 -0.4323 -1.3599 -2.3404
  894THY    CP222332   1.520   0.942   0.666  0.4037 -0.8465  0.2556
  894THY    HP222333   1.440   0.909   0.733 -0.6999 -1.1672 -1.1791
  894THY    HP322334   1.618   0.926   0.712  2.2799  3.2645 -1.6950
  894THY    HP422335   1.521   1.050   0.643  0.9790 -1.0879 -0.8994
  894THY    CP322336   1.616   0.900   0.431  0.2869  0.1079  0.6674
  894THY    HP522337   1.635   1.008   0.422  0.2462  0.0143 -0.7446
  894THY    HP622338   1.708   0.846   0.452  0.1272 -1.1131 -1.4551
  894THY    HP722339   1.583   0.864   0.333  2.7243  1.1868 -0.6363
  894THY    CA322340   1.579   0.633   0.572 -0.2076 -0.2580 -0.0094
  894THY    HA322341   1.675   0.680   0.593 -0.0424 -0.2962 -0.6399
  894THY    CA422342   1.568   0.493   0.556 -0.5826  0.6116  0.0751
  894THY    HA422343   1.657   0.433   0.573  0.0840  1.5150 -0.1496
  894THY    CA522344   1.442   0.436   0.529 -0.7050  0.4161  0.2873
  894THY    CM122345   1.421   0.294   0.535  0.3910  1.0719  0.7707
  894THY    HM122346   1.507   0.225   0.536 -1.1140 -0.9632  3.2019
  894THY    HM222347   1.372   0.262   0.628 -0.4951  1.5154  0.4617
  894THY    HM322348   1.369   0.261   0.444  1.6863 -1.1389  0.7462
  894THY    CA622349   1.332   0.522   0.512 -0.4614 -0.1450 -0.0516
  894THY    HA622350   1.233   0.476   0.507 -0.8681  0.0433  3.4792
  895THY      O22351   2.323   7.017   7.299  0.1816 -0.2981  0.1471
  895THY     HO22352   2.417   7.004   7.317  0.1190 -0.8314  0.1088
  895THY    CA122353   2.302   6.941   7.195  0.4305 -0.2116 -0.1810
  895THY    CA222354   2.175   6.886   7.179 -0.0829  0.0335 -0.5128
  895THY    CP122355   2.068   6.899   7.287  0.4057  0.3266 -0.6171
  895THY    HP122356   2.120   6.912   7.382  0.9858  3.8696 -1.2753
  895THY    CP222357   1.983   7.027   7.286 -0.1932 -0.3498 -0.0331
  895THY    HP222358   1.938   7.036   7.186  1.9855 -0.4402 -1.0791
  895THY    HP322359   1.897   7.027   7.355 -0.1470 -0.0156  0.0236
  895THY    HP422360   2.043   7.116   7.306  1.7881 -1.9490  1.4372
  895THY    CP322361   1.980   6.776   7.301  0.0576 -0.3761  0.4410
  895THY    HP522362   1.926   6.765   7.396 -0.2990 -2.2779  0.0573
  895THY    HP622363   1.901   6.771   7.226  0.1354  0.2301  0.3211
  895THY    HP722364   2.038   6.685   7.279  1.5413  0.2138  1.6721
  895THY    CA322365   2.145   6.811   7.062 -0.1507  0.4647  0.6579
  895THY    HA322366   2.046   6.766   7.050  0.7503 -1.2353 -0.8649
  895THY    CA422367   2.244   6.788   6.967 -0.5100  0.3988 -0.4614
  895THY    HA422368   2.237   6.722   6.882  2.2386  0.4481 -0.7993
  895THY    CA522369   2.367   6.854   6.984  0.8989 -0.2433  0.6013
  895THY    CM122370   2.462   6.867   6.870  0.6526  0.5514  0.5387
  895THY    HM122371   2.409   6.861   6.774  0.8170  1.2838  0.3891
  895THY    HM222372   2.502   6.970   6.873  1.1958  0.3426  0.6593
  895THY    HM322373   2.547   6.799   6.884 -0.4626 -0.4539  2.7845
  895THY    CA622374   2.395   6.938   7.094  0.3536  0.0244 -0.3512
  895THY    HA622375   2.487   6.996   7.101 -0.2170  0.9828 -0.6180
  896THY      O22376   4.380   0.909   8.728  0.3394 -0.1541  0.1079
  896THY     HO22377   4.379   0.816   8.698 -1.6749 -0.0057 -0.4269
  896THY    CA122378   4.443   0.914   8.849 -0.4288  0.3694 -0.7700
  896THY    CA222379   4.506   1.025   8.904 -1.2684 -0.8053 -0.1323
  896THY    CP122380   4.513   1.160   8.827  0.2356 -0.2326  0.3073
  896THY    HP122381   4.450   1.169   8.737  0.7299  2.3897  0.1637
  896THY    CP222382   4.466   1.278   8.912  0.1211 -0.3504 -0.2650
  896THY    HP222383   4.367   1.247   8.948 -1.3788  3.0393 -1.0219
  896THY    HP322384   4.536   1.300   8.993 -1.4316  1.6336  0.6176
  896THY    HP422385   4.459   1.373   8.859  0.0988 -0.0390  0.2881
  896THY    CP322386   4.651   1.188   8.769 -0.3547 -0.4294  0.1326
  896THY    HP522387   4.640   1.273   8.701 -0.5281 -0.3527  0.2544
  896THY    HP622388   4.723   1.203   8.850 -1.1837 -0.0816  0.8376
  896THY    HP722389   4.688   1.103   8.712 -1.6394  0.5949 -2.3633
  896THY    CA322390   4.587   1.010   9.016 -0.8788 -0.2623  0.0938
  896THY    HA322391   4.648   1.095   9.045 -0.5486 -0.8088  1.0224
  896THY    CA422392   4.595   0.885   9.082 -0.3858  0.4700  0.5408
  896THY    HA422393   4.643   0.874   9.178 -1.9459  0.4638  1.3615
  896THY    CA522394   4.528   0.778   9.029  0.4289 -0.1163 -1.1016
  896THY    CM122395   4.527   0.646   9.106  0.8457 -0.2824 -0.0798
  896THY    HM122396   4.424   0.629   9.139  1.2468  2.5242  3.1761
  896THY    HM222397   4.565   0.564   9.043 -0.5681 -0.5121 -0.6684
  896THY    HM322398   4.569   0.643   9.207 -0.1318  0.9985  0.3805
  896THY    CA622399   4.452   0.791   8.911  0.2804 -0.0505 -0.4984
  896THY    HA622400   4.395   0.706   8.876 -2.5966  0.8957  1.5391
  897THY      O22401   8.107   6.333   9.875 -0.4120  0.3220 -0.0743
  897THY     HO22402   8.118   6.244   9.837 -2.6551  1.0101 -2.5885
  897THY    CA122403   7.983   6.340   9.927 -0.0911 -0.5301 -0.2749
  897THY    CA222404   7.943   6.451  10.003  0.8773  0.1496 -0.1343
  897THY    CP122405   8.041   6.567  10.031  0.6208  1.0186  0.1946
  897THY    HP122406   8.129   6.556   9.967 -0.6944 -1.3466 -1.3248
  897THY    CP222407   7.994   6.705   9.979  0.2911 -0.1269  0.2679
  897THY    HP222408   8.057   6.778  10.031  0.5480  1.1758 -1.7753
  897THY    HP322409   8.025   6.704   9.874 -1.0610  0.6490 -0.1669
  897THY    HP422410   7.891   6.737   9.999 -0.2876 -1.4036 -0.5337
  897THY    CP322411   8.077   6.573  10.179  0.0002  0.2345 -0.4913
  897THY    HP522412   8.009   6.631  10.243  0.4956  0.4858 -0.1891
  897THY    HP622413   8.095   6.473  10.220 -0.3363  0.0607 -0.7582
  897THY    HP722414   8.177   6.617  10.180 -0.5267  1.4584  0.1441
  897THY    CA322415   7.814   6.452  10.059  0.5703  0.0827 -0.3372
  897THY    HA322416   7.791   6.538  10.122  0.6390 -0.3595  0.3028
  897THY    CA422417   7.716   6.352  10.032  0.6567  0.0990  0.4417
  897THY    HA422418   7.616   6.357  10.073 -0.6293  0.0853 -2.4560
  897THY    CA522419   7.761   6.247   9.952  0.1032  1.1739  0.4867
  897THY    CM122420   7.670   6.135   9.916 -0.1880 -0.1125  0.0387
  897THY    HM122421   7.697   6.040   9.963  1.2912  1.6042  2.9350
  897THY    HM222422   7.565   6.156   9.941 -0.4954  0.1695 -1.3923
  897THY    HM322423   7.665   6.124   9.807  0.7395 -0.9204  0.0589
  897THY    CA622424   7.895   6.242   9.898  0.6489 -0.3192 -0.2382
  897THY    HA622425   7.928   6.170   9.824  1.4908  0.7265 -0.9148
  898THY      O22426   9.485   4.074   1.274  0.3513 -0.3504  0.3479
  898THY     HO22427   9.411   4.135   1.254  0.7531 -0.6690 -2.6748
  898THY    CA122428   9.457   4.011   1.389  0.7509  0.3788  0.1266
  898THY    CA222429   9.513   3.885   1.415  0.8886  0.1773  0.2701
  898THY    CP122430   9.617   3.828   1.316 -0.7940 -0.7059 -0.3837
  898THY    HP122431   9.667   3.905   1.256 -2.5260 -0.1267 -1.1495
  898THY    CP222432   9.738   3.762   1.386  0.1723  0.1054 -0.7163
  898THY    HP222433   9.709   3.678   1.450 -1.7806 -0.8435 -2.7180
  898THY    HP322434   9.807   3.716   1.314 -0.5448  0.7851 -1.8716
  898THY    HP422435   9.795   3.836   1.443 -1.2657 -0.0443  0.9659
  898THY    CP322436   9.561   3.728   1.225  0.3421  0.0924  0.5168
  898THY    HP522437   9.619   3.648   1.177  0.8335  1.3249 -1.0077
  898THY    HP622438   9.490   3.678   1.291  1.0523  1.1868  2.1564
  898THY    HP722439   9.500   3.761   1.139  0.7206 -0.3846  0.0553
  898THY    CA322440   9.483   3.827   1.543  0.8544 -0.2113  0.2931
  898THY    HA322441   9.530   3.736   1.579  0.9117  0.0641  0.9254
  898THY    CA422442   9.385   3.886   1.634 -0.1128  0.2057 -0.3958
  898THY    HA422443   9.364   3.838   1.729 -2.8469  0.9535 -0.5537
  898THY    CA522444   9.328   4.007   1.598  0.1743 -1.2781 -0.3605
  898THY    CM122445   9.218   4.071   1.685  0.0023 -0.2393  0.5736
  898THY    HM122446   9.257   4.158   1.739 -2.7280  0.7645  1.0695
  898THY    HM222447   9.137   4.113   1.625 -0.3952  0.9851  1.9267
  898THY    HM322448   9.169   3.996   1.749 -2.2550  0.0038 -0.7905
  898THY    CA622449   9.356   4.070   1.470 -0.0825  0.1815 -0.3989
  898THY    HA622450   9.311   4.166   1.445  1.3123  0.5996 -1.4535
  899THY      O22451   8.751   9.296   2.875 -0.5742 -0.0384 -0.6006
  899THY     HO22452   8.664   9.330   2.900 -0.0123  0.0699  1.3308
  899THY    CA122453   8.834   9.302   2.984  0.1524 -0.2257  0.7867
  899THY    CA222454   8.957   9.236   2.981  0.0215  0.5178  0.1070
  899THY    CP122455   8.981   9.130   2.876 -0.4390 -0.5322 -0.4776
  899THY    HP122456   8.886   9.082   2.849 -0.0296 -0.5710 -1.9441
  899THY    CP222457   9.038   9.179   2.743  0.3767 -0.0526 -0.1834
  899THY    HP222458   9.122   9.244   2.768  0.6397 -1.2629  2.5112
  899THY    HP322459   9.077   9.097   2.682 -1.0318  1.6286 -3.5924
  899THY    HP422460   8.964   9.226   2.678  0.1941  0.7105  0.5554
  899THY    CP322461   9.069   9.006   2.929  0.1586  0.1183 -0.2662
  899THY    HP522462   9.035   8.919   2.871  1.0142 -1.4622  1.4961
  899THY    HP622463   9.175   9.033   2.925  0.2543 -0.3696 -1.5644
  899THY    HP722464   9.049   8.980   3.034  1.5076  0.8526  0.1914
  899THY    CA322465   9.054   9.265   3.082  0.3023  0.3985 -0.3607
  899THY    HA322466   9.150   9.216   3.072 -0.1479 -0.7189  0.5522
  899THY    CA422467   9.020   9.357   3.186 -0.3163 -0.0465 -0.3283
  899THY    HA422468   9.098   9.379   3.258  0.9397 -0.9066 -1.3912
  899THY    CA522469   8.896   9.425   3.186 -0.2223  0.5753  0.0980
  899THY    CM122470   8.863   9.517   3.301 -0.5864 -0.4598  0.3577
  899THY    HM122471   8.869   9.468   3.399 -0.1113 -1.2541 -0.0639
  899THY    HM222472   8.928   9.605   3.297 -1.1439 -0.0210  0.7739
  899THY    HM322473   8.761   9.552   3.283 -0.0910  0.9009  0.0585
  899THY    CA622474   8.802   9.392   3.086 -0.0122 -0.3150 -0.9512
  899THY    HA622475   8.708   9.445   3.077 -0.6865 -1.6226 -1.8156
  900THY      O22476   2.369   0.341   6.465  0.0613  0.1097 -0.1680
  900THY     HO22477   2.435   0.413   6.459  4.5119 -3.3438  1.3591
  900THY    CA122478   2.246   0.381   6.445 -0.4547  0.2832 -0.7546
  900THY    CA222479   2.131   0.306   6.465 -0.1078  0.0617 -0.0918
  900THY    CP122480   2.137   0.152   6.522  0.6925 -0.4731  0.3190
  900THY    HP122481   2.240   0.117   6.507  0.2708 -1.7032  0.1266
  900THY    CP222482   2.097   0.143   6.670 -0.0835 -0.6189  0.8359
  900THY    HP222483   2.163   0.203   6.734 -0.1620 -0.2446  0.5728
  900THY    HP322484   1.995   0.178   6.689 -0.4162  1.1144 -3.1683
  900THY    HP422485   2.092   0.037   6.698 -0.1097 -0.8165  0.1052
  900THY    CP322486   2.056   0.062   6.429 -0.3763  1.1133 -0.1392
  900THY    HP522487   2.089   0.082   6.326 -0.9286  3.5283  0.0797
  900THY    HP622488   2.079  -0.043   6.447  0.6726  1.5170  0.9395
  900THY    HP722489   1.950   0.089   6.435 -0.5397  0.5345 -0.3356
  900THY    CA322490   2.009   0.363   6.441 -0.0375  0.4934  0.1532
  900THY    HA322491   1.923   0.297   6.441  0.9030 -0.7903 -1.0110
  900THY    CA422492   1.997   0.496   6.396  0.2117  0.3416  0.0803
  900THY    HA422493   1.894   0.521   6.373  0.5145  1.0007 -0.5938
  900THY    CA522494   2.110   0.574   6.382  0.3601  0.2192  0.1294
  900THY    CM122495   2.114   0.715   6.334  0.2930  0.1338  0.4096
  900THY    HM122496   2.117   0.774   6.426  0.8489 -0.5993  0.8734
  900THY    HM222497   2.199   0.743   6.269  0.8297 -0.5191  0.8134
  900THY    HM322498   2.026   0.744   6.276  0.0782 -0.8777  0.2079
  900THY    CA622499   2.231   0.510   6.411  0.0579  0.0960 -0.0360
  900THY    HA622500   2.323   0.561   6.385  0.7683 -1.0887  0.0906
  901THY      O22501   7.763   6.168   2.440  0.6561  0.4452 -0.2070
  901THY     HO22502   7.834   6.110   2.473  1.7045  0.9472 -1.5162
  901THY    CA122503   7.782   6.179   2.309  0.1686  0.4783 -0.1951
  901THY    CA222504   7.715   6.276   2.232  0.8063  1.0320 -0.4346
  901THY    CP122505   7.600   6.357   2.296 -0.0403  0.5099  0.7644
  901THY    HP122506   7.583   6.337   2.402 -0.4666 -0.6186  0.4884
  901THY    CP222507   7.631   6.513   2.300  0.4628 -0.2243  0.2912
  901THY    HP222508   7.659   6.562   2.206 -1.8329  2.6101  0.9317
  901THY    HP322509   7.549   6.564   2.352  0.7502  0.5062  0.0392
  901THY    HP422510   7.717   6.530   2.366  1.6266 -2.0296 -0.6655
  901THY    CP322511   7.478   6.326   2.212  1.0827  0.1599  0.4432
  901THY    HP522512   7.395   6.363   2.274  0.1906 -0.1988 -0.5005
  901THY    HP622513   7.467   6.370   2.112  0.0167 -1.1919 -0.0615
  901THY    HP722514   7.458   6.220   2.196 -1.5214  0.6037  0.1897
  901THY    CA322515   7.748   6.284   2.094 -0.1903  0.3552  0.8194
  901THY    HA322516   7.697   6.356   2.029 -1.2828 -2.4736 -1.6965
  901THY    CA422517   7.856   6.212   2.037 -0.1136  0.3094  0.2952
  901THY    HA422518   7.881   6.229   1.933 -0.8418 -0.2014  0.0222
  901THY    CA522519   7.924   6.119   2.119  0.4164  0.1303  0.1337
  901THY    CM122520   8.037   6.032   2.063 -0.8809  1.0871  0.4198
  901THY    HM122521   8.069   5.942   2.119  2.4905  2.8049  1.5418
  901THY    HM222522   7.997   5.989   1.971 -1.2456 -0.6270  1.3302
  901THY    HM322523   8.123   6.090   2.029 -1.0149 -0.0209 -1.9816
  901THY    CA622524   7.880   6.098   2.254 -0.1769 -0.2231  0.1969
  901THY    HA622525   7.933   6.031   2.321 -1.4167  0.0672  1.5243
  902THY      O22526   8.469   6.807   3.270 -0.1440 -0.2944  0.0053
  902THY     HO22527   8.407   6.810   3.196 -0.5580  0.0776  0.3605
  902THY    CA122528   8.594   6.807   3.228 -0.0293 -0.2895  0.8142
  902THY    CA222529   8.702   6.808   3.316 -0.4259 -0.0986 -0.5878
  902THY    CP122530   8.684   6.808   3.467 -0.5622  0.4775  0.3946
  902THY    HP122531   8.579   6.791   3.494 -0.0649 -0.3640  1.8976
  902THY    CP222532   8.783   6.699   3.525  0.6495 -0.1268 -0.0838
  902THY    HP222533   8.784   6.611   3.460  2.4104  0.3652 -0.7939
  902THY    HP322534   8.887   6.729   3.508  0.2874  1.0124 -0.3865
  902THY    HP422535   8.757   6.672   3.628 -1.8420  1.9635 -0.0747
  902THY    CP322536   8.718   6.945   3.521 -0.5061  0.2565  0.5583
  902THY    HP522537   8.710   6.948   3.630 -0.2326 -0.8455  0.6228
  902THY    HP622538   8.821   6.974   3.497 -0.6375  1.6063  1.5000
  902THY    HP722539   8.658   7.022   3.471  0.6873  1.0647  0.3402
  902THY    CA322540   8.832   6.818   3.257 -0.4140 -0.4006  0.0475
  902THY    HA322541   8.923   6.825   3.316  0.4157 -2.3578 -0.9078
  902THY    CA422542   8.852   6.805   3.118 -0.1074  0.7165  0.0280
  902THY    HA422543   8.953   6.791   3.082  0.0690 -1.3104  1.1472
  902THY    CA522544   8.747   6.803   3.032  0.6675  0.3358  0.4907
  902THY    CM122545   8.762   6.776   2.885 -0.0720 -0.5002  0.4386
  902THY    HM122546   8.806   6.677   2.870 -0.3040 -0.6055  0.4395
  902THY    HM222547   8.665   6.785   2.835  0.8286 -1.3924 -1.5582
  902THY    HM322548   8.824   6.855   2.841 -2.2915  0.4608 -1.1446
  902THY    CA622549   8.617   6.797   3.091  0.3530 -0.2241 -0.1384
  902THY    HA622550   8.530   6.784   3.027 -2.3195  0.3573  3.0777
  903THY      O22551   0.302   2.482   8.920  0.2520  0.6447 -0.5343
  903THY     HO22552   0.231   2.506   8.981  1.6753  2.0898  0.6277
  903THY    CA122553   0.241   2.459   8.798  0.0720  0.6079 -0.3244
  903THY    CA222554   0.313   2.451   8.674 -0.6389 -0.0864 -0.4368
  903THY    CP122555   0.455   2.514   8.656  0.4380 -0.1144 -0.0869
  903THY    HP122556   0.456   2.607   8.714 -0.4059 -0.4462  0.4773
  903THY    CP222557   0.569   2.422   8.703 -0.5633  0.2084  0.0340
  903THY    HP222558   0.576   2.342   8.629 -3.0386  1.8448 -2.1708
  903THY    HP322559   0.660   2.482   8.706  0.0395 -0.6944  2.5937
  903THY    HP422560   0.560   2.373   8.801  2.5197 -1.5591 -0.4267
  903THY    CP322561   0.493   2.554   8.514  0.0617  0.1480  0.2620
  903THY    HP522562   0.596   2.591   8.514  0.7419 -1.5323 -1.8767
  903THY    HP622563   0.497   2.467   8.448 -0.1165  1.3456 -1.3934
  903THY    HP722564   0.431   2.630   8.465 -4.1500 -1.4572  2.5782
  903THY    CA322565   0.239   2.406   8.561  0.0225 -0.5315 -0.0345
  903THY    HA322566   0.285   2.401   8.463 -0.0472  0.0988 -0.0981
  903THY    CA422567   0.107   2.376   8.577 -0.8320 -0.5105  0.1555
  903THY    HA422568   0.063   2.337   8.485  1.3546 -0.2344 -1.0828
  903THY    CA522569   0.040   2.385   8.692 -0.5882  0.2561  0.1729
  903THY    CM122570  -0.109   2.352   8.698 -0.4926  0.4213 -0.3638
  903THY    HM122571  -0.146   2.286   8.618 -2.4905 -1.7132  2.1344
  903THY    HM222572  -0.135   2.303   8.793  0.8432  0.2520 -0.0741
  903THY    HM322573  -0.180   2.435   8.693 -1.7398 -0.6092 -0.2878
  903THY    CA622574   0.108   2.423   8.806  0.4945 -0.7899  0.0361
  903THY    HA622575   0.049   2.431   8.898 -0.5252  3.0774 -0.7461
  904THY      O22576   3.046   0.106   3.123  0.1999 -0.7175  0.1507
  904THY     HO22577   3.106   0.108   3.200  1.9740 -0.9402 -1.1512
  904THY    CA122578   2.919   0.120   3.171  0.0720 -0.8470 -0.8808
  904THY    CA222579   2.821   0.175   3.096 -0.1896 -0.1151  0.0373
  904THY    CP122580   2.851   0.203   2.946 -0.1276  0.2219  0.5778
  904THY    HP122581   2.942   0.159   2.903  1.0798  2.0360  1.1627
  904THY    CP222582   2.731   0.156   2.867 -0.8261  0.0393  0.3316
  904THY    HP222583   2.716   0.049   2.884  0.9348 -0.2640  0.2245
  904THY    HP322584   2.652   0.231   2.884  1.0743  2.0104  0.9772
  904THY    HP422585   2.749   0.164   2.759  0.5407 -0.6570  0.4891
  904THY    CP322586   2.881   0.351   2.921  0.0785  0.1763 -0.0102
  904THY    HP522587   2.985   0.368   2.950 -0.7631  2.6282  2.0175
  904THY    HP622588   2.853   0.371   2.817 -0.9300  2.0282  0.5664
  904THY    HP722589   2.814   0.413   2.983 -1.5265 -0.4624 -1.0277
  904THY    CA322590   2.699   0.205   3.158 -0.5304 -0.1061 -0.1597
  904THY    HA322591   2.611   0.240   3.105 -1.1208 -0.9479  0.2327
  904THY    CA422592   2.677   0.180   3.292  0.2002  0.3287  0.0534
  904THY    HA422593   2.579   0.201   3.335  1.5897  1.7565  2.6989
  904THY    CA522594   2.778   0.128   3.371 -0.4571 -0.4632  0.4007
  904THY    CM122595   2.754   0.105   3.517 -0.0268 -0.9122  0.4899
  904THY    HM122596   2.682   0.177   3.558  0.2514  0.0745 -0.6913
  904THY    HM222597   2.705   0.007   3.527 -0.3405 -0.6159  2.1171
  904THY    HM322598   2.845   0.116   3.577 -0.5416  0.9431  0.9850
  904THY    CA622599   2.902   0.102   3.305  0.4127  0.1143  0.9209
  904THY    HA622600   2.985   0.059   3.362 -0.4366 -1.6755  0.8770
  905THY      O22601   7.010   1.733   0.643 -0.7758  0.2279  0.0503
  905THY     HO22602   7.004   1.752   0.738  3.9223  2.6454  0.1671
  905THY    CA122603   7.106   1.833   0.611  0.3328  0.3562 -0.8301
  905THY    CA222604   7.176   1.826   0.490 -0.1430 -0.3977  0.0298
  905THY    CP122605   7.159   1.709   0.395 -0.1516  0.7890 -0.3546
  905THY    HP122606   7.066   1.656   0.418 -0.6019  1.5736 -0.3561
  905THY    CP222607   7.165   1.758   0.245 -0.0986  0.6646  0.2341
  905THY    HP222608   7.123   1.859   0.235 -1.9165  0.3113  3.1280
  905THY    HP322609   7.263   1.750   0.198 -1.2750 -0.9844 -2.1341
  905THY    HP422610   7.093   1.691   0.197  2.0970 -1.3094 -0.4620
  905THY    CP322611   7.278   1.615   0.411 -0.0515  0.0852  0.4586
  905THY    HP522612   7.273   1.530   0.342 -0.1305 -0.7173  1.4298
  905THY    HP622613   7.375   1.664   0.401 -0.0710 -0.2829 -2.1571
  905THY    HP722614   7.289   1.568   0.510 -0.3976  0.0974  0.5062
  905THY    CA322615   7.267   1.930   0.467  0.3885  0.9839  0.0499
  905THY    HA322616   7.330   1.922   0.379  1.4606  2.1319  0.6835
  905THY    CA422617   7.278   2.038   0.559 -0.2764 -0.4380  0.0938
  905THY    HA422618   7.343   2.118   0.523 -0.6467  0.5751  1.5737
  905THY    CA522619   7.205   2.043   0.673 -0.1436 -0.8434 -0.3550
  905THY    CM122620   7.218   2.160   0.778 -0.1932  0.0691 -0.1831
  905THY    HM122621   7.318   2.163   0.823  0.8057  0.4439 -2.2766
  905THY    HM222622   7.208   2.253   0.721  0.1768  0.5529  0.5279
  905THY    HM322623   7.133   2.162   0.847 -0.9303  0.3978 -1.0812
  905THY    CA622624   7.114   1.940   0.702 -0.0856  0.7061 -0.0349
  905THY    HA622625   7.066   1.941   0.799 -0.6400  0.8401 -0.2992
  906THY      O22626   6.694   9.315   3.061  0.4643  0.4631  0.7020
  906THY     HO22627   6.601   9.314   3.034  0.5650  1.6256  0.2478
  906THY    CA122628   6.723   9.212   3.143 -0.4343  0.3615  0.4797
  906THY    CA222629   6.839   9.198   3.221 -0.5769 -1.1565  0.6474
  906THY    CP122630   6.936   9.309   3.228  0.2661 -0.1415  0.1484
  906THY    HP122631   6.924   9.382   3.147  4.8598  0.6299 -0.1271
  906THY    CP222632   6.919   9.378   3.367  0.0004  0.2628 -0.5874
  906THY    HP222633   6.981   9.467   3.382 -3.5645  2.5854  1.6551
  906THY    HP322634   6.814   9.407   3.378  0.0061 -0.2420  0.9640
  906THY    HP422635   6.943   9.307   3.447  2.0890  0.9619 -0.5223
  906THY    CP322636   7.084   9.273   3.207 -0.7727 -0.6026  0.0998
  906THY    HP522637   7.107   9.209   3.293 -1.2550  0.8728  1.3697
  906THY    HP622638   7.113   9.226   3.112 -1.6280 -2.7838  0.8494
  906THY    HP722639   7.149   9.360   3.218 -0.5018 -0.6118 -1.2791
  906THY    CA322640   6.866   9.082   3.295 -0.2530  0.0409  0.2354
  906THY    HA322641   6.952   9.072   3.360  0.4060 -0.7577 -0.7222
  906THY    CA422642   6.774   8.977   3.273 -0.0227  0.1254 -0.3468
  906THY    HA422643   6.796   8.885   3.327 -0.8751  0.3244  0.3538
  906THY    CA522644   6.662   8.983   3.192 -0.6072  0.1499 -0.0812
  906THY    CM122645   6.570   8.866   3.187  0.4270 -0.4769  0.2492
  906THY    HM122646   6.602   8.804   3.102 -0.2880 -0.1912 -0.2464
  906THY    HM222647   6.566   8.811   3.282 -1.3402  2.7065  2.2043
  906THY    HM322648   6.470   8.901   3.158  1.1640  0.7304 -0.9819
  906THY    CA622649   6.633   9.103   3.133 -0.6792  0.3293 -0.1657
  906THY    HA622650   6.540   9.116   3.079 -1.0220 -1.0951  0.0517
  907THY      O22651   3.777   7.028   8.058  0.4576 -0.5802  0.6759
  907THY     HO22652   3.740   6.939   8.048 -2.4354  0.7320 -2.2660
  907THY    CA122653   3.908   7.008   8.077 -0.0221 -0.2697  0.0430
  907THY    CA222654   4.007   7.060   7.992  0.2587 -0.1573 -0.2387
  907THY    CP122655   3.970   7.124   7.861 -0.3064  0.3049  0.1695
  907THY    HP122656   3.863   7.134   7.841 -1.1319 -2.0841  2.7045
  907THY    CP222657   4.040   7.254   7.822  0.1850 -0.1611 -0.4010
  907THY    HP222658   4.046   7.331   7.900  0.6859 -2.2634  1.7404
  907THY    HP322659   4.147   7.237   7.805 -0.1763 -1.9624 -1.1341
  907THY    HP422660   4.002   7.308   7.735  1.5367 -1.2630 -1.7213
  907THY    CP322661   4.016   7.035   7.747 -1.0279  0.6220 -0.4144
  907THY    HP522662   3.947   6.950   7.744  0.9849 -1.1347  0.4767
  907THY    HP622663   4.002   7.081   7.648  2.5319  2.6482 -0.1584
  907THY    HP722664   4.122   7.006   7.751 -1.3330 -0.4869 -0.0644
  907THY    CA322665   4.143   7.045   8.025 -0.2611  0.3892  0.1170
  907THY    HA322666   4.216   7.086   7.955  1.8527 -2.3633  0.5141
  907THY    CA422667   4.173   6.984   8.150  0.7505  0.3832 -0.6912
  907THY    HA422668   4.276   6.976   8.185  0.2456  0.6190  0.9323
  907THY    CA522669   4.074   6.922   8.227  0.3819 -0.0880  0.3332
  907THY    CM122670   4.097   6.846   8.351  0.1833 -0.4255 -0.3158
  907THY    HM122671   4.113   6.744   8.316 -2.1455 -0.1572 -2.4757
  907THY    HM222672   4.183   6.889   8.403 -2.1536  3.1913  1.0071
  907THY    HM322673   4.017   6.848   8.426  2.2998  0.0038  2.0651
  907THY    CA622674   3.938   6.936   8.192 -0.7615  0.3403  0.4813
  907THY    HA622675   3.861   6.898   8.259 -0.0074 -1.6504  0.2771
  908THY      O22676   8.348   6.534   6.588  0.0888  0.0538 -0.4174
  908THY     HO22677   8.271   6.501   6.538  0.4799 -0.5460 -0.6233
  908THY    CA122678   8.439   6.437   6.565 -0.1990  0.0944 -0.7392
  908THY    CA222679   8.497   6.363   6.670  0.4504 -0.0977 -0.4066
  908THY    CP122680   8.459   6.399   6.815  0.7641  0.3236 -0.7427
  908THY    HP122681   8.415   6.498   6.824  0.7446  0.2233  0.4195
  908THY    CP222682   8.344   6.321   6.881  0.4076  0.5484  0.0664
  908THY    HP222683   8.332   6.345   6.987  0.3951  2.5174 -0.3416
  908THY    HP322684   8.249   6.335   6.827 -0.7730 -0.5646  1.7650
  908THY    HP422685   8.370   6.215   6.866 -1.2399  0.1193 -0.0303
  908THY    CP322686   8.586   6.394   6.913  0.4937  0.8301 -0.2144
  908THY    HP522687   8.664   6.449   6.858  0.1484 -0.9735 -2.6825
  908THY    HP622688   8.568   6.438   7.012 -0.6501  0.7565 -0.3718
  908THY    HP722689   8.618   6.291   6.931 -3.1091 -0.1785  1.3857
  908THY    CA322690   8.597   6.272   6.643 -0.4012 -0.4110  0.7603
  908THY    HA322691   8.648   6.221   6.724 -0.5127  0.6559  1.5278
  908THY    CA422692   8.645   6.253   6.507  0.0130 -0.0840  0.2089
  908THY    HA422693   8.731   6.188   6.495 -1.4517 -2.2088  0.6355
  908THY    CA522694   8.597   6.332   6.406 -0.1806  0.0692  0.0090
  908THY    CM122695   8.653   6.317   6.268  0.4434 -0.0734  0.0536
  908THY    HM122696   8.731   6.389   6.241  0.5376 -0.8184 -1.8142
  908THY    HM222697   8.697   6.219   6.245  0.0735 -0.6009  1.4904
  908THY    HM322698   8.560   6.328   6.211 -0.2363  0.2211  1.1958
  908THY    CA622699   8.490   6.417   6.436 -0.4654 -0.1999  0.3329
  908THY    HA622700   8.457   6.487   6.360 -2.2800 -1.0104  0.3060
  909THY      O22701   7.283   4.326   2.798  0.7679 -0.2521  0.2397
  909THY     HO22702   7.318   4.334   2.888 -2.0436  0.3580  1.3697
  909THY    CA122703   7.240   4.460   2.777 -0.5412  0.7331  0.7406
  909THY    CA222704   7.169   4.497   2.661  0.6027 -0.1564  0.7798
  909THY    CP122705   7.122   4.391   2.564 -0.4694 -0.8658  0.5325
  909THY    HP122706   7.172   4.294   2.582 -0.2906 -0.8710  0.0176
  909THY    CP222707   6.972   4.359   2.576 -0.2506 -0.2481  0.3249
  909THY    HP222708   6.959   4.282   2.499 -0.2507 -1.6559  1.6790
  909THY    HP322709   6.962   4.312   2.674  2.8208 -0.5640  0.5941
  909THY    HP422710   6.921   4.453   2.553 -1.8634 -0.9709  0.7922
  909THY    CP322711   7.155   4.433   2.419  0.6099  0.4837 -0.4386
  909THY    HP522712   7.081   4.499   2.371 -1.1605  0.9133  2.5603
  909THY    HP622713   7.250   4.486   2.434  0.7766 -0.6272  3.7193
  909THY    HP722714   7.167   4.341   2.362  2.1620 -2.1742  3.7562
  909THY    CA322715   7.125   4.634   2.639 -0.5142  0.4906  0.4552
  909THY    HA322716   7.053   4.666   2.565  0.4393  0.3907 -0.5429
  909THY    CA422717   7.166   4.727   2.739 -0.3357 -0.3673 -0.7596
  909THY    HA422718   7.121   4.825   2.739 -0.5977 -0.4129  1.9265
  909THY    CA522719   7.241   4.680   2.849 -0.2746  0.7865 -0.4576
  909THY    CM122720   7.270   4.781   2.961  0.3307  0.7902 -0.5209
  909THY    HM122721   7.328   4.727   3.038  0.7921  0.8105 -0.8503
  909THY    HM222722   7.325   4.871   2.932  1.1209  0.6259  0.3817
  909THY    HM322723   7.177   4.815   3.008 -0.9164 -0.1569 -2.2078
  909THY    CA622724   7.281   4.548   2.866  0.1689 -0.8081  0.8003
  909THY    HA622725   7.348   4.524   2.949  3.6114  0.7180 -1.3272
  910THY      O22726   2.196   5.333   6.708 -0.0634  0.3146 -0.2045
  910THY     HO22727   2.106   5.326   6.670  0.8204 -1.2943 -2.2065
  910THY    CA122728   2.238   5.451   6.671 -0.7263 -0.4675  0.0030
  910THY    CA222729   2.368   5.469   6.620 -0.8350 -0.5539 -0.1718
  910THY    CP122730   2.468   5.352   6.615  0.3401 -0.1766 -0.3547
  910THY    HP122731   2.426   5.258   6.654 -1.3551 -0.1775 -2.0263
  910THY    CP222732   2.489   5.312   6.469 -0.5444  0.5693  0.0682
  910THY    HP222733   2.540   5.393   6.414  0.5286  0.2789  0.6103
  910THY    HP322734   2.556   5.226   6.453 -0.6610  0.3115  0.9317
  910THY    HP422735   2.397   5.277   6.421  0.9513  0.8282 -3.3238
  910THY    CP322736   2.597   5.372   6.698  0.3465 -0.0257 -0.0024
  910THY    HP522737   2.674   5.316   6.643 -0.6806 -1.1779 -0.3031
  910THY    HP622738   2.629   5.477   6.710  2.4940 -0.6514  0.2733
  910THY    HP722739   2.588   5.325   6.797  0.8964 -0.7552 -0.2925
  910THY    CA322740   2.407   5.602   6.597 -0.3358  0.3741  0.4799
  910THY    HA322741   2.510   5.618   6.568 -0.1642  1.2534  1.5199
  910THY    CA422742   2.325   5.711   6.604 -0.0304  0.2046 -0.2958
  910THY    HA422743   2.360   5.813   6.594 -0.1752  0.3340  0.4888
  910THY    CA522744   2.188   5.686   6.639 -0.2350 -0.1798 -0.1415
  910THY    CM122745   2.095   5.802   6.654  0.1379 -0.2020 -0.7109
  910THY    HM122746   2.077   5.853   6.559 -0.9401  1.2827  0.2513
  910THY    HM222747   1.998   5.758   6.678  0.8961 -0.9971  1.0881
  910THY    HM322748   2.135   5.878   6.723 -0.1771  0.7163 -1.5251
  910THY    CA622749   2.143   5.554   6.671 -0.8356  0.4227 -0.1112
  910THY    HA622750   2.037   5.535   6.681 -0.3315 -2.1559  0.9558
  911THY      O22751   6.402   0.560   6.673  0.8416  0.0171 -0.5169
  911THY     HO22752   6.332   0.498   6.646  0.3612 -0.5055  1.7200
  911THY    CA122753   6.520   0.489   6.665  0.5328  0.1646  0.0677
  911THY    CA222754   6.640   0.533   6.737  0.0692 -0.1500 -0.1853
  911THY    CP122755   6.627   0.663   6.821 -0.3611 -0.0963 -0.2428
  911THY    HP122756   6.540   0.655   6.887 -1.1441  0.1363 -1.2212
  911THY    CP222757   6.757   0.691   6.897 -0.0850 -0.7578 -0.3329
  911THY    HP222758   6.783   0.606   6.961  1.5802 -0.3854 -0.4693
  911THY    HP322759   6.849   0.692   6.837  0.2795  0.5163  0.2126
  911THY    HP422760   6.754   0.784   6.956  0.5923 -1.2955  0.5837
  911THY    CP322761   6.601   0.793   6.742  0.1828 -0.1681  0.7726
  911THY    HP522762   6.585   0.877   6.812  3.6399  0.1580  1.3468
  911THY    HP622763   6.699   0.811   6.696 -0.0410 -1.0206 -0.0680
  911THY    HP722764   6.527   0.781   6.663 -0.7720  0.9130  1.4706
  911THY    CA322765   6.761   0.458   6.723 -0.1205 -0.2017 -0.8973
  911THY    HA322766   6.856   0.488   6.768 -0.0670 -1.5951 -0.0214
  911THY    CA422767   6.757   0.334   6.651 -0.1155 -0.2337  1.0116
  911THY    HA422768   6.846   0.273   6.641  0.5434  1.0210 -1.3097
  911THY    CA522769   6.641   0.297   6.578 -0.0271 -0.2225 -1.1249
  911THY    CM122770   6.632   0.172   6.494  0.0749  0.4922  0.4718
  911THY    HM122771   6.559   0.186   6.413  0.6448 -3.5465 -1.0158
  911THY    HM222772   6.729   0.139   6.453 -0.2687  1.4040 -1.1710
  911THY    HM322773   6.589   0.085   6.545  0.5782 -0.3208 -0.4349
  911THY    CA622774   6.523   0.378   6.589 -0.4491 -0.0150 -0.2072
  911THY    HA622775   6.436   0.347   6.532  0.7364 -1.8880 -1.0939
  912THY      O22776   5.947   7.489   1.446  0.3007 -0.8388 -0.0763
  912THY     HO22777   5.952   7.394   1.466 -0.6425 -0.8296  0.2907
  912THY    CA122778   5.815   7.510   1.475  0.2495  0.3095  0.5007
  912THY    CA222779   5.751   7.623   1.419 -0.3855 -1.0213  0.1693
  912THY    CP122780   5.834   7.703   1.317 -0.7478  0.7578  0.1918
  912THY    HP122781   5.938   7.707   1.353 -0.3577 -2.9999 -0.0606
  912THY    CP222782   5.838   7.637   1.179  0.1149  0.3806  0.5652
  912THY    HP222783   5.931   7.672   1.133  0.1950 -1.2277 -0.5650
  912THY    HP322784   5.846   7.529   1.191 -2.3996  0.2298  1.4240
  912THY    HP422785   5.747   7.658   1.121  0.3520 -1.1120 -0.3845
  912THY    CP322786   5.791   7.855   1.312  0.1143  0.2457 -1.0228
  912THY    HP522787   5.766   7.889   1.413 -2.4407  1.4811 -1.9772
  912THY    HP622788   5.870   7.909   1.258  0.5199 -1.7939 -2.6183
  912THY    HP722789   5.700   7.869   1.252  0.3246 -1.1648 -1.7279
  912THY    CA322790   5.618   7.645   1.449 -0.3114 -0.3121  0.4404
  912THY    HA322791   5.566   7.730   1.405  2.3990  0.9339 -0.6405
  912THY    CA422792   5.559   7.560   1.548  0.3202  0.2496  0.5226
  912THY    HA422793   5.456   7.585   1.572 -0.7115  1.0214 -3.7925
  912THY    CA522794   5.629   7.462   1.610 -0.6090  0.1515  0.0614
  912THY    CM122795   5.563   7.392   1.724 -0.1051 -0.2435 -0.4494
  912THY    HM122796   5.605   7.292   1.741  3.1495  1.1203  0.3994
  912THY    HM222797   5.583   7.444   1.819  1.3298 -0.2530 -0.7184
  912THY    HM322798   5.455   7.384   1.708 -0.2659 -0.0320  0.4529
  912THY    CA622799   5.761   7.434   1.573  0.0816 -0.1468  0.1399
  912THY    HA622800   5.813   7.354   1.625 -0.6422 -0.6144  0.1691
  913THY      O22801   2.670   0.589   9.164 -0.3050 -0.2519 -0.0558
  913THY     HO22802   2.761   0.555   9.178 -0.4515 -0.9771 -0.7932
  913THY    CA122803   2.595   0.481   9.130  0.0233 -0.8324 -0.6141
  913THY    CA222804   2.461   0.497   9.081 -0.2056  0.0789 -0.0186
  913THY    CP122805   2.417   0.641   9.038 -0.3380  0.4681  0.4073
  913THY    HP122806   2.449   0.712   9.115 -0.9442  0.3630  0.7657
  913THY    CP222807   2.456   0.675   8.897 -0.3030  0.3838  0.7096
  913THY    HP222808   2.560   0.641   8.884 -0.4815 -0.1849  0.7319
  913THY    HP322809   2.392   0.628   8.821 -1.4931  2.2710  0.4971
  913THY    HP422810   2.440   0.782   8.886  0.8936  0.3811 -1.6059
  913THY    CP322811   2.273   0.650   9.046 -0.1227  1.2494 -0.2964
  913THY    HP522812   2.220   0.581   8.980  0.2679  0.2475  0.4164
  913THY    HP622813   2.243   0.624   9.148  0.8179 -0.6729 -0.4689
  913THY    HP722814   2.235   0.752   9.029 -0.1577  1.3637  0.4354
  913THY    CA322815   2.382   0.377   9.059  0.4689  1.0415 -0.0518
  913THY    HA322816   2.278   0.385   9.031  0.6922  1.7572 -0.7342
  913THY    CA422817   2.438   0.255   9.093 -1.0450  0.4809  0.2889
  913THY    HA422818   2.380   0.163   9.096 -1.7382  0.9165  0.9094
  913THY    CA522819   2.574   0.249   9.112 -0.5690  0.4248 -1.0988
  913THY    CM122820   2.634   0.115   9.127 -0.4574  0.3879  0.0904
  913THY    HM122821   2.696   0.083   9.042  1.3335 -0.1814  1.5376
  913THY    HM222822   2.710   0.126   9.205 -0.2339 -2.0015  0.2745
  913THY    HM322823   2.562   0.038   9.157  0.3284 -0.5287 -0.3268
  913THY    CA622824   2.652   0.356   9.139 -0.0810 -0.6751  0.2645
  913THY    HA622825   2.756   0.341   9.167  0.3895 -0.0175 -1.0361
  914THY      O22826   4.088   0.481   9.722 -0.4300 -0.8709  0.0325
  914THY     HO22827   4.158   0.427   9.762  0.4397 -0.6056 -1.0641
  914THY    CA122828   4.151   0.553   9.633 -0.6504 -0.6635 -0.6834
  914THY    CA222829   4.096   0.609   9.516  0.5220 -0.3976 -0.0644
  914THY    CP122830   3.956   0.587   9.486 -0.1259 -0.1984  0.2086
  914THY    HP122831   3.908   0.525   9.563 -1.5127 -0.1289 -0.5631
  914THY    CP222832   3.874   0.718   9.500  0.4844 -0.8849  0.5340
  914THY    HP222833   3.894   0.815   9.454  1.2049 -0.5124  1.6226
  914THY    HP322834   3.769   0.692   9.482  0.3625  1.2919 -2.8883
  914THY    HP422835   3.877   0.741   9.607  0.3084  1.3408  0.0941
  914THY    CP322836   3.923   0.503   9.367  0.1079  0.3476 -0.0694
  914THY    HP522837   3.985   0.413   9.365 -3.2399 -2.1722 -1.0230
  914THY    HP622838   3.816   0.479   9.355 -0.1937  1.8587 -0.7119
  914THY    HP722839   3.944   0.558   9.274  0.2124  0.5056  0.0472
  914THY    CA322840   4.175   0.684   9.428 -0.0919  0.7234  0.4105
  914THY    HA322841   4.134   0.721   9.334  0.0941  0.2311  0.1328
  914THY    CA422842   4.304   0.714   9.468 -0.3802 -0.3526 -0.4151
  914THY    HA422843   4.362   0.767   9.392 -2.0958 -0.6485 -1.9930
  914THY    CA522844   4.357   0.676   9.594 -0.5535 -0.1667  0.3267
  914THY    CM122845   4.495   0.717   9.633  0.2398  0.3692  0.5097
  914THY    HM122846   4.568   0.703   9.553  3.1612 -0.1140  3.0493
  914THY    HM222847   4.493   0.824   9.655  0.7730  0.0632  2.2233
  914THY    HM322848   4.515   0.655   9.722 -2.4846 -1.9445 -0.3217
  914THY    CA622849   4.276   0.597   9.676 -0.2972 -0.4240  0.5274
  914THY    HA622850   4.320   0.560   9.768  1.7387  0.7515  0.0868
  915THY      O22851   7.976   9.317   4.238 -0.1126  0.3066  0.0288
  915THY     HO22852   7.964   9.231   4.281 -2.9099  0.8420  0.5493
  915THY    CA122853   7.962   9.408   4.333 -0.0813  0.3268  0.0719
  915THY    CA222854   8.013   9.535   4.322  0.3441 -0.3527 -0.4068
  915THY    CP122855   8.097   9.573   4.196 -0.2284 -0.0916 -0.8186
  915THY    HP122856   8.141   9.481   4.155 -0.2854 -0.0041 -1.0790
  915THY    CP222857   8.005   9.629   4.089  0.4072  0.3938  0.4021
  915THY    HP222858   8.051   9.661   3.995 -2.6635  2.9127 -0.3924
  915THY    HP322859   7.946   9.545   4.052  1.9994 -0.2265 -0.8706
  915THY    HP422860   7.935   9.706   4.123 -0.6338  0.4560 -1.6958
  915THY    CP322861   8.210   9.674   4.217 -0.0673  0.5902  0.4859
  915THY    HP522862   8.257   9.689   4.119  1.0850 -0.3303  0.8689
  915THY    HP622863   8.165   9.772   4.237 -1.9221  0.2661 -1.8163
  915THY    HP722864   8.292   9.639   4.282 -0.2186 -0.4581  0.1359
  915THY    CA322865   7.992   9.632   4.422 -0.8237 -0.0881 -0.3830
  915THY    HA322866   8.027   9.734   4.413 -0.3242 -0.0517  1.5551
  915THY    CA422867   7.933   9.585   4.544 -0.2695  0.5915 -0.2798
  915THY    HA422868   7.921   9.654   4.627  1.5853  1.3881 -0.6320
  915THY    CA522869   7.877   9.458   4.561  0.8538  0.0793 -0.3941
  915THY    CM122870   7.801   9.438   4.686 -0.1755 -0.3588 -0.1155
  915THY    HM122871   7.859   9.470   4.773 -1.5767  0.4382  0.5556
  915THY    HM222872   7.714   9.504   4.678  0.5930  0.6345 -0.5529
  915THY    HM322873   7.768   9.333   4.692 -1.7956  0.1667  0.6271
  915THY    CA622874   7.891   9.371   4.452  0.2655  0.8261  0.2776
  915THY    HA622875   7.843   9.273   4.450  0.3459  0.7284 -2.7555
  916THY      O22876   2.199   6.661   9.465 -0.5926  0.2830  0.0783
  916THY     HO22877   2.135   6.625   9.401 -2.4273 -0.5674  2.2288
  916THY    CA122878   2.326   6.645   9.412  0.0232  0.4862 -0.1968
  916THY    CA222879   2.445   6.641   9.498  0.5440  0.0384  0.7763
  916THY    CP122880   2.439   6.676   9.646  0.0602 -0.6318 -0.0089
  916THY    HP122881   2.352   6.742   9.660 -0.5228 -0.9375 -1.8850
  916THY    CP222882   2.431   6.557   9.740  0.6848 -0.8152  0.8986
  916THY    HP222883   2.523   6.500   9.724  1.0429 -0.1537  0.5813
  916THY    HP322884   2.418   6.587   9.845 -0.6074 -1.1959  0.8653
  916THY    HP422885   2.349   6.494   9.705  2.8072 -2.5440 -1.2990
  916THY    CP322886   2.542   6.769   9.694  0.0278  0.0398 -0.5800
  916THY    HP522887   2.637   6.715   9.706  0.4215  0.5117 -1.4476
  916THY    HP622888   2.562   6.850   9.623  2.1903 -0.6808 -0.8721
  916THY    HP722889   2.516   6.818   9.789 -0.0348 -0.2038 -0.4708
  916THY    CA322890   2.568   6.604   9.435  0.6560 -0.3532 -0.0683
  916THY    HA322891   2.662   6.582   9.485  2.0379  0.8027 -2.0327
  916THY    CA422892   2.567   6.601   9.292 -0.2074  0.8735 -0.6770
  916THY    HA422893   2.657   6.570   9.240 -0.2592 -2.4371  0.9403
  916THY    CA522894   2.451   6.605   9.211  0.4045  1.1086  0.2524
  916THY    CM122895   2.465   6.616   9.060 -0.3109  0.1398 -0.1628
  916THY    HM122896   2.366   6.597   9.016 -1.2008  2.2966  0.7870
  916THY    HM222897   2.501   6.714   9.025  3.7365 -1.7262 -1.8944
  916THY    HM322898   2.536   6.549   9.009  1.0444 -0.2006  2.0172
  916THY    CA622899   2.329   6.627   9.273  0.1637 -0.2506 -0.2884
  916THY    HA622900   2.244   6.648   9.208 -0.7729  1.1648  1.2965
  917THY      O22901   9.078   4.356   0.560  0.0294 -0.4755 -0.7657
  917THY     HO22902   9.121   4.443   0.566 -1.7169  0.3360  1.1292
  917THY    CA122903   9.169   4.261   0.576  0.3432 -0.3942 -0.3402
  917THY    CA222904   9.135   4.123   0.562 -0.9285 -0.1449 -0.1647
  917THY    CP122905   8.990   4.077   0.554  0.6809  0.2725  0.3460
  917THY    HP122906   8.924   4.159   0.523 -1.4285 -1.3938  0.1360
  917THY    CP222907   8.975   3.981   0.435  0.1701 -0.4442  0.1147
  917THY    HP222908   9.003   4.023   0.337  0.8498  0.2909  0.6153
  917THY    HP322909   9.045   3.897   0.442 -0.6389 -0.9510  2.9510
  917THY    HP422910   8.881   3.925   0.440  1.0158 -1.7738  2.0097
  917THY    CP322911   8.942   4.014   0.686  0.1688 -0.4714  0.6447
  917THY    HP522912   8.836   4.035   0.700  0.0129 -1.4281  0.9859
  917THY    HP622913   8.953   3.905   0.689  1.7124 -0.5181 -2.4387
  917THY    HP722914   8.989   4.059   0.774  0.2978  1.3579 -0.3109
  917THY    CA322915   9.242   4.033   0.556 -0.6745 -0.5051  0.1762
  917THY    HA322916   9.229   3.925   0.548  1.2524 -0.9459  1.9315
  917THY    CA422917   9.374   4.080   0.562  0.9918  0.0784  0.4810
  917THY    HA422918   9.463   4.017   0.562  1.8601  1.2257 -1.2088
  917THY    CA522919   9.406   4.215   0.578 -0.0178  0.4230  0.5237
  917THY    CM122920   9.552   4.264   0.582  0.7544 -0.6776 -0.1625
  917THY    HM122921   9.547   4.370   0.554 -0.2235 -1.0347 -1.4604
  917THY    HM222922   9.607   4.232   0.672  0.0849 -3.9213 -0.7804
  917THY    HM322923   9.615   4.213   0.508  0.9006 -1.8988  0.7668
  917THY    CA622924   9.302   4.307   0.581  0.2044 -0.0857  0.5648
  917THY    HA622925   9.323   4.413   0.589 -0.0109  0.1595 -1.4982
  918THY      O22926   3.295   3.897   6.842 -0.4624 -0.0634  0.3653
  918THY     HO22927   3.211   3.866   6.803  1.0440 -1.3375 -2.1085
  918THY    CA122928   3.254   3.920   6.969  0.4196 -0.3653 -0.0040
  918THY    CA222929   3.347   3.944   7.074  0.2906 -0.2390  0.0652
  918THY    CP122930   3.488   3.928   7.054 -0.4707 -0.5374 -1.1596
  918THY    HP122931   3.513   3.865   6.968 -1.1381 -0.7992 -1.1656
  918THY    CP222932   3.553   4.070   7.059 -0.3201 -0.0808 -1.0619
  918THY    HP222933   3.544   4.133   7.148  0.8193  1.0766 -1.7484
  918THY    HP322934   3.659   4.050   7.037 -0.6018 -1.3105 -1.3997
  918THY    HP422935   3.519   4.131   6.976  1.3944 -0.8479 -2.3888
  918THY    CP322936   3.547   3.838   7.165  0.3803 -0.1334 -0.0822
  918THY    HP522937   3.655   3.825   7.154  0.6762 -0.5668  2.5272
  918THY    HP622938   3.524   3.884   7.262 -3.6625  1.2948 -1.5025
  918THY    HP722939   3.511   3.734   7.160  0.1848 -0.0372 -0.7279
  918THY    CA322940   3.279   4.000   7.192  0.6190 -0.4433  0.7828
  918THY    HA322941   3.331   4.038   7.279  0.5241  0.2957  0.5245
  918THY    CA422942   3.144   4.031   7.192 -0.3448 -0.4013  0.3876
  918THY    HA422943   3.104   4.093   7.271 -2.4477 -0.4814 -0.5479
  918THY    CA522944   3.063   4.014   7.083 -0.1937  0.2400 -0.1255
  918THY    CM122945   2.928   4.072   7.082  0.1328 -0.1295  0.0981
  918THY    HM122946   2.938   4.178   7.055 -0.5306  0.8661  3.3626
  918THY    HM222947   2.861   4.023   7.011  0.8421 -1.2176  0.1675
  918THY    HM322948   2.876   4.068   7.178 -0.1808 -0.0701 -0.0657
  918THY    CA622949   3.117   3.961   6.969 -0.0768  0.4066  0.4675
  918THY    HA622950   3.054   3.946   6.881  0.0047 -0.1280  0.5015
  919THY      O22951   5.480   7.543   3.881  0.1347 -0.1360  0.2458
  919THY     HO22952   5.405   7.531   3.820  1.9298 -5.4258 -1.4423
  919THY    CA122953   5.445   7.647   3.956  0.1655  0.7575 -0.6629
  919THY    CA222954   5.532   7.754   3.981 -0.4019 -0.1025  0.3439
  919THY    CP122955   5.676   7.761   3.928  0.2923 -0.0974  0.1107
  919THY    HP122956   5.694   7.669   3.872 -2.6522  0.6208 -2.2840
  919THY    CP222957   5.693   7.884   3.835  0.6102  0.0553  0.0159
  919THY    HP222958   5.672   7.978   3.889 -1.0596 -1.1521  1.6180
  919THY    HP322959   5.784   7.906   3.780  0.6331 -0.8857 -0.3350
  919THY    HP422960   5.617   7.883   3.756  0.9366 -0.6312 -0.2909
  919THY    CP322961   5.780   7.762   4.036 -0.1554  0.3902  0.0043
  919THY    HP522962   5.881   7.785   4.001 -0.1894  3.0207  1.4065
  919THY    HP622963   5.751   7.836   4.111  2.9375 -0.0705  1.8405
  919THY    HP722964   5.776   7.668   4.093 -2.4555 -0.4353 -1.3661
  919THY    CA322965   5.482   7.859   4.070 -0.1660 -0.1051  0.3278
  919THY    HA322966   5.544   7.940   4.106 -0.9763  0.2057  1.0646
  919THY    CA422967   5.357   7.843   4.129 -0.3600 -0.0358  0.0511
  919THY    HA422968   5.320   7.924   4.191  0.0675  0.9799 -0.9884
  919THY    CA522969   5.271   7.731   4.110 -0.0368  0.5554 -0.0629
  919THY    CM122970   5.147   7.712   4.189  0.0814 -0.0334 -0.3267
  919THY    HM122971   5.101   7.808   4.214 -0.6176  0.1212 -2.0816
  919THY    HM222972   5.072   7.657   4.130 -0.2838  2.1950 -2.0717
  919THY    HM322973   5.167   7.662   4.285 -1.0548  0.6223  0.2660
  919THY    CA622974   5.315   7.633   4.018 -0.1809 -0.5311  0.1002
  919THY    HA622975   5.241   7.556   4.000 -2.2706  0.6532  2.8913
  920THY      O22976   9.644   8.794   7.413  0.1130  0.2154 -0.9830
  920THY     HO22977   9.683   8.867   7.463  0.3431  0.1698 -1.0940
  920THY    CA122978   9.653   8.678   7.483 -0.2142 -0.0801 -0.1460
  920THY    CA222979   9.570   8.567   7.461  0.1197  0.7028 -0.2598
  920THY    CP122980   9.463   8.572   7.349 -0.7071 -0.4498 -0.2750
  920THY    HP122981   9.464   8.666   7.294 -1.4774 -0.1418  0.2229
  920THY    CP222982   9.494   8.470   7.239 -0.0476 -0.3267 -0.3629
  920THY    HP222983   9.525   8.382   7.296 -1.8849 -1.6533 -1.2881
  920THY    HP322984   9.397   8.461   7.188  0.6887  0.6046 -1.9829
  920THY    HP422985   9.559   8.505   7.158 -1.3769  1.7952 -0.5839
  920THY    CP322986   9.318   8.573   7.403 -0.0561  0.2804  0.1571
  920THY    HP522987   9.288   8.468   7.414 -1.8210  0.7060 -0.4083
  920THY    HP622988   9.292   8.605   7.505  1.7628 -0.2230  0.8153
  920THY    HP722989   9.253   8.640   7.345  3.1124  4.1719  0.6698
  920THY    CA322990   9.590   8.444   7.538  0.0230 -0.3249 -0.1128
  920THY    HA322991   9.531   8.354   7.527 -0.6764  0.1433 -0.2691
  920THY    CA422992   9.690   8.444   7.634 -0.4863 -0.5538  0.5147
  920THY    HA422993   9.698   8.360   7.702 -4.4589 -1.4371  0.1481
  920THY    CA522994   9.780   8.554   7.653  0.4507 -0.0656 -0.0709
  920THY    CM122995   9.892   8.542   7.748  0.2195  1.5688 -0.1117
  920THY    HM122996   9.982   8.502   7.700 -0.5240 -1.5670  0.8015
  920THY    HM222997   9.914   8.639   7.793 -0.7396  2.2263 -1.0307
  920THY    HM322998   9.875   8.473   7.832 -0.3361  0.9300 -0.7369
  920THY    CA622999   9.760   8.665   7.570 -0.4963 -0.0380 -0.4722
  920THY    HA623000   9.821   8.750   7.600 -1.6616  0.5705  0.2881
  921THY      O23001   8.018   9.217   3.802  0.5414 -0.0768 -0.8045
  921THY     HO23002   7.956   9.237   3.874 -0.5436 -0.5384 -1.5809
  921THY    CA123003   8.020   9.311   3.708 -0.3692 -0.1424  1.2140
  921THY    CA223004   8.115   9.308   3.604 -0.1834 -0.2108  0.4227
  921THY    CP123005   8.192   9.184   3.584  0.6553  0.0879 -1.0072
  921THY    HP123006   8.217   9.142   3.682  1.3562  1.9482 -0.3326
  921THY    CP223007   8.110   9.083   3.504 -1.0084  0.3279  0.4458
  921THY    HP223008   8.092   9.119   3.402 -4.0291 -1.5599  0.1722
  921THY    HP323009   8.168   8.991   3.517 -0.4102  0.9551  2.5055
  921THY    HP423010   8.008   9.075   3.545 -0.3426 -0.4678  2.0495
  921THY    CP323011   8.330   9.210   3.522 -0.7444 -0.0061 -0.4732
  921THY    HP523012   8.332   9.241   3.418  0.9441 -2.6171 -1.3261
  921THY    HP623013   8.377   9.282   3.591 -1.0143  0.1140 -0.4104
  921THY    HP723014   8.390   9.119   3.509  2.4911  1.3315  3.0077
  921THY    CA323015   8.140   9.427   3.528  0.2870 -0.3953 -0.3288
  921THY    HA323016   8.227   9.430   3.464 -0.4386  1.1956 -1.2929
  921THY    CA423017   8.054   9.536   3.553 -0.5345  0.7388  0.7755
  921THY    HA423018   8.072   9.630   3.503  1.1813 -0.0399 -0.1713
  921THY    CA523019   7.969   9.536   3.655  0.1474 -0.6002 -0.6626
  921THY    CM123020   7.902   9.667   3.679 -0.4351 -0.3543  0.0517
  921THY    HM123021   7.794   9.647   3.681 -0.4975 -0.3165 -1.6544
  921THY    HM223022   7.919   9.723   3.772  1.2773  1.0993 -1.0630
  921THY    HM323023   7.918   9.745   3.603  0.8287 -0.7833 -0.1429
  921THY    CA623024   7.945   9.427   3.734 -0.0651  0.2090  0.6865
  921THY    HA623025   7.873   9.426   3.815  0.0628  0.3258  0.8013
  922THY      O23026   5.826   0.814   4.872 -0.4457 -0.3202 -0.3313
  922THY     HO23027   5.898   0.760   4.908  2.1139  2.5620 -0.6983
  922THY    CA123028   5.781   0.752   4.762  0.6711 -0.7269 -0.2900
  922THY    CA223029   5.728   0.824   4.649  0.1303  0.9425  0.2922
  922THY    CP123030   5.705   0.978   4.654 -0.9056  0.6792  0.0202
  922THY    HP123031   5.707   1.009   4.759 -2.9651 -0.4353  0.4414
  922THY    CP223032   5.815   1.052   4.576 -0.0566 -0.0757  0.1702
  922THY    HP223033   5.819   1.022   4.471 -0.7830 -0.3564  0.2223
  922THY    HP323034   5.799   1.160   4.578  0.8693  0.0740 -0.2428
  922THY    HP423035   5.914   1.022   4.615  0.7071  1.7088 -0.3017
  922THY    CP323036   5.571   1.005   4.591  0.0806  0.3795 -0.3638
  922THY    HP523037   5.539   1.107   4.615 -1.7682 -0.2279 -0.0288
  922THY    HP623038   5.566   0.997   4.482 -0.8568 -1.0259 -0.2483
  922THY    HP723039   5.498   0.935   4.633  0.1463 -1.0105 -2.4361
  922THY    CA323040   5.700   0.752   4.529  0.6543 -0.3876  0.3041
  922THY    HA323041   5.665   0.805   4.441  1.4101 -0.8691 -0.2980
  922THY    CA423042   5.709   0.615   4.531  0.2254 -0.2456 -0.8885
  922THY    HA423043   5.674   0.557   4.446 -0.0912 -2.0859  0.4260
  922THY    CA523044   5.763   0.548   4.641 -0.5514  0.5638 -0.3356
  922THY    CM123045   5.780   0.396   4.632  0.6467  0.8628  0.1267
  922THY    HM123046   5.685   0.346   4.651  0.0605  2.6004  2.1727
  922THY    HM223047   5.814   0.372   4.530 -2.3917  3.0938 -1.5882
  922THY    HM323048   5.851   0.354   4.704  1.0124  2.6207  0.8465
  922THY    CA623049   5.803   0.618   4.754 -0.3680 -0.4773  0.0175
  922THY    HA623050   5.843   0.560   4.837 -4.1003 -0.5209  2.0364
  923THY      O23051   0.479   1.921   6.608 -0.5485  0.2001  0.6939
  923THY     HO23052   0.459   1.938   6.702  0.1250 -0.6064  0.9916
  923THY    CA123053   0.381   1.840   6.559 -0.1320  0.3834  0.0847
  923THY    CA223054   0.384   1.780   6.432 -0.3436 -0.5694 -0.1441
  923THY    CP123055   0.520   1.798   6.355 -0.4583  0.4301 -0.0831
  923THY    HP123056   0.603   1.792   6.426  0.3196  0.8640 -0.9382
  923THY    CP223057   0.534   1.681   6.254  0.2973  0.1663  0.1984
  923THY    HP223058   0.635   1.676   6.212 -0.3321 -1.8795 -1.2148
  923THY    HP323059   0.523   1.588   6.310  1.4514 -0.4223 -0.5081
  923THY    HP423060   0.461   1.685   6.172  1.5887 -0.8038 -1.0685
  923THY    CP323061   0.518   1.938   6.296 -0.3485  0.1662  0.2295
  923THY    HP523062   0.424   1.942   6.240 -1.3807  3.4871  1.9516
  923THY    HP623063   0.518   2.014   6.375 -1.3753  0.0019  0.3912
  923THY    HP723064   0.600   1.954   6.225 -1.0224 -1.5660 -1.0263
  923THY    CA323065   0.286   1.689   6.394  0.3500  0.1829  0.7327
  923THY    HA323066   0.278   1.638   6.299 -2.7017  3.5348 -1.0849
  923THY    CA423067   0.169   1.675   6.476  0.2356  0.5960 -0.3839
  923THY    HA423068   0.095   1.603   6.443  2.2283 -1.2181 -1.1724
  923THY    CA523069   0.166   1.742   6.596 -0.4448 -0.4576 -0.0781
  923THY    CM123070   0.046   1.717   6.684 -0.2872  0.1850  0.1885
  923THY    HM123071   0.068   1.661   6.776  0.9386 -1.8953 -1.3098
  923THY    HM223072  -0.001   1.815   6.702 -0.3948  0.3899 -1.1226
  923THY    HM323073  -0.025   1.657   6.627 -0.9224 -1.3905  2.5140
  923THY    CA623074   0.270   1.823   6.639 -0.5016  0.1334  0.0879
  923THY    HA623075   0.245   1.884   6.726  0.7256  1.2066 -0.2858
  924THY      O23076   0.869   8.621   1.689  0.0411 -0.0374  0.5417
  924THY     HO23077   0.812   8.699   1.679 -0.7728 -0.6879  0.0148
  924THY    CA123078   0.846   8.533   1.591  0.3396 -0.0079 -0.2389
  924THY    CA223079   0.929   8.426   1.576  0.0362 -0.1269 -0.0366
  924THY    CP123080   1.040   8.402   1.674 -0.5122 -0.6652 -0.5361
  924THY    HP123081   1.067   8.488   1.736  0.8000 -1.9890  0.8126
  924THY    CP223082   1.005   8.286   1.762 -0.6757  0.7118 -0.0032
  924THY    HP223083   0.951   8.320   1.851  2.7073  0.0858  2.5014
  924THY    HP323084   0.960   8.204   1.705  1.5990  0.7052 -1.9429
  924THY    HP423085   1.097   8.251   1.811 -2.1458  1.6601  3.7690
  924THY    CP323086   1.176   8.381   1.601  0.1483 -0.2862  0.8614
  924THY    HP523087   1.254   8.364   1.676  3.7290 -1.7119 -2.7911
  924THY    HP623088   1.171   8.302   1.525 -2.3226  1.3039 -0.7723
  924THY    HP723089   1.211   8.475   1.555  0.6910 -0.6114  0.5944
  924THY    CA323090   0.905   8.336   1.474 -0.2219 -0.6387 -0.4909
  924THY    HA323091   0.968   8.253   1.446 -2.0377 -1.3929 -2.6703
  924THY    CA423092   0.803   8.362   1.377 -0.1735  0.2128 -0.7586
  924THY    HA423093   0.800   8.297   1.290 -0.4437 -0.0853 -0.5282
  924THY    CA523094   0.720   8.471   1.393 -0.7071 -0.8682  0.5314
  924THY    CM123095   0.624   8.505   1.280 -0.0175 -0.3139  0.0218
  924THY    HM123096   0.540   8.436   1.280 -2.0766  2.0332  1.1066
  924THY    HM223097   0.598   8.610   1.299 -0.9402 -0.4832 -0.2542
  924THY    HM323098   0.683   8.500   1.187  0.4954 -1.6101  0.3931
  924THY    CA623099   0.735   8.554   1.507 -0.3707  0.1422 -0.4564
  924THY    HA623100   0.691   8.653   1.514  0.9913  0.8396 -1.3769
  925THY      O23101   8.619   5.901   1.636 -0.0982  0.1179 -0.1472
  925THY     HO23102   8.714   5.894   1.616  0.5924  2.5385  1.7588
  925THY    CA123103   8.570   5.774   1.655  0.1822 -0.5707 -0.8250
  925THY    CA223104   8.504   5.729   1.770 -0.2021  0.3030 -0.9944
  925THY    CP123105   8.492   5.824   1.892 -0.0765 -0.1564 -0.3686
  925THY    HP123106   8.502   5.930   1.867  0.6498 -0.0719  0.2285
  925THY    CP223107   8.360   5.810   1.975  0.2300 -0.0034  0.2288
  925THY    HP223108   8.353   5.886   2.054 -0.1823 -0.0125  0.2023
  925THY    HP323109   8.277   5.834   1.907  0.3932  5.1559  1.3848
  925THY    HP423110   8.349   5.718   2.034 -1.3887  1.0739  1.7362
  925THY    CP323111   8.601   5.795   1.986  0.0874  0.3953  0.0572
  925THY    HP523112   8.601   5.859   2.075 -0.7303 -0.7991  0.9438
  925THY    HP623113   8.602   5.690   2.017 -3.8679  0.2047  0.1432
  925THY    HP723114   8.691   5.814   1.927  0.9322 -0.9623  0.8619
  925THY    CA323115   8.472   5.588   1.786  0.2951  0.0113  0.5377
  925THY    HA323116   8.416   5.550   1.871 -1.4058 -1.2514 -1.0588
  925THY    CA423117   8.505   5.499   1.674  0.2918  0.5515 -0.1926
  925THY    HA423118   8.488   5.392   1.680  0.2371  0.5801  0.1358
  925THY    CA523119   8.564   5.551   1.561 -0.1530 -0.1172 -0.5262
  925THY    CM123120   8.587   5.456   1.442 -0.1464  0.3844  0.0446
  925THY    HM123121   8.498   5.449   1.379  0.0838  2.1291 -0.5390
  925THY    HM223122   8.667   5.494   1.376  1.5626  1.2167  2.4416
  925THY    HM323123   8.607   5.355   1.480 -0.7326  0.6117  0.9997
  925THY    CA623124   8.601   5.686   1.553  0.1696 -0.9975  0.3641
  925THY    HA623125   8.660   5.713   1.466  0.4342 -0.1397  0.8018
  926THY      O23126   8.486   1.113   2.053  0.4212 -0.0108  0.3122
  926THY     HO23127   8.512   1.207   2.055  1.4296 -0.2857  1.3248
  926THY    CA123128   8.522   1.077   2.184 -0.0814  0.0130 -0.4430
  926THY    CA223129   8.579   0.947   2.219  0.5020  0.2977  0.2764
  926THY    CP123130   8.595   0.844   2.110  0.2076 -0.3199  0.2989
  926THY    HP123131   8.558   0.894   2.020  1.5243  1.9308  0.9436
  926THY    CP223132   8.748   0.826   2.091 -0.3687  0.3601  0.3404
  926THY    HP223133   8.781   0.745   2.026 -0.5583  1.4185 -1.1263
  926THY    HP323134   8.802   0.916   2.058  0.8404  0.5389  2.5512
  926THY    HP423135   8.798   0.799   2.185 -1.5392 -0.0130  0.8668
  926THY    CP323136   8.526   0.711   2.139  0.3912 -0.7254  0.4713
  926THY    HP523137   8.535   0.671   2.241  2.0030 -3.3301 -0.6057
  926THY    HP623138   8.418   0.724   2.126  0.3797  1.4990  2.1920
  926THY    HP723139   8.553   0.635   2.065 -0.4091 -1.2090  0.6636
  926THY    CA323140   8.601   0.913   2.358 -0.4410 -0.4175  0.8696
  926THY    HA323141   8.644   0.818   2.388 -1.4155 -1.1251  0.0592
  926THY    CA423142   8.565   1.015   2.451 -0.0399  1.1846  0.1438
  926THY    HA423143   8.585   0.989   2.555  0.0735  1.4009  0.1769
  926THY    CA523144   8.527   1.145   2.419  0.3609 -0.2605 -0.5960
  926THY    CM123145   8.496   1.244   2.518  0.8662  0.0142  0.5740
  926THY    HM123146   8.389   1.265   2.510  0.7361 -0.1175  1.7747
  926THY    HM223147   8.517   1.209   2.620 -2.0683 -0.7458  1.0133
  926THY    HM323148   8.558   1.334   2.507  0.1563  0.4401 -0.0954
  926THY    CA623149   8.502   1.178   2.284  0.7199  0.2983 -0.7044
  926THY    HA623150   8.460   1.275   2.259 -1.1606  0.0581  1.1847
  927THY      O23151   3.457   6.957   8.275 -0.3572 -0.1471 -0.2097
  927THY     HO23152   3.476   7.047   8.245  3.8658 -1.1676 -1.2797
  927THY    CA123153   3.433   6.952   8.405 -0.0667 -0.5312  0.4428
  927THY    CA223154   3.408   6.829   8.467 -0.2198  0.1716 -0.2046
  927THY    CP123155   3.412   6.693   8.389 -0.6258 -0.5281  0.1819
  927THY    HP123156   3.386   6.713   8.284 -1.3944 -1.2692  0.2197
  927THY    CP223157   3.540   6.617   8.392  0.3133 -0.1987  1.3606
  927THY    HP223158   3.619   6.689   8.370 -0.0436 -0.4218 -0.8422
  927THY    HP323159   3.562   6.565   8.486  2.6715 -2.2924 -0.1972
  927THY    HP423160   3.556   6.544   8.312  2.7238  1.2441  0.4166
  927THY    CP323161   3.303   6.602   8.438 -0.3317  0.7170  0.3368
  927THY    HP523162   3.268   6.536   8.357 -1.6449 -0.3998  1.7743
  927THY    HP623163   3.331   6.552   8.531 -3.2686 -0.3715  0.7351
  927THY    HP723164   3.218   6.665   8.466 -1.4937 -0.5403 -0.2437
  927THY    CA323165   3.371   6.837   8.605  0.3414  0.3147  0.7738
  927THY    HA323166   3.350   6.744   8.656 -1.6337  1.2753  1.8362
  927THY    CA423167   3.368   6.962   8.671  0.4426  0.7467 -0.1348
  927THY    HA423168   3.343   6.953   8.776 -1.6500 -1.2088 -0.7331
  927THY    CA523169   3.381   7.083   8.600  0.3679  0.2360  0.2821
  927THY    CM123170   3.367   7.205   8.676 -0.0571 -0.3443  0.8711
  927THY    HM123171   3.375   7.190   8.784  0.9991 -1.4001  0.6626
  927THY    HM223172   3.442   7.276   8.639 -0.5042  0.0494  0.7050
  927THY    HM323173   3.267   7.249   8.663  0.5024  1.0255  1.1119
  927THY    CA623174   3.413   7.076   8.468 -0.7539  0.0928  0.3910
  927THY    HA623175   3.427   7.171   8.417 -1.5361 -0.4444 -0.8813
  928THY      O23176   8.341   2.565   8.294 -0.0246 -0.2916 -0.0886
  928THY     HO23177   8.413   2.625   8.269  0.8438 -0.7282  1.2170
  928THY    CA123178   8.404   2.454   8.276 -0.1148  0.1008 -0.3618
  928THY    CA223179   8.381   2.337   8.356 -0.4835  0.6523 -0.6113
  928THY    CP123180   8.292   2.344   8.477  0.2271  0.1719 -0.2377
  928THY    HP123181   8.233   2.436   8.467  0.3278  0.1784 -0.8452
  928THY    CP223182   8.185   2.232   8.479 -0.8144  0.0545  0.4602
  928THY    HP223183   8.140   2.234   8.379  2.1278  1.1456 -0.9924
  928THY    HP323184   8.224   2.130   8.489  0.6474  0.4791 -0.4533
  928THY    HP423185   8.114   2.266   8.555  0.5544  0.3073  1.6831
  928THY    CP323186   8.365   2.350   8.603  0.0540 -0.7084  0.7108
  928THY    HP523187   8.440   2.270   8.604  1.4972  0.4005 -2.6971
  928THY    HP623188   8.419   2.445   8.615 -3.0154  1.3127 -0.4391
  928THY    HP723189   8.288   2.351   8.681 -2.0140  1.4617 -1.1869
  928THY    CA323190   8.437   2.217   8.314  0.2189  0.3008 -0.6907
  928THY    HA323191   8.428   2.128   8.376  0.6812 -0.7260 -2.0470
  928THY    CA423192   8.517   2.212   8.200 -0.1931  0.1230  0.1074
  928THY    HA423193   8.579   2.127   8.173  0.9845  0.0610  2.6844
  928THY    CA523194   8.531   2.324   8.124  0.2199 -0.1985 -0.5828
  928THY    CM123195   8.601   2.312   7.990 -0.3772  0.3163  0.3994
  928THY    HM123196   8.631   2.210   7.965 -0.4996  0.1778  0.7975
  928THY    HM223197   8.523   2.345   7.920  1.5985  1.8412 -1.1814
  928THY    HM323198   8.685   2.381   7.984  0.2652 -0.2997  1.7244
  928THY    CA623199   8.478   2.443   8.161  0.4029  0.3827 -0.7534
  928THY    HA623200   8.480   2.530   8.097 -3.0918 -0.5745 -2.4201
  929THY      O23201   2.538   9.013   5.374 -0.3746 -0.6098  0.6801
  929THY     HO23202   2.549   9.069   5.453  0.7162  0.8696 -0.4526
  929THY    CA123203   2.638   8.926   5.381 -0.1366  0.2300  0.2695
  929THY    CA223204   2.701   8.871   5.265  0.5002  0.6052 -0.1870
  929THY    CP123205   2.648   8.895   5.124  0.4331  0.4989 -0.2839
  929THY    HP123206   2.542   8.921   5.132  0.1893 -0.1889 -1.0645
  929THY    CP223207   2.728   9.006   5.052 -0.3410 -0.1294 -0.6535
  929THY    HP223208   2.724   9.000   4.943  0.5626 -1.9089 -0.6190
  929THY    HP323209   2.706   9.105   5.095  1.7720 -0.8877  2.5467
  929THY    HP423210   2.832   8.981   5.075 -0.6066  0.2305  1.0939
  929THY    CP323211   2.656   8.774   5.032  0.6176  0.0943 -0.2811
  929THY    HP523212   2.760   8.743   5.016  1.2282  1.6228  0.5615
  929THY    HP623213   2.601   8.690   5.076  1.1695 -0.4924 -0.6967
  929THY    HP723214   2.602   8.793   4.939  1.5109 -0.6773 -0.9806
  929THY    CA323215   2.818   8.791   5.278 -0.5073 -0.9294 -0.4789
  929THY    HA323216   2.881   8.780   5.190  2.7532  2.5731  1.0947
  929THY    CA423217   2.867   8.772   5.415  0.1077  0.7277  1.2051
  929THY    HA423218   2.966   8.727   5.420 -1.3240 -2.6809  1.8800
  929THY    CA523219   2.794   8.810   5.522  0.0868 -0.1093  0.3082
  929THY    CM123220   2.844   8.780   5.661  0.2238  0.4643 -0.0295
  929THY    HM123221   2.865   8.874   5.713 -3.9923  1.9255 -0.6218
  929THY    HM223222   2.773   8.730   5.728 -0.6508  0.1471 -1.1754
  929THY    HM323223   2.943   8.732   5.659  0.7168  1.4731 -1.5895
  929THY    CA623224   2.680   8.882   5.508  0.3287  0.4947 -0.1674
  929THY    HA623225   2.629   8.917   5.597 -3.2949 -0.9092 -1.4809
  930THY      O23226   0.581   6.906   1.502  0.1789 -0.1013 -0.8440
  930THY     HO23227   0.590   6.860   1.587  0.7205 -0.1231 -0.9066
  930THY    CA123228   0.693   6.868   1.433 -0.2799  0.5165 -0.4980
  930THY    CA223229   0.733   6.922   1.310  0.2753 -0.8527 -0.0229
  930THY    CP123230   0.641   7.019   1.234  0.0832 -0.1476 -0.6578
  930THY    HP123231   0.549   7.044   1.288  0.2650 -1.4042  0.2985
  930THY    CP223232   0.706   7.157   1.219  0.1724 -0.2006 -0.4560
  930THY    HP223233   0.761   7.162   1.124  0.5349 -2.4877 -0.4235
  930THY    HP323234   0.641   7.244   1.237  0.9599  0.1533  0.8788
  930THY    HP423235   0.775   7.179   1.301  0.3802  0.7329 -0.8620
  930THY    CP323236   0.602   6.953   1.103 -0.1498  0.6614  0.4002
  930THY    HP523237   0.547   6.861   1.127 -1.8720  1.3420 -0.7374
  930THY    HP623238   0.529   7.016   1.052 -1.0576 -2.0506 -1.8915
  930THY    HP723239   0.679   6.923   1.031 -2.0739 -2.6134 -0.5266
  930THY    CA323240   0.865   6.891   1.260  0.0726  0.7606 -0.6404
  930THY    HA323241   0.886   6.933   1.162  0.4650 -0.0813 -0.9295
  930THY    CA423242   0.938   6.790   1.327  0.3547 -0.2886  0.1840
  930THY    HA423243   1.036   6.763   1.289  0.3150  0.1367 -0.2374
  930THY    CA523244   0.898   6.733   1.444 -0.5242  0.3747  0.4237
  930THY    CM123245   0.997   6.638   1.518 -0.0579  0.3571  0.0841
  930THY    HM123246   1.091   6.687   1.548  0.5936 -0.9642  0.2825
  930THY    HM223247   0.943   6.597   1.604  0.5222 -0.6774 -0.0231
  930THY    HM323248   1.040   6.554   1.462  1.9976  0.1149  1.8909
  930THY    CA623249   0.780   6.777   1.504 -0.1335 -0.4502  0.1268
  930THY    HA623250   0.748   6.731   1.597 -0.6146 -2.5046 -0.9820
  931THY      O23251   2.472   9.003   8.670 -0.8966  0.2121 -0.0777
  931THY     HO23252   2.500   9.015   8.578 -0.5732  1.0147  0.1139
  931THY    CA123253   2.480   8.868   8.676 -0.9174  0.9614  0.1892
  931THY    CA223254   2.435   8.792   8.783  0.7116  1.0382  0.7759
  931THY    CP123255   2.373   8.863   8.899 -0.2082 -0.3839 -0.9566
  931THY    HP123256   2.303   8.941   8.867 -0.0061  0.8615  1.3969
  931THY    CP223257   2.288   8.786   8.997 -0.1229  0.2783 -0.5171
  931THY    HP223258   2.349   8.706   9.040  0.3304  0.6192 -0.5174
  931THY    HP323259   2.236   8.850   9.069  0.4515 -0.9754  1.0695
  931THY    HP423260   2.211   8.754   8.926  1.5453  0.5272 -2.5600
  931THY    CP323261   2.478   8.934   8.979  0.4626  0.3544  0.7465
  931THY    HP523262   2.548   8.864   9.026  0.9814  1.0266  0.9817
  931THY    HP623263   2.531   9.012   8.924  0.4618 -0.1651  0.0018
  931THY    HP723264   2.428   8.984   9.063  1.8077  0.1639  1.6861
  931THY    CA323265   2.446   8.649   8.774 -0.1073 -0.2524  0.0348
  931THY    HA323266   2.401   8.589   8.853 -0.8463  0.5584  0.2392
  931THY    CA423267   2.504   8.594   8.662  0.6164  0.3680  0.3041
  931THY    HA423268   2.507   8.486   8.650  1.8914  0.5249 -1.0460
  931THY    CA523269   2.554   8.670   8.557 -0.5363 -0.2256  0.2545
  931THY    CM123270   2.612   8.606   8.435 -0.3954  0.2382 -0.4378
  931THY    HM123271   2.624   8.499   8.457  0.1437  0.4398  0.2929
  931THY    HM223272   2.544   8.613   8.350  0.1580  0.2118 -0.8909
  931THY    HM323273   2.714   8.638   8.411 -0.6933  0.3064 -1.6782
  931THY    CA623274   2.541   8.809   8.565 -0.6788 -0.2678  1.2075
  931THY    HA623275   2.569   8.876   8.484  0.5385 -1.7188  0.3633
  932THY      O23276   1.351   5.573   3.259 -0.5600 -0.1761  0.3268
  932THY     HO23277   1.416   5.561   3.187  2.0425  0.3763  2.4400
  932THY    CA123278   1.303   5.702   3.262 -0.2979  1.2695  1.1751
  932THY    CA223279   1.204   5.747   3.354 -0.0065  0.4570  0.3061
  932THY    CP123280   1.147   5.636   3.437 -0.9235  0.6516  0.3063
  932THY    HP123281   1.220   5.556   3.457 -0.1420  0.9788 -1.0967
  932THY    CP223282   1.110   5.687   3.574 -0.6915  0.1974  0.1386
  932THY    HP223283   1.129   5.606   3.646  0.1750 -0.2580 -0.5710
  932THY    HP323284   1.176   5.768   3.607  0.5933 -0.3367 -1.0250
  932THY    HP423285   1.005   5.717   3.577 -1.4142 -1.6462 -2.7514
  932THY    CP323286   1.023   5.578   3.368 -0.1366  1.5175 -0.3118
  932THY    HP523287   0.987   5.488   3.419 -1.4234  1.5620 -1.0769
  932THY    HP623288   0.943   5.653   3.357 -0.2570  1.3771 -0.4069
  932THY    HP723289   1.035   5.525   3.272 -0.0789 -0.5218  0.7765
  932THY    CA323290   1.160   5.883   3.353  0.1349  0.7108  0.0915
  932THY    HA323291   1.085   5.905   3.429  1.4734  0.1124  1.6565
  932THY    CA423292   1.206   5.970   3.258 -0.1367  0.2089 -0.1169
  932THY    HA423293   1.173   6.073   3.264 -3.4671 -0.7210 -0.7759
  932THY    CA523294   1.306   5.931   3.165 -0.1502 -0.1624  0.4635
  932THY    CM123295   1.385   6.038   3.087  0.2014 -0.6877 -0.6438
  932THY    HM123296   1.320   6.060   3.001  0.5300 -2.1556 -1.2986
  932THY    HM223297   1.409   6.118   3.158 -1.5981 -1.2069  0.6187
  932THY    HM323298   1.469   5.987   3.038  0.3005 -0.8245 -0.3305
  932THY    CA623299   1.353   5.802   3.171  0.3421 -0.5446 -0.0953
  932THY    HA623300   1.434   5.781   3.103  0.6187 -0.1056  0.0947
  933THY      O23301   5.868   7.289   0.665  0.1115  0.4375 -0.4654
  933THY     HO23302   5.831   7.277   0.754 -2.5706 -1.5811 -1.7274
  933THY    CA123303   5.929   7.406   0.648 -0.3055  0.2370  0.2888
  933THY    CA223304   6.044   7.423   0.575 -0.4260 -0.3039 -0.2412
  933THY    CP123305   6.115   7.304   0.509  0.3605  1.1285 -0.4233
  933THY    HP123306   6.060   7.211   0.528  0.9836  0.8423  0.0287
  933THY    CP223307   6.143   7.327   0.358 -0.5305 -0.0030  0.6996
  933THY    HP223308   6.169   7.234   0.306  0.6260 -0.0630  1.3484
  933THY    HP323309   6.058   7.374   0.307  0.1433 -0.9941 -1.4257
  933THY    HP423310   6.231   7.392   0.351 -1.4473  1.0614 -2.8325
  933THY    CP323311   6.249   7.270   0.573  0.3808 -0.3648  0.2407
  933THY    HP523312   6.304   7.365   0.584  0.1900 -0.1445 -0.6575
  933THY    HP623313   6.228   7.231   0.673  0.0254 -0.2108  0.2273
  933THY    HP723314   6.308   7.202   0.511  1.0245  0.5033 -0.1278
  933THY    CA323315   6.095   7.552   0.570  0.3121 -0.4034  0.0153
  933THY    HA323316   6.177   7.570   0.501 -0.0058  0.1222 -0.2324
  933THY    CA423317   6.027   7.656   0.640 -0.1383  0.4871 -0.0890
  933THY    HA423318   6.066   7.756   0.623  0.5825 -0.2255 -3.2366
  933THY    CA523319   5.906   7.636   0.705  0.0433  0.3273  0.0424
  933THY    CM123320   5.835   7.760   0.761 -0.8891 -0.0909  0.4298
  933THY    HM123321   5.832   7.843   0.689  0.4507 -0.2599  0.1608
  933THY    HM223322   5.733   7.732   0.791 -0.8793 -1.6634 -0.8832
  933THY    HM323323   5.904   7.794   0.838  0.9217 -0.8411 -0.7961
  933THY    CA623324   5.861   7.503   0.715 -0.3724 -0.2197 -0.2357
  933THY    HA623325   5.767   7.490   0.769  0.0424  1.2368  0.9032
  934THY      O23326   2.378   1.210   6.382 -0.1253  0.6643 -0.3870
  934THY     HO23327   2.336   1.293   6.411 -0.8554  0.3364 -0.4879
  934THY    CA123328   2.472   1.241   6.288  0.2765  0.3303  0.5761
  934THY    CA223329   2.545   1.139   6.220 -0.0240  1.3713 -0.1134
  934THY    CP123330   2.528   0.990   6.256  0.6643  0.4782 -0.1481
  934THY    HP123331   2.420   0.972   6.255  0.6577  0.5065  0.0429
  934THY    CP223332   2.586   0.900   6.141  0.7535 -0.6380 -0.1490
  934THY    HP223333   2.696   0.894   6.140  0.7180 -1.2625 -0.8660
  934THY    HP323334   2.544   0.799   6.156 -1.2112  0.1859  0.1706
  934THY    HP423335   2.550   0.944   6.048 -0.0512  2.0881  1.3554
  934THY    CP323336   2.594   0.957   6.386  0.3090  0.1431  0.3279
  934THY    HP523337   2.548   1.011   6.470  1.7750 -1.4425  2.2326
  934THY    HP623338   2.587   0.850   6.405  0.1254  0.5201  2.7885
  934THY    HP723339   2.701   0.978   6.375  0.2005 -0.1095 -1.5095
  934THY    CA323340   2.630   1.191   6.118 -0.2889  0.5662  0.2648
  934THY    HA323341   2.682   1.119   6.056  2.5358  1.7510  1.0901
  934THY    CA423342   2.638   1.327   6.091 -0.1413 -0.3135 -0.1962
  934THY    HA423343   2.683   1.355   5.995  0.0858  0.1449  0.0378
  934THY    CA523344   2.561   1.417   6.161 -0.6091  0.1951  0.1892
  934THY    CM123345   2.555   1.565   6.127 -0.1568 -0.1810  0.2077
  934THY    HM123346   2.543   1.587   6.020  0.4102 -0.9895 -0.0400
  934THY    HM223347   2.476   1.613   6.185 -0.0799 -0.6689  0.7309
  934THY    HM323348   2.634   1.636   6.154 -0.8623  0.5994  0.2592
  934THY    CA623349   2.484   1.374   6.264 -0.6737 -0.1889 -0.9994
  934THY    HA623350   2.427   1.444   6.325 -1.4643 -0.4084 -1.4749
  935THY      O23351   7.717   1.351   3.219  0.0971  0.0413  0.3295
  935THY     HO23352   7.654   1.413   3.179 -1.0163 -1.9847 -1.3011
  935THY    CA123353   7.777   1.426   3.318  0.2237 -0.1110 -0.8928
  935THY    CA223354   7.908   1.396   3.375 -0.2463  0.3117  0.3156
  935THY    CP123355   7.996   1.269   3.325  0.3337 -0.7858  0.0874
  935THY    HP123356   7.928   1.188   3.296 -2.6631  1.6452 -0.2254
  935THY    CP223357   8.080   1.317   3.208  0.3776  0.1116  0.0521
  935THY    HP223358   8.147   1.400   3.234 -0.3986  0.0738  2.3972
  935THY    HP323359   8.147   1.243   3.162 -0.3456  1.2196 -3.0380
  935THY    HP423360   8.017   1.351   3.125  2.0772 -0.8243 -1.7010
  935THY    CP323361   8.097   1.206   3.423  0.4313 -0.0655 -1.1207
  935THY    HP523362   8.161   1.282   3.468  1.0294 -0.8248 -0.6652
  935THY    HP623363   8.029   1.170   3.501 -0.4078  0.5414 -1.5563
  935THY    HP723364   8.162   1.127   3.383 -0.8195 -1.3892 -0.6293
  935THY    CA323365   7.962   1.481   3.478 -0.1428  0.3229  1.3982
  935THY    HA323366   8.052   1.451   3.529  0.3314  0.4728  0.6654
  935THY    CA423367   7.883   1.589   3.512  0.8883 -0.1676 -0.5813
  935THY    HA423368   7.921   1.657   3.588  0.5234 -1.5833  0.9213
  935THY    CA523369   7.746   1.607   3.472  0.3141  0.1995  0.0001
  935THY    CM123370   7.651   1.721   3.507  1.5865  0.0164  0.9027
  935THY    HM123371   7.670   1.808   3.443  0.3636 -1.0204 -0.9729
  935THY    HM223372   7.545   1.698   3.496  1.1293  2.4416 -0.4617
  935THY    HM323373   7.671   1.744   3.612  2.0716 -0.3057  0.8875
  935THY    CA623374   7.692   1.521   3.374 -0.1888  0.1305 -0.2814
  935THY    HA623375   7.588   1.533   3.342 -0.6275  0.1066  1.0610
  936THY      O23376   4.919   6.176   3.511  0.4169 -0.3011 -0.1456
  936THY     HO23377   4.891   6.260   3.471 -0.3876 -0.8485 -0.7667
  936THY    CA123378   4.930   6.204   3.644  0.0954  0.2233 -0.2690
  936THY    CA223379   4.973   6.102   3.730  0.6276 -0.0066  0.1806
  936THY    CP123380   5.000   5.958   3.680  0.1331  0.5764  0.1636
  936THY    HP123381   4.930   5.933   3.599 -1.2977  2.6312  0.6773
  936THY    CP223382   5.140   5.943   3.629  0.3439 -0.6876  0.1596
  936THY    HP223383   5.156   5.841   3.593  1.9120  0.0830 -1.5010
  936THY    HP323384   5.157   6.013   3.546  0.4196  0.4204  1.0900
  936THY    HP423385   5.224   5.972   3.693 -0.0175  2.2801 -0.5575
  936THY    CP323386   4.972   5.864   3.799 -0.0721 -0.1580  0.7724
  936THY    HP523387   5.052   5.877   3.872  0.3694 -3.4048  0.9736
  936THY    HP623388   4.878   5.895   3.847 -1.2669 -1.3526 -0.6971
  936THY    HP723389   4.965   5.758   3.773 -2.2567 -0.3129  1.7576
  936THY    CA323390   4.993   6.143   3.869 -0.3426  0.5210 -0.3268
  936THY    HA323391   5.014   6.080   3.955 -0.1103  0.4883 -0.4058
  936THY    CA423392   4.977   6.278   3.909  0.1730  0.1717 -0.1304
  936THY    HA423393   4.988   6.310   4.012  0.3931 -2.5958  0.7789
  936THY    CA523394   4.936   6.372   3.815 -0.3257 -0.0122  0.0734
  936THY    CM123395   4.904   6.510   3.866  0.0232  0.1002 -0.2573
  936THY    HM123396   4.829   6.551   3.797 -0.9153 -2.2366 -0.7133
  936THY    HM223397   4.863   6.508   3.967  1.3131  0.8908  0.3129
  936THY    HM323398   4.988   6.581   3.863 -0.6626  0.9674  0.3608
  936THY    CA623399   4.910   6.336   3.680 -0.2878 -0.2544 -0.3636
  936THY    HA623400   4.876   6.410   3.609 -1.7656  0.1118  0.7016
  937THY      O23401   7.204   2.099   8.014  0.1574  0.4842  0.7622
  937THY     HO23402   7.291   2.103   8.058 -0.7235  0.8108  2.5739
  937THY    CA123403   7.193   2.217   7.947  0.9536 -0.8832 -0.0843
  937THY    CA223404   7.068   2.257   7.890  0.0454  0.1086  0.2107
  937THY    CP123405   6.945   2.169   7.896  0.2244 -0.5021 -0.0436
  937THY    HP123406   6.955   2.082   7.962 -0.1407 -0.9659 -0.5864
  937THY    CP223407   6.821   2.241   7.954 -0.4997  0.4055 -0.5160
  937THY    HP223408   6.745   2.164   7.973  0.5932 -0.6058 -0.1043
  937THY    HP323409   6.843   2.283   8.053 -2.9540  1.5447 -0.3762
  937THY    HP423410   6.786   2.323   7.891 -1.5630  0.3369 -0.0482
  937THY    CP323411   6.915   2.122   7.745 -0.9325  0.2127  0.0456
  937THY    HP523412   7.004   2.069   7.710  0.2899  1.7116  0.7505
  937THY    HP623413   6.828   2.058   7.728 -0.9718  0.7734 -2.3153
  937THY    HP723414   6.905   2.205   7.673  1.6854  1.2111  0.7173
  937THY    CA323415   7.064   2.385   7.822 -0.1249 -0.2886 -0.3853
  937THY    HA323416   6.974   2.434   7.788  0.8156  1.9445  0.1343
  937THY    CA423417   7.179   2.467   7.817  0.3963 -0.0442 -0.2335
  937THY    HA423418   7.174   2.570   7.783  0.8753  0.6753  1.7119
  937THY    CA523419   7.299   2.422   7.881 -0.6010 -0.9233  0.7512
  937THY    CM123420   7.416   2.524   7.890 -0.2429  0.5898  0.5540
  937THY    HM123421   7.390   2.630   7.876  3.2514  1.5456  0.2390
  937THY    HM223422   7.459   2.521   7.990 -2.1625  1.0383  1.4295
  937THY    HM323423   7.494   2.503   7.816 -2.2905  0.5589 -1.7162
  937THY    CA623424   7.308   2.298   7.941 -0.5090  0.6374  0.6565
  937THY    HA623425   7.399   2.257   7.983 -0.6645  0.1119  0.4823
  938THY      O23426   8.970   2.559   3.086  0.0972 -0.3769 -0.5941
  938THY     HO23427   8.969   2.569   3.183 -1.5238 -0.6819 -0.5476
  938THY    CA123428   9.079   2.481   3.052 -0.0296  0.5313 -0.7474
  938THY    CA223429   9.087   2.422   2.926 -0.8237 -0.1134  0.4703
  938THY    CP123430   8.975   2.445   2.825 -0.5898  0.6617 -0.3904
  938THY    HP123431   8.932   2.545   2.838  0.3152  1.2421 -1.6731
  938THY    CP223432   9.037   2.461   2.682 -0.3412 -0.5719  0.2840
  938THY    HP223433   8.971   2.516   2.613  0.2839 -0.7755 -0.4822
  938THY    HP323434   9.122   2.530   2.681 -2.3810  2.1296 -1.5133
  938THY    HP423435   9.071   2.366   2.640  1.2506 -1.0652  2.5255
  938THY    CP323436   8.880   2.331   2.835  1.1089 -0.0810  0.2580
  938THY    HP523437   8.847   2.307   2.937 -0.8825 -1.0189 -0.5587
  938THY    HP623438   8.793   2.348   2.771  1.9301 -1.3551 -1.2694
  938THY    HP723439   8.930   2.242   2.795  1.1158 -0.0627  0.2263
  938THY    CA323440   9.206   2.356   2.890  0.1017  0.1777 -0.3439
  938THY    HA323441   9.208   2.298   2.798  2.2708  0.5218 -0.5817
  938THY    CA423442   9.313   2.341   2.987  0.6358 -0.3432  0.5009
  938THY    HA423443   9.404   2.285   2.968 -0.0734 -1.9327  1.5548
  938THY    CA523444   9.294   2.400   3.117 -0.1549 -0.5634  0.5992
  938THY    CM123445   9.391   2.382   3.219 -0.2312 -0.4992  0.1372
  938THY    HM123446   9.362   2.307   3.293  3.3452  0.4010  2.7337
  938THY    HM223447   9.489   2.352   3.182  1.5570  0.8099  3.4096
  938THY    HM323448   9.411   2.465   3.289  0.2285 -1.2577  0.9262
  938THY    CA623449   9.187   2.479   3.140  0.1856 -0.5008  0.3085
  938THY    HA623450   9.184   2.518   3.242  0.5264 -1.3666  0.6599
  939THY      O23451   2.012   6.326   2.081 -1.1827  0.4206  0.2634
  939THY     HO23452   2.066   6.268   2.137 -1.3205  0.2801  0.2504
  939THY    CA123453   2.065   6.302   1.956 -0.4208 -0.2924 -0.4338
  939THY    CA223454   2.019   6.368   1.838  0.0433  0.2407 -0.4324
  939THY    CP123455   1.898   6.461   1.846  0.1458  0.1764  0.2732
  939THY    HP123456   1.865   6.459   1.951  1.0639 -3.0394  0.6093
  939THY    CP223457   1.926   6.604   1.788 -0.3931  0.5591 -0.3346
  939THY    HP223458   1.832   6.660   1.777 -1.4028 -1.5154 -3.3356
  939THY    HP323459   1.999   6.659   1.849 -0.8119  1.3506 -0.5353
  939THY    HP423460   1.972   6.597   1.689  1.4546 -1.4642  0.5964
  939THY    CP323461   1.774   6.398   1.773  0.6810 -0.6164 -0.1625
  939THY    HP523462   1.741   6.308   1.826 -0.2780 -0.8745 -1.1892
  939THY    HP623463   1.681   6.453   1.792 -0.3348 -2.7099  1.4258
  939THY    HP723464   1.791   6.390   1.665 -0.7332  1.7189 -0.6288
  939THY    CA323465   2.072   6.334   1.715 -0.3521 -0.4230  0.3991
  939THY    HA323466   2.028   6.365   1.620 -0.5295 -0.1473  0.5683
  939THY    CA423467   2.168   6.231   1.705  0.3625 -0.5772 -0.4388
  939THY    HA423468   2.211   6.219   1.606  3.0295  2.4478  0.2149
  939THY    CA523469   2.223   6.170   1.818 -0.1899 -0.5945  0.3158
  939THY    CM123470   2.333   6.068   1.813  0.4166 -0.0170 -0.6058
  939THY    HM123471   2.401   6.076   1.728  0.0783 -1.8166 -1.0841
  939THY    HM223472   2.371   6.049   1.914 -0.7156 -0.8146 -0.3159
  939THY    HM323473   2.284   5.972   1.793  1.1589 -0.4071 -0.5878
  939THY    CA623474   2.174   6.211   1.945  0.5519  0.4938  0.7372
  939THY    HA623475   2.207   6.164   2.037 -2.4930 -0.1053  1.6334
  940THY      O23476   6.350   7.580   2.414  0.0110 -0.3304  0.0058
  940THY     HO23477   6.315   7.607   2.328 -0.6591  1.6750  0.8517
  940THY    CA123478   6.244   7.549   2.480 -0.4426 -0.6197  0.4671
  940THY    CA223479   6.244   7.533   2.615 -0.0074 -0.1403 -0.1609
  940THY    CP123480   6.377   7.536   2.699  0.7317  0.4943 -0.3884
  940THY    HP123481   6.463   7.564   2.637  0.0453 -1.5969 -2.4563
  940THY    CP223482   6.371   7.621   2.825  0.7157  0.3527  0.2327
  940THY    HP223483   6.320   7.566   2.905 -0.3123  1.0165  0.0514
  940THY    HP323484   6.472   7.647   2.859  0.8261  0.9862 -0.5586
  940THY    HP423485   6.318   7.716   2.813 -3.0812 -1.4302  1.1498
  940THY    CP323486   6.431   7.395   2.750  0.5701  0.5892  0.0830
  940THY    HP523487   6.344   7.337   2.783 -0.8536  1.5945 -1.7294
  940THY    HP623488   6.466   7.341   2.661 -1.1173  1.0214 -0.8843
  940THY    HP723489   6.507   7.412   2.826 -1.7174  0.6288  2.5014
  940THY    CA323490   6.124   7.504   2.680  0.2048  0.2782 -0.6328
  940THY    HA323491   6.124   7.489   2.787  2.8679  1.0963 -0.4444
  940THY    CA423492   6.011   7.490   2.603 -0.1025  0.2758 -0.1821
  940THY    HA423493   5.921   7.449   2.649  0.5254 -1.5303 -0.4926
  940THY    CA523494   6.007   7.502   2.465  0.6188  0.2643 -0.7390
  940THY    CM123495   5.882   7.483   2.392  0.5859  0.3221 -0.1035
  940THY    HM123496   5.835   7.388   2.419  2.0209 -0.7051 -1.0218
  940THY    HM223497   5.804   7.551   2.429  0.0355 -0.2134 -0.2702
  940THY    HM323498   5.901   7.495   2.285 -1.0957  1.9916 -0.2607
  940THY    CA623499   6.128   7.528   2.403  0.2137 -0.0365 -0.1625
  940THY    HA623500   6.123   7.543   2.295  0.4665 -2.1156 -0.5115
  941THY      O23501   5.836   9.883   0.024 -0.3954  0.0466  0.8014
  941THY     HO23502   5.747   9.855  -0.003  0.3527 -0.5425 -1.2645
  941THY    CA123503   5.806  10.012   0.063  0.2030  0.3058  0.3246
  941THY    CA223504   5.879  10.078   0.160  0.7053 -0.0571 -0.2751
  941THY    CP123505   6.009  10.018   0.215 -0.2309 -0.5435  0.4175
  941THY    HP123506   6.035   9.933   0.151  2.8023 -0.0464  0.8357
  941THY    CP223507   6.124  10.121   0.205  0.0416  0.1745 -1.3153
  941THY    HP223508   6.216  10.070   0.237  0.3750  0.2669 -2.0953
  941THY    HP323509   6.137  10.172   0.109 -3.0598  1.7141 -1.0238
  941THY    HP423510   6.109  10.198   0.282  0.0280 -0.6045 -0.5206
  941THY    CP323511   5.985   9.960   0.351  0.2313 -0.0897 -0.0372
  941THY    HP523512   5.976  10.037   0.428  4.1012  0.9246 -0.4130
  941THY    HP623513   5.893   9.900   0.346  1.6684 -2.4867  0.3427
  941THY    HP723514   6.067   9.895   0.384 -0.1433  0.6930  2.6197
  941THY    CA323515   5.830  10.207   0.190  0.2374 -0.2089 -0.3388
  941THY    HA323516   5.867  10.268   0.272  0.2695  0.5346 -0.8939
  941THY    CA423517   5.728  10.268   0.124  0.7537  0.6600 -0.6097
  941THY    HA423518   5.687  10.367   0.139 -1.0150 -0.0698 -0.3707
  941THY    CA523519   5.648  10.195   0.039  0.0081 -0.3622  0.4017
  941THY    CM123520   5.515  10.246  -0.030 -0.0080  0.4806 -0.2718
  941THY    HM123521   5.533  10.285  -0.131  0.2624  2.2205  0.4101
  941THY    HM223522   5.439  10.168  -0.017 -0.8070  1.0145 -1.5495
  941THY    HM323523   5.480  10.325   0.037  1.1850 -0.5081  1.6133
  941THY    CA623524   5.692  10.063   0.008 -0.6339 -0.7090  0.4693
  941THY    HA623525   5.632  10.017  -0.070  2.3957 -1.2599 -1.7445
  942THY      O23526   5.611   0.510   2.671  0.7817  0.1425 -0.3052
  942THY     HO23527   5.591   0.596   2.632  0.5200 -0.1130 -0.7403
  942THY    CA123528   5.502   0.470   2.746 -0.1029  0.2739 -0.1206
  942THY    CA223529   5.487   0.336   2.790 -0.6395  0.5203 -0.2003
  942THY    CP123530   5.579   0.230   2.731  0.3672 -0.1849  0.3796
  942THY    HP123531   5.622   0.275   2.641 -1.1257  1.4657  0.4291
  942THY    CP223532   5.692   0.190   2.830  0.3694  0.2438 -0.1671
  942THY    HP223533   5.647   0.144   2.918  2.0821 -1.1954  0.0130
  942THY    HP323534   5.754   0.116   2.778 -1.7855 -1.4736 -0.4075
  942THY    HP423535   5.755   0.273   2.863  2.1963 -0.5138 -1.5382
  942THY    CP323536   5.497   0.114   2.692  0.3743  0.2815  0.6055
  942THY    HP523537   5.399   0.138   2.650  0.0583  0.8807  1.6562
  942THY    HP623538   5.558   0.062   2.617 -1.5293 -0.0562 -0.7605
  942THY    HP723539   5.473   0.052   2.779  0.0555  0.6325  0.7714
  942THY    CA323540   5.388   0.309   2.883 -0.2233 -0.2241  0.1303
  942THY    HA323541   5.379   0.207   2.918  1.7534 -1.4413 -2.5815
  942THY    CA423542   5.304   0.410   2.938  0.0809 -0.2122 -0.1195
  942THY    HA423543   5.226   0.383   3.008  1.2584 -0.0609  1.2958
  942THY    CA523544   5.325   0.544   2.895  0.4547 -0.4442  0.4110
  942THY    CM123545   5.236   0.642   2.970 -0.3115  0.1139 -0.8453
  942THY    HM123546   5.133   0.612   2.993 -0.0874  0.3242  0.5459
  942THY    HM223547   5.285   0.671   3.063  0.4661  2.0208 -1.7903
  942THY    HM323548   5.223   0.741   2.924  0.5663  0.0518 -1.2311
  942THY    CA623549   5.428   0.572   2.804  0.1168  0.4727 -0.3534
  942THY    HA623550   5.458   0.672   2.773  2.4204  0.2155  0.8498
  943THY      O23551   7.127   1.312   9.645  0.4343 -0.8471  0.7282
  943THY     HO23552   7.046   1.302   9.593  0.8159  1.5013 -0.4579
  943THY    CA123553   7.183   1.423   9.597 -0.0860  0.1814  0.8009
  943THY    CA223554   7.302   1.476   9.637 -0.9079 -0.2161  0.9926
  943THY    CP123555   7.385   1.378   9.726 -0.6737 -0.0657 -0.5685
  943THY    HP123556   7.322   1.306   9.779 -1.6701 -0.4230 -2.1814
  943THY    CP223557   7.485   1.292   9.646  0.2653  0.3425  0.1625
  943THY    HP223558   7.559   1.351   9.593  0.6816  0.4881  0.8938
  943THY    HP323559   7.536   1.224   9.716 -1.8314 -1.5568 -0.0024
  943THY    HP423560   7.429   1.220   9.585  1.6445 -1.4381  0.9033
  943THY    CP323561   7.470   1.446   9.835 -0.1297  0.8146  0.3045
  943THY    HP523562   7.562   1.479   9.784 -0.6924  0.6694 -0.8415
  943THY    HP623563   7.422   1.531   9.884  0.0120  0.7568  0.5441
  943THY    HP723564   7.501   1.373   9.911 -1.1281 -1.3228 -1.2303
  943THY    CA323565   7.341   1.611   9.596  0.2462  0.4270  0.1984
  943THY    HA323566   7.435   1.652   9.632  0.1609 -1.0730  2.3075
  943THY    CA423567   7.258   1.668   9.498  0.0657 -0.1313 -0.0309
  943THY    HA423568   7.280   1.769   9.466  0.7224 -0.1480  0.3452
  943THY    CA523569   7.141   1.612   9.456 -0.4598 -0.0963  0.2041
  943THY    CM123570   7.030   1.686   9.383 -0.3962  0.0477  0.1883
  943THY    HM123571   7.050   1.794   9.378  2.4020 -0.3815  0.4535
  943THY    HM223572   7.027   1.653   9.278 -0.9202  0.4872  0.0628
  943THY    HM323573   6.930   1.681   9.426  0.9691 -0.2354  3.7165
  943THY    CA623574   7.105   1.486   9.512  0.5529  0.3176 -0.1847
  943THY    HA623575   7.005   1.447   9.496  0.2912 -1.1480  3.9002
  944THY      O23576   6.659   8.349   0.033 -0.1911 -0.3709  0.6159
  944THY     HO23577   6.580   8.316  -0.012 -0.6666  0.8852  0.4932
  944THY    CA123578   6.750   8.397  -0.057 -0.1464  0.0563  0.6011
  944THY    CA223579   6.870   8.467  -0.017 -0.3208  0.1409  0.0498
  944THY    CP123580   6.905   8.470   0.135  0.0029  0.1585  0.5100
  944THY    HP123581   6.813   8.463   0.195 -0.1167  0.9213  0.4217
  944THY    CP223582   6.987   8.352   0.174 -0.0398 -0.3502 -0.5610
  944THY    HP223583   6.918   8.269   0.190  0.3494 -0.6221 -0.2902
  944THY    HP323584   7.053   8.321   0.091  1.4889  1.7390 -0.2047
  944THY    HP423585   7.047   8.368   0.264 -0.9564 -0.3329  0.0588
  944THY    CP323586   6.976   8.600   0.186  0.1872  0.4022 -0.2770
  944THY    HP523587   6.943   8.693   0.139 -0.6702  2.0256  3.1742
  944THY    HP623588   6.949   8.609   0.292 -2.1654 -2.1569 -0.5373
  944THY    HP723589   7.082   8.597   0.160  0.0873 -1.1104 -0.6262
  944THY    CA323590   6.957   8.533  -0.111  0.0836  1.0040 -0.0580
  944THY    HA323591   7.045   8.593  -0.087 -0.1136  2.6956 -3.0529
  944THY    CA423592   6.912   8.527  -0.245 -0.4438 -0.4898  0.5338
  944THY    HA423593   6.970   8.575  -0.323  0.3049 -0.1824  1.2635
  944THY    CA523594   6.793   8.462  -0.283  0.8777 -0.2169 -0.4169
  944THY    CM123595   6.753   8.436  -0.422 -0.0538 -0.3517  0.0832
  944THY    HM123596   6.802   8.494  -0.501 -2.2425 -0.8198 -1.7035
  944THY    HM223597   6.771   8.330  -0.441  0.5702  0.0030 -1.4673
  944THY    HM323598   6.646   8.450  -0.438  0.4160  0.8446 -2.4657
  944THY    CA623599   6.712   8.396  -0.188 -0.8805  0.6352  1.0111
  944THY    HA623600   6.619   8.346  -0.211 -1.7238  1.3776  2.6375
  945THY      O23601   8.440   0.386   8.281 -0.5870  0.5717 -0.1215
  945THY     HO23602   8.385   0.450   8.330 -0.2621  0.0057  1.0275
  945THY    CA123603   8.423   0.259   8.332  0.0954 -0.1408 -0.3659
  945THY    CA223604   8.485   0.141   8.285 -1.0086  0.1991 -0.3663
  945THY    CP123605   8.564   0.142   8.159 -0.2301  0.0162  0.5483
  945THY    HP123606   8.607   0.243   8.149 -2.0428  0.7810  0.0987
  945THY    CP223607   8.684   0.047   8.145  0.1407 -0.1668 -0.5039
  945THY    HP223608   8.659  -0.057   8.169 -2.2131  0.4516  0.0083
  945THY    HP323609   8.735   0.036   8.048  0.7258 -2.0912 -0.0343
  945THY    HP423610   8.756   0.067   8.226  1.7362 -2.7236 -1.1445
  945THY    CP323611   8.468   0.107   8.034  0.2296  0.1341 -0.0467
  945THY    HP523612   8.387   0.179   8.014  0.6008  0.4653 -0.3687
  945THY    HP623613   8.522   0.095   7.939 -1.3361 -1.6872 -0.7905
  945THY    HP723614   8.439   0.003   8.049 -0.9954  0.5685  0.7775
  945THY    CA323615   8.475   0.022   8.360  0.1467  0.6932  0.6230
  945THY    HA323616   8.521  -0.073   8.334 -1.7803  0.0181 -0.5102
  945THY    CA423617   8.400   0.031   8.478 -0.1276 -0.3113 -0.0111
  945THY    HA423618   8.385  -0.055   8.543 -2.6947  0.3776  0.4195
  945THY    CA523619   8.333   0.144   8.519 -0.2457 -0.4718 -0.2704
  945THY    CM123620   8.265   0.142   8.649 -0.6372  0.8079 -0.2806
  945THY    HM123621   8.229   0.045   8.685 -1.5775  0.7841 -1.2299
  945THY    HM223622   8.332   0.187   8.723  2.0205 -1.8778 -0.8577
  945THY    HM323623   8.175   0.204   8.647 -1.8097 -0.8102  0.2620
  945THY    CA623624   8.353   0.260   8.446 -0.3163  0.4626  0.1404
  945THY    HA623625   8.325   0.357   8.487 -0.1941  0.0033  1.3474
  946THY      O23626   6.631   9.374   6.526 -0.1945 -0.2664  0.0774
  946THY     HO23627   6.666   9.361   6.436  0.7253  0.5826  0.2931
  946THY    CA123628   6.743   9.433   6.582  0.4637 -0.8557 -0.5397
  946THY    CA223629   6.793   9.389   6.702  0.2711 -0.1475  0.0687
  946THY    CP123630   6.735   9.262   6.767 -0.9838 -0.0364  0.9448
  946THY    HP123631   6.714   9.194   6.683 -0.1408  1.1412 -0.2682
  946THY    CP223632   6.837   9.192   6.853 -0.3484  0.2185 -0.7520
  946THY    HP223633   6.848   9.232   6.954 -0.5705  1.0682 -1.0593
  946THY    HP323634   6.811   9.085   6.854 -1.7683  0.4674  2.7411
  946THY    HP423635   6.937   9.202   6.809 -1.8020  0.4978 -4.3001
  946THY    CP323636   6.613   9.290   6.850 -0.4130  1.0019  0.8891
  946THY    HP523637   6.641   9.345   6.940  1.7967  0.5275  0.5566
  946THY    HP623638   6.541   9.349   6.792 -0.3053 -0.1110 -0.4527
  946THY    HP723639   6.561   9.195   6.864 -1.1849  1.0280 -1.3753
  946THY    CA323640   6.895   9.467   6.766  0.5031 -0.3180 -0.4102
  946THY    HA323641   6.939   9.441   6.861 -0.2404  2.2544  0.7418
  946THY    CA423642   6.933   9.584   6.714 -0.0064 -0.1990  0.7920
  946THY    HA423643   7.005   9.642   6.770 -0.5084  2.0410 -0.7405
  946THY    CA523644   6.886   9.631   6.590 -0.4801  0.4103 -0.6905
  946THY    CM123645   6.927   9.765   6.532 -0.2506 -0.7914  0.1537
  946THY    HM123646   6.946   9.771   6.424 -0.2377  0.2150  0.1978
  946THY    HM223647   6.846   9.839   6.534  1.1021  0.8808 -1.8798
  946THY    HM323648   7.016   9.805   6.583 -0.6218  1.7815 -1.0149
  946THY    CA623649   6.790   9.549   6.529 -0.3437 -0.2236  0.5251
  946THY    HA623650   6.739   9.588   6.441  1.5246 -0.3710 -0.6665
  947THY      O23651   2.344   9.358   3.248  0.1549  0.1857  0.3775
  947THY     HO23652   2.256   9.382   3.281 -0.3968 -0.3746 -0.6274
  947THY    CA123653   2.339   9.229   3.218  0.3633  1.0098  0.2307
  947THY    CA223654   2.402   9.162   3.110 -0.2665  0.2165  0.0433
  947THY    CP123655   2.486   9.230   2.998  0.1517 -0.0435  0.0321
  947THY    HP123656   2.489   9.336   3.024  2.3087 -0.4229  1.6693
  947THY    CP223657   2.629   9.175   2.988 -0.4534 -0.5325 -0.2624
  947THY    HP223658   2.622   9.075   2.944 -0.3691 -0.4651 -0.4302
  947THY    HP323659   2.688   9.237   2.919 -2.3623  1.0620 -0.5744
  947THY    HP423660   2.677   9.176   3.086 -0.2806 -0.2948 -0.3488
  947THY    CP323661   2.411   9.221   2.865 -0.0010  0.2022 -0.4146
  947THY    HP523662   2.481   9.239   2.782 -2.1865 -0.0564 -2.4241
  947THY    HP623663   2.356   9.127   2.858  0.3658 -0.5063  3.9178
  947THY    HP723664   2.345   9.309   2.857  0.6014  0.7463  0.4595
  947THY    CA323665   2.386   9.023   3.104  0.6635  0.6439 -0.3789
  947THY    HA323666   2.428   8.963   3.024 -0.8126  0.6056 -1.1686
  947THY    CA423667   2.296   8.956   3.193  0.4458  0.5147 -0.3908
  947THY    HA423668   2.271   8.850   3.185 -3.1024  1.0626  1.2405
  947THY    CA523669   2.230   9.028   3.294 -0.3748  0.3331 -0.7458
  947THY    CM123670   2.127   8.965   3.395 -0.1222  0.5163 -0.4369
  947THY    HM123671   2.138   9.000   3.499  0.6421 -1.1786  0.0979
  947THY    HM223672   2.024   8.965   3.358 -0.5878 -1.2268  0.7241
  947THY    HM323673   2.145   8.857   3.405 -1.2905  0.4699  1.9069
  947THY    CA623674   2.264   9.161   3.314 -0.4168  0.1458  0.8356
  947THY    HA623675   2.215   9.210   3.398  1.3948  0.2998  1.8436
  948THY      O23676   6.627   4.334   4.084 -0.0395 -0.0380  0.2044
  948THY     HO23677   6.630   4.308   3.991 -1.0482  0.1975  0.0932
  948THY    CA123678   6.630   4.210   4.142  0.1811 -0.9061 -0.2857
  948THY    CA223679   6.573   4.182   4.268  0.1464  0.0000  1.1669
  948THY    CP123680   6.504   4.293   4.350 -0.8419 -0.8469  0.7164
  948THY    HP123681   6.480   4.373   4.279  0.0981 -2.0619 -1.0407
  948THY    CP223682   6.370   4.253   4.414  0.0651 -0.1908 -0.6027
  948THY    HP223683   6.310   4.191   4.346 -0.5023 -0.4073  0.0701
  948THY    HP323684   6.388   4.191   4.503 -0.9817 -1.3890 -1.1710
  948THY    HP423685   6.321   4.344   4.450 -1.2414 -1.4746  1.0420
  948THY    CP323686   6.588   4.360   4.458 -0.2170 -0.0126 -0.0718
  948THY    HP523687   6.588   4.295   4.546  0.4205 -1.0646 -0.8242
  948THY    HP623688   6.691   4.368   4.422  0.2705 -0.9599  1.0333
  948THY    HP723689   6.551   4.455   4.496 -0.5479 -0.1291 -0.0952
  948THY    CA323690   6.587   4.057   4.328 -0.3395  0.5226 -0.5786
  948THY    HA323691   6.554   4.032   4.429  1.3145  0.8000  0.0635
  948THY    CA423692   6.664   3.958   4.260 -0.4499  0.3277 -0.0448
  948THY    HA423693   6.687   3.864   4.309 -0.5720  0.3470  0.0509
  948THY    CA523694   6.724   3.986   4.135 -0.2593 -0.0355 -0.1430
  948THY    CM123695   6.793   3.882   4.060  0.3870  0.2309  0.0196
  948THY    HM123696   6.736   3.852   3.971 -1.8940  0.5494  1.3012
  948THY    HM223697   6.892   3.922   4.039 -0.2250  1.0578 -1.4458
  948THY    HM323698   6.798   3.791   4.122 -1.2295  0.2893  0.2977
  948THY    CA623699   6.701   4.108   4.077 -0.2157 -0.8705 -0.0639
  948THY    HA623700   6.742   4.132   3.980 -0.7356 -2.5590 -0.7370
  949THY      O23701   3.777   6.645   3.634 -0.0541 -0.1420  0.0225
  949THY     HO23702   3.752   6.605   3.719 -0.0332  0.9890  0.5844
  949THY    CA123703   3.909   6.676   3.639  0.3907  0.5846 -0.6171
  949THY    CA223704   3.999   6.593   3.567 -0.9511 -0.3489 -0.2783
  949THY    CP123705   3.941   6.489   3.467  0.7609  0.1581 -0.3845
  949THY    HP123706   3.853   6.445   3.515 -0.2168  2.7342  0.3868
  949THY    CP223707   3.891   6.551   3.338  0.1789  0.4926  0.0292
  949THY    HP223708   3.967   6.609   3.284  0.7422  1.1303  1.4611
  949THY    HP323709   3.860   6.459   3.286 -1.1311  0.2630  1.1764
  949THY    HP423710   3.805   6.614   3.364 -0.0608  0.4627 -0.6684
  949THY    CP323711   4.036   6.368   3.438  0.4609 -0.4210 -0.5201
  949THY    HP523712   4.126   6.396   3.383  0.6401 -0.5317 -0.2836
  949THY    HP623713   4.069   6.341   3.539 -0.5376  2.3422  0.6450
  949THY    HP723714   3.978   6.288   3.390  0.4412 -0.1313 -0.9887
  949THY    CA323715   4.140   6.613   3.566  0.7865  0.2745  1.2312
  949THY    HA323716   4.207   6.548   3.512 -2.6903 -3.0288  0.4560
  949THY    CA423717   4.183   6.721   3.635 -0.4186  0.0313  0.4946
  949THY    HA423718   4.290   6.737   3.641 -0.2911 -0.4019 -0.4518
  949THY    CA523719   4.098   6.805   3.715  0.6779 -0.0129  0.7949
  949THY    CM123720   4.157   6.914   3.804 -0.1134  0.2280  0.3695
  949THY    HM123721   4.262   6.941   3.789  1.0608 -3.6898  0.4804
  949THY    HM223722   4.088   6.999   3.800 -0.5038 -0.0847  0.4044
  949THY    HM323723   4.165   6.873   3.905  0.1260  2.1931  1.1881
  949THY    CA623724   3.962   6.776   3.721  0.4569 -0.4267  0.5209
  949THY    HA623725   3.900   6.850   3.771  2.0829  0.9148  0.5992
  950THY      O23726   3.158   2.737   0.773 -0.6922  0.9990  0.2288
  950THY     HO23727   3.117   2.703   0.854  0.2835  1.5918  0.9872
  950THY    CA123728   3.290   2.716   0.799 -0.1504  0.0722  0.1847
  950THY    CA223729   3.388   2.706   0.697  0.7832 -0.7417  0.1771
  950THY    CP123730   3.351   2.693   0.552  0.8157 -0.5089 -0.2563
  950THY    HP123731   3.255   2.640   0.546  0.4442 -0.1748  2.0586
  950THY    CP223732   3.317   2.834   0.498  0.4056 -0.2576 -0.1296
  950THY    HP223733   3.279   2.822   0.396  1.1623 -0.9735 -0.3362
  950THY    HP323734   3.240   2.884   0.559  0.2053  0.4946 -0.9566
  950THY    HP423735   3.405   2.897   0.515  1.3846 -1.9896  1.6137
  950THY    CP323736   3.439   2.618   0.457  0.3879 -0.2264  0.4066
  950THY    HP523737   3.502   2.545   0.509  0.0969 -1.4563 -0.9020
  950THY    HP623738   3.385   2.559   0.382  1.5849  0.5770 -1.1718
  950THY    HP723739   3.508   2.689   0.409 -0.1246  0.0988  0.1529
  950THY    CA323740   3.518   2.706   0.723 -0.0607 -0.0289 -0.2119
  950THY    HA323741   3.588   2.695   0.641  0.6465 -1.0837  0.5085
  950THY    CA423742   3.566   2.701   0.856 -0.8373 -0.6010 -0.2896
  950THY    HA423743   3.673   2.699   0.871 -0.5416  1.4850 -1.6851
  950THY    CA523744   3.470   2.721   0.960 -1.2154 -0.3173 -0.6763
  950THY    CM123745   3.515   2.733   1.105 -0.5823 -0.6747  0.6378
  950THY    HM123746   3.453   2.670   1.171  0.6989  0.6162  3.2310
  950THY    HM223747   3.618   2.698   1.118 -0.9044 -2.1987 -0.5799
  950THY    HM323748   3.493   2.830   1.152  1.3018 -0.6679  1.6000
  950THY    CA623749   3.333   2.727   0.933 -0.2966 -0.3240  0.2109
  950THY    HA623750   3.262   2.768   1.005  0.3989  0.4352  0.4817
  951THY      O23751   7.787   3.404   5.493  0.2978 -0.1010  0.4455
  951THY     HO23752   7.714   3.467   5.482 -0.0239 -0.7564 -1.5812
  951THY    CA123753   7.714   3.294   5.536 -0.3143 -0.2977 -0.1171
  951THY    CA223754   7.766   3.163   5.553 -0.5852  1.0226  0.5730
  951THY    CP123755   7.910   3.115   5.514  0.0802 -0.2635 -1.1365
  951THY    HP123756   7.964   3.205   5.481  1.2299 -0.5382 -0.0895
  951THY    CP223757   7.985   3.083   5.646  0.4447  0.1245  0.4977
  951THY    HP223758   7.945   2.990   5.687 -0.4018 -0.4474 -1.5097
  951THY    HP323759   8.091   3.065   5.620  0.7244  0.5717  1.3128
  951THY    HP423760   7.975   3.166   5.716  2.5773 -0.0481  1.0784
  951THY    CP323761   7.913   3.006   5.408  0.2974  0.3208  0.2950
  951THY    HP523762   7.851   3.028   5.321  0.3991 -1.7885 -0.3891
  951THY    HP623763   8.011   2.990   5.361 -0.0140 -1.5410  0.1991
  951THY    HP723764   7.872   2.912   5.447  0.1633 -0.1116 -0.8321
  951THY    CA323765   7.679   3.065   5.595  1.0490 -0.2587  0.0304
  951THY    HA323766   7.713   2.962   5.598  1.2171 -0.1808  1.2542
  951THY    CA423767   7.546   3.102   5.650 -0.7086  0.0383 -0.7280
  951THY    HA423768   7.487   3.027   5.703  1.5401  0.8448  3.3816
  951THY    CA523769   7.504   3.229   5.649  0.0428  0.4124 -0.3335
  951THY    CM123770   7.370   3.262   5.730 -0.2635 -0.0899  1.0326
  951THY    HM123771   7.339   3.366   5.713 -0.0098 -0.3445 -1.4685
  951THY    HM223772   7.290   3.189   5.710 -1.4317  0.8789  2.0073
  951THY    HM323773   7.396   3.255   5.836  2.2857  2.6056  0.6959
  951THY    CA623774   7.590   3.325   5.590  0.2630  0.2309 -0.1983
  951THY    HA623775   7.559   3.429   5.597  2.0194  0.9534 -2.1816
  952THY      O23776   9.131   8.034   2.936  0.7458  0.1745  0.3613
  952THY     HO23777   9.065   7.980   2.984 -0.7094  1.8766  0.3541
  952THY    CA123778   9.244   8.017   3.004 -0.0759  0.3232 -0.0340
  952THY    CA223779   9.379   8.045   2.952  0.6703  0.5419 -0.7184
  952THY    CP123780   9.400   8.086   2.809  0.1829  0.4363 -0.1560
  952THY    HP123781   9.308   8.129   2.767 -0.7190 -0.4754  0.8527
  952THY    CP223782   9.492   8.206   2.800 -0.3658 -0.0361  0.2634
  952THY    HP223783   9.596   8.173   2.791 -0.4926 -1.1610  2.5257
  952THY    HP323784   9.464   8.266   2.712  1.4064  0.0643 -0.2794
  952THY    HP423785   9.466   8.259   2.892 -2.7904 -1.7301  0.6475
  952THY    CP323786   9.449   7.968   2.730  0.3395 -0.0109 -0.6498
  952THY    HP523787   9.536   7.925   2.781  0.2087 -0.2451 -0.6231
  952THY    HP623788   9.366   7.898   2.715 -0.5842  0.5426  1.4908
  952THY    HP723789   9.480   7.996   2.629  0.1609 -0.8281 -0.9413
  952THY    CA323790   9.490   8.001   3.025 -0.5864 -0.3143 -0.3373
  952THY    HA323791   9.590   8.017   2.983  0.0538 -0.8419  0.9439
  952THY    CA423792   9.470   7.948   3.149 -0.1259 -0.0461 -0.2332
  952THY    HA423793   9.555   7.925   3.213  0.5729  0.9574 -0.7569
  952THY    CA523794   9.344   7.931   3.204  0.4285 -0.3123 -0.1721
  952THY    CM123795   9.334   7.872   3.344  1.1907  0.3376  0.0711
  952THY    HM123796   9.371   7.931   3.429 -1.8006  3.3090 -0.4615
  952THY    HM223797   9.232   7.847   3.376  0.2825 -0.0047 -2.7892
  952THY    HM323798   9.381   7.774   3.341 -0.7023 -0.7892  2.9282
  952THY    CA623799   9.232   7.960   3.129  0.0605 -0.1921  0.2780
  952THY    HA623800   9.134   7.944   3.173  0.6896 -0.1263  1.7697
  953THY      O23801   1.857   4.182   5.931 -0.1754 -0.0166 -0.2868
  953THY     HO23802   1.796   4.219   5.866 -0.3495  1.0774  0.4519
  953THY    CA123803   1.982   4.181   5.880 -0.3488  0.4813 -0.4772
  953THY    CA223804   2.090   4.158   5.964  0.4653  0.2693 -0.0196
  953THY    CP123805   2.088   4.150   6.120 -0.8434  0.6343 -0.2690
  953THY    HP123806   1.981   4.148   6.145 -0.5849 -0.7189  0.8198
  953THY    CP223807   2.166   4.043   6.192 -0.3926  0.5666 -0.1504
  953THY    HP223808   2.146   4.051   6.300 -2.2010  1.6306 -0.5347
  953THY    HP323809   2.137   3.943   6.157 -2.9398  0.9586  0.6781
  953THY    HP423810   2.275   4.052   6.179 -0.6655  1.0615 -2.6367
  953THY    CP323811   2.143   4.279   6.182  0.1659 -0.3905 -0.4217
  953THY    HP523812   2.123   4.270   6.289  1.2053  2.1343  0.0723
  953THY    HP623813   2.252   4.291   6.176  0.2370 -0.4995  0.4676
  953THY    HP723814   2.104   4.370   6.134  2.9104  0.3886 -1.3990
  953THY    CA323815   2.215   4.159   5.897 -0.1240  0.0086 -0.0585
  953THY    HA323816   2.305   4.155   5.958 -1.3445 -4.9097  1.8983
  953THY    CA423817   2.226   4.182   5.758  0.1013 -0.9034 -0.4648
  953THY    HA423818   2.325   4.179   5.713 -0.9219 -0.0914 -2.9485
  953THY    CA523819   2.113   4.202   5.674  0.0177  0.4622 -0.7206
  953THY    CM123820   2.113   4.235   5.531 -0.6694 -0.0416 -0.2209
  953THY    HM123821   2.016   4.239   5.480  0.0008  1.6696 -1.4533
  953THY    HM223822   2.168   4.330   5.529  1.5392 -1.2390 -0.3166
  953THY    HM323823   2.166   4.159   5.472 -0.4565 -2.4145  2.8249
  953THY    CA623824   1.986   4.195   5.739  0.3303 -0.3325 -0.1721
  953THY    HA623825   1.897   4.201   5.677 -0.4889  2.2187  1.1193
  954THY      O23826   8.336   0.083   1.950  0.5706  0.7119  0.1715
  954THY     HO23827   8.241   0.064   1.954  0.3864  1.7129  1.2894
  954THY    CA123828   8.404   0.013   2.038 -0.2384  0.7204 -0.0778
  954THY    CA223829   8.533  -0.039   2.010 -0.0899 -0.0855 -0.3904
  954THY    CP123830   8.604   0.002   1.881 -0.1128  0.5145 -0.7242
  954THY    HP123831   8.528   0.023   1.806 -3.3373 -0.7413  1.9529
  954THY    CP223832   8.682   0.134   1.896 -0.0416  0.2967 -0.0124
  954THY    HP223833   8.770   0.110   1.956 -0.6875  0.2849  0.9422
  954THY    HP323834   8.719   0.172   1.800  0.9628  2.6869  1.2433
  954THY    HP423835   8.622   0.209   1.949  0.0712 -1.7495  3.2195
  954THY    CP323836   8.690  -0.109   1.822  0.7457  0.0997  0.1623
  954THY    HP523837   8.768  -0.137   1.893 -0.9759 -2.0261  1.3374
  954THY    HP623838   8.630  -0.194   1.788  0.1622  0.7474 -0.4828
  954THY    HP723839   8.735  -0.076   1.727 -2.7265 -1.4575 -2.2640
  954THY    CA323840   8.596  -0.108   2.122  0.0741  0.0824  0.4553
  954THY    HA323841   8.699  -0.139   2.137 -0.2986  0.2018  3.8068
  954THY    CA423842   8.518  -0.137   2.240 -0.3645  0.2587  0.3424
  954THY    HA423843   8.568  -0.191   2.319  0.1158 -1.8461 -1.3071
  954THY    CA523844   8.393  -0.086   2.259 -0.5791 -0.5976 -0.3201
  954THY    CM123845   8.319  -0.121   2.384 -0.2833  0.0979  0.1637
  954THY    HM123846   8.304  -0.229   2.387  0.8581 -0.1057 -0.7351
  954THY    HM223847   8.371  -0.097   2.477  0.9552 -0.2341 -0.4286
  954THY    HM323848   8.221  -0.070   2.382 -0.1967  0.3233  1.1241
  954THY    CA623849   8.345   0.002   2.157 -0.7615 -0.8276 -0.2362
  954THY    HA623850   8.252   0.055   2.172 -0.7857 -1.0009  0.2546
  955THY      O23851   3.019   4.916   9.458  0.4939 -0.0641  0.0167
  955THY     HO23852   3.115   4.926   9.455  0.6036 -0.7450  0.7672
  955THY    CA123853   3.007   4.779   9.462  0.3352 -0.3110 -0.3074
  955THY    CA223854   2.898   4.707   9.517  0.7553 -0.5626 -0.2231
  955THY    CP123855   2.793   4.790   9.589  0.1963  0.7752  0.2297
  955THY    HP123856   2.795   4.891   9.547 -2.4896  0.0844 -1.8332
  955THY    CP223857   2.654   4.738   9.557 -0.0749  0.6552 -0.3532
  955THY    HP223858   2.642   4.719   9.449  1.0011  3.2530 -1.0099
  955THY    HP323859   2.640   4.639   9.601 -1.7411  0.2929 -1.5994
  955THY    HP423860   2.580   4.810   9.595 -0.3384  0.0510  0.2832
  955THY    CP323861   2.825   4.791   9.735 -0.1334  0.8498 -0.4178
  955THY    HP523862   2.918   4.844   9.759 -0.6813  0.8910  1.9124
  955THY    HP623863   2.739   4.835   9.786 -1.1360  1.1140 -2.2615
  955THY    HP723864   2.835   4.691   9.779  2.1965  1.5442  0.8266
  955THY    CA323865   2.901   4.568   9.520 -0.2876  0.0983 -0.4806
  955THY    HA323866   2.826   4.515   9.579  0.9351 -1.5072 -0.2837
  955THY    CA423867   3.008   4.504   9.458 -0.1559  0.5695 -0.1503
  955THY    HA423868   3.013   4.397   9.472 -2.2863  0.3612 -0.5534
  955THY    CA523869   3.102   4.570   9.387 -0.1705  0.0174  0.9686
  955THY    CM123870   3.219   4.491   9.328 -0.2302 -0.1862 -0.0765
  955THY    HM123871   3.183   4.417   9.256  0.3297 -1.2428  0.7001
  955THY    HM223872   3.295   4.553   9.278  2.4038 -2.1713  1.2104
  955THY    HM323873   3.271   4.436   9.407  0.1051 -0.1923 -0.2980
  955THY    CA623874   3.094   4.711   9.381  0.8428 -0.2016 -0.3529
  955THY    HA623875   3.167   4.774   9.330 -1.8603  2.3701 -1.3314
  956THY      O23876   0.510   8.776   8.884 -0.4793  0.6355  0.6027
  956THY     HO23877   0.558   8.858   8.862 -0.1039  0.4741  0.8167
  956THY    CA123878   0.595   8.674   8.868  0.2250 -0.8166  0.4030
  956THY    CA223879   0.557   8.543   8.863 -0.0789 -0.1974  0.3133
  956THY    CP123880   0.410   8.501   8.880 -0.4240 -0.4961 -0.5536
  956THY    HP123881   0.351   8.579   8.829 -2.3501 -0.2354  1.9121
  956THY    CP223882   0.364   8.374   8.812  0.2152  0.9308  0.0275
  956THY    HP223883   0.368   8.392   8.704 -0.7120  1.3910  0.0621
  956THY    HP323884   0.428   8.288   8.834 -0.7204  0.1793 -0.1279
  956THY    HP423885   0.262   8.340   8.834  1.3395 -3.0047 -0.0119
  956THY    CP323886   0.379   8.487   9.027 -1.3134  0.1706  0.6398
  956THY    HP523887   0.457   8.421   9.066 -0.8026  0.8536  0.7957
  956THY    HP623888   0.395   8.582   9.079  1.1050 -0.1406  0.5979
  956THY    HP723889   0.275   8.456   9.043 -0.8698 -2.4358 -0.9537
  956THY    CA323890   0.652   8.448   8.831  0.6375  0.6133 -0.4049
  956THY    HA323891   0.632   8.341   8.824 -1.1679  0.8845  0.1245
  956THY    CA423892   0.787   8.478   8.816  0.0193 -0.2536  0.8654
  956THY    HA423893   0.859   8.407   8.776  1.4251  0.1368  2.5265
  956THY    CA523894   0.825   8.613   8.824  0.2414 -0.4499 -0.2540
  956THY    CM123895   0.967   8.654   8.798  0.1048  0.0065  1.3688
  956THY    HM123896   0.992   8.609   8.701 -3.0706  1.4984 -0.2856
  956THY    HM223897   0.973   8.763   8.790 -1.1514 -0.0046 -0.4476
  956THY    HM323898   1.034   8.623   8.879  1.2898 -0.1353  0.3762
  956THY    CA623899   0.730   8.710   8.844  0.1605  0.1672 -0.1109
  956THY    HA623900   0.756   8.815   8.858  1.1449 -0.2639  1.6016
  957THY      O23901   9.427   1.460   6.248  0.3022  0.1638  0.8414
  957THY     HO23902   9.495   1.487   6.184  1.5242 -1.8899  1.1997
  957THY    CA123903   9.487   1.365   6.318 -0.4898  0.7544  0.0161
  957THY    CA223904   9.435   1.309   6.438 -0.2249 -0.2820 -0.1018
  957THY    CP123905   9.297   1.362   6.489  0.1518 -0.0585  0.3153
  957THY    HP123906   9.282   1.465   6.453  3.1711  0.8454  1.3850
  957THY    CP223907   9.184   1.274   6.425  0.2366  0.6408 -0.5230
  957THY    HP223908   9.184   1.178   6.477 -0.3476  0.8328 -0.1577
  957THY    HP323909   9.086   1.318   6.445 -0.2421 -0.4030 -0.5276
  957THY    HP423910   9.192   1.264   6.316  3.9283 -0.3845 -0.2809
  957THY    CP323911   9.288   1.365   6.644  0.3103 -0.1687 -0.6040
  957THY    HP523912   9.378   1.401   6.694  1.3708 -2.4223 -0.7535
  957THY    HP623913   9.201   1.422   6.678  0.3577 -1.2071  1.3718
  957THY    HP723914   9.275   1.262   6.679 -0.2668 -0.2779 -1.1200
  957THY    CA323915   9.512   1.216   6.509 -0.1261 -0.3208 -0.1293
  957THY    HA323916   9.464   1.171   6.595 -2.9758 -1.5878 -2.2298
  957THY    CA423917   9.637   1.170   6.450  0.1258 -0.3638  0.0078
  957THY    HA423918   9.698   1.093   6.497  0.9029 -1.1551 -2.1938
  957THY    CA523919   9.684   1.219   6.328 -0.4474 -0.0024 -0.5721
  957THY    CM123920   9.811   1.169   6.272  0.1302  0.3422 -0.5483
  957THY    HM123921   9.807   1.061   6.254 -0.3770 -0.2361  2.5091
  957THY    HM223922   9.816   1.226   6.179 -1.0506  2.4682  0.5987
  957THY    HM323923   9.893   1.194   6.342 -1.0126  0.1922  0.8911
  957THY    CA623924   9.614   1.320   6.268 -0.0792 -0.1823 -0.1545
  957THY    HA623925   9.645   1.354   6.170 -0.6479  2.3964  0.4882
  958THY      O23926   4.999   9.383   2.796  0.1929 -0.3316  0.0218
  958THY     HO23927   4.968   9.320   2.729 -1.1005  0.2511  0.0517
  958THY    CA123928   4.899   9.418   2.879 -0.5613 -0.3764 -0.6456
  958THY    CA223929   4.922   9.436   3.023 -0.3070  0.8318  0.4054
  958THY    CP123930   5.058   9.429   3.079  0.5810 -0.5927  0.6466
  958THY    HP123931   5.131   9.444   2.998 -0.4257 -0.2948 -0.2302
  958THY    CP223932   5.093   9.533   3.181 -0.0294 -0.3763  0.3661
  958THY    HP223933   5.196   9.533   3.218 -0.4017  1.4139  1.5386
  958THY    HP323934   5.076   9.632   3.138 -1.2003 -1.1209 -0.9766
  958THY    HP423935   5.027   9.516   3.268  1.6686 -0.9603  1.5901
  958THY    CP323936   5.085   9.291   3.122 -0.0479  0.0510 -0.0377
  958THY    HP523937   5.092   9.226   3.034  0.6720 -0.8935  0.6824
  958THY    HP623938   5.186   9.287   3.166  0.3321  1.1845 -0.7625
  958THY    HP723939   5.014   9.257   3.198 -1.3411  0.1622 -1.1555
  958THY    CA323940   4.800   9.452   3.092  0.3040  0.5218 -0.0503
  958THY    HA323941   4.804   9.444   3.200  1.8362 -2.9152 -0.2240
  958THY    CA423942   4.672   9.455   3.035  0.1520 -0.0298  0.2135
  958THY    HA423943   4.583   9.482   3.090 -0.4585  0.1188 -0.8222
  958THY    CA523944   4.661   9.442   2.900  0.0320  0.0714  0.2375
  958THY    CM123945   4.528   9.470   2.829 -0.8972 -0.1832 -0.2063
  958THY    HM123946   4.453   9.399   2.865 -0.4793 -0.8674 -0.6818
  958THY    HM223947   4.507   9.573   2.860  4.0498  0.6397  1.3229
  958THY    HM323948   4.537   9.467   2.720 -1.0981  0.2077 -0.2355
  958THY    CA623949   4.775   9.425   2.823  0.1597  0.5895  0.6331
  958THY    HA623950   4.765   9.433   2.716  2.0592  2.2995  0.5257
  959THY      O23951   5.705   4.768   9.256 -0.0226  0.2433  0.3313
  959THY     HO23952   5.723   4.747   9.350 -0.2780 -2.0022 -0.0858
  959THY    CA123953   5.785   4.695   9.184 -0.7180 -0.3654  0.0905
  959THY    CA223954   5.858   4.735   9.062  0.4899  0.2437 -0.0054
  959THY    CP123955   5.859   4.884   9.013 -0.2773  0.1054 -0.4874
  959THY    HP123956   5.825   4.946   9.096  0.4594  0.9899 -0.8401
  959THY    CP223957   5.996   4.940   8.975 -0.0793  0.0161  0.0278
  959THY    HP223958   6.007   5.045   9.004  0.9348 -0.1271  0.1818
  959THY    HP323959   6.067   4.890   9.042  0.1629  0.0937 -0.1722
  959THY    HP423960   6.028   4.931   8.871  2.0130 -0.6888  0.6746
  959THY    CP323961   5.767   4.900   8.898 -0.1895 -0.1281 -0.4416
  959THY    HP523962   5.784   4.999   8.853  0.4272 -0.4614 -0.9771
  959THY    HP623963   5.785   4.836   8.811  1.0235 -1.0252  0.4313
  959THY    HP723964   5.666   4.888   8.938 -0.4846  1.2053 -0.7519
  959THY    CA323965   5.934   4.647   8.988  0.4112  0.3968  0.7402
  959THY    HA323966   5.987   4.680   8.899  0.6163 -1.7718  0.0009
  959THY    CA423967   5.955   4.519   9.043 -0.0780 -0.0437  0.3320
  959THY    HA423968   6.021   4.450   8.992  0.1108  0.5734 -0.2649
  959THY    CA523969   5.895   4.482   9.163  0.2553 -0.5428  0.2988
  959THY    CM123970   5.925   4.355   9.225 -0.9882  0.4377 -0.2360
  959THY    HM123971   6.032   4.355   9.249  0.2005 -1.4310 -4.6622
  959THY    HM223972   5.880   4.351   9.326 -2.5577 -1.0132 -0.9424
  959THY    HM323973   5.891   4.269   9.167  1.1186 -1.5057  1.2315
  959THY    CA623974   5.804   4.570   9.233  0.0383  0.3979 -0.0702
  959THY    HA623975   5.751   4.541   9.323  0.3026  0.4116  0.0897
  960THY      O23976   6.374   8.691   7.036  0.6908  0.3240  0.4565
  960THY     HO23977   6.305   8.716   6.973  1.3545 -0.9726 -0.8740
  960THY    CA123978   6.456   8.627   6.955  0.3914  0.1853  0.4036
  960THY    CA223979   6.554   8.537   7.010  0.2745  0.2697  1.1766
  960THY    CP123980   6.583   8.525   7.156 -0.0394  0.4131 -0.7231
  960THY    HP123981   6.553   8.619   7.205  0.9590  0.5869 -0.4331
  960THY    CP223982   6.498   8.411   7.222 -0.8612 -0.2206 -0.3664
  960THY    HP223983   6.512   8.316   7.169 -1.5952  0.4772 -1.8717
  960THY    HP323984   6.517   8.391   7.328 -1.1536 -0.7629 -0.4178
  960THY    HP423985   6.392   8.426   7.200 -0.6181  3.6999  0.3875
  960THY    CP323986   6.728   8.506   7.189 -0.0635 -0.3357 -0.5931
  960THY    HP523987   6.767   8.406   7.169 -0.2465 -0.0324 -2.6466
  960THY    HP623988   6.796   8.577   7.141  1.6391  0.4908  2.6993
  960THY    HP723989   6.739   8.524   7.297 -0.0741 -0.9556 -0.4858
  960THY    CA323990   6.626   8.467   6.912 -0.1114  0.5675 -0.9246
  960THY    HA323991   6.701   8.396   6.946 -0.0445  1.4372  0.9036
  960THY    CA423992   6.604   8.476   6.777  0.5216  0.5986  0.0020
  960THY    HA423993   6.674   8.424   6.712 -0.2289 -0.1914 -0.2029
  960THY    CA523994   6.501   8.567   6.728  0.6761  0.0747  0.1481
  960THY    CM123995   6.472   8.589   6.574 -0.1977 -0.6685 -0.4056
  960THY    HM123996   6.538   8.671   6.542 -1.5838  0.6747  0.0583
  960THY    HM223997   6.493   8.502   6.511  3.2660 -0.7235  0.6035
  960THY    HM323998   6.368   8.621   6.558  0.9085  1.5676 -4.7413
  960THY    CA623999   6.425   8.638   6.822 -0.1504  0.0376 -0.0382
  960THY    HA624000   6.346   8.702   6.785 -1.4021  0.3556  2.9120
  961THY      O24001   1.748   7.419   1.314 -0.2714 -0.1675  0.5994
  961THY     HO24002   1.759   7.444   1.407  1.6331 -0.0849  0.3958
  961THY    CA124003   1.796   7.529   1.249  0.0416  0.3742  0.1825
  961THY    CA224004   1.856   7.523   1.118  0.0123 -0.1932 -0.4371
  961THY    CP124005   1.855   7.389   1.033  0.0661 -0.6351 -0.0789
  961THY    HP124006   1.775   7.327   1.077  0.3435  0.5094  2.1986
  961THY    CP224007   1.799   7.418   0.884 -0.3605  0.7006 -0.4166
  961THY    HP224008   1.781   7.320   0.840 -0.9786  0.5732  0.1047
  961THY    HP324009   1.707   7.478   0.883 -1.1683 -0.4694  1.0176
  961THY    HP424010   1.882   7.449   0.819 -0.3252 -0.6334 -1.0234
  961THY    CP324011   1.988   7.312   1.034 -0.1720  0.1685 -0.2405
  961THY    HP524012   2.061   7.363   0.971 -0.1189  0.7222  0.2599
  961THY    HP624013   2.018   7.325   1.138 -1.9455 -0.2693  0.3712
  961THY    HP724014   1.975   7.205   1.014 -0.1544  0.4928 -2.1245
  961THY    CA324015   1.897   7.646   1.062  0.5189 -0.3277 -0.1288
  961THY    HA324016   1.928   7.642   0.958 -0.5928  1.7973 -0.5935
  961THY    CA424017   1.868   7.769   1.120 -0.2432 -0.7858  0.4594
  961THY    HA424018   1.892   7.864   1.072 -0.1469 -1.6302 -1.2543
  961THY    CA524019   1.811   7.771   1.249  0.3014 -0.4487  0.4671
  961THY    CM124020   1.793   7.896   1.325 -0.1056 -0.5473  0.4227
  961THY    HM124021   1.859   7.972   1.282 -0.0524 -0.6866  0.2574
  961THY    HM224022   1.690   7.933   1.326  0.4850  1.2040  0.0438
  961THY    HM324023   1.827   7.894   1.430  3.7547  0.4550 -0.6733
  961THY    CA624024   1.775   7.649   1.309  0.1154 -0.6270 -1.1822
  961THY    HA624025   1.743   7.662   1.412  1.5055  1.0879 -0.9266
  962THY      O24026   0.625   9.595   2.013 -0.7703 -0.0941  0.8474
  962THY     HO24027   0.607   9.685   1.981 -0.5872  0.4095  2.0890
  962THY    CA124028   0.534   9.516   1.955 -0.4288 -0.5616  0.2119
  962THY    CA224029   0.578   9.407   1.877  0.8947 -0.5596  0.4027
  962THY    CP124030   0.728   9.381   1.860  0.2049 -0.0202 -0.1162
  962THY    HP124031   0.791   9.436   1.931 -1.1564 -0.3546  1.4210
  962THY    CP224032   0.750   9.229   1.892  0.4043 -0.2367 -0.0539
  962THY    HP224033   0.715   9.194   1.989 -0.2256  0.7353  0.0838
  962THY    HP324034   0.681   9.169   1.832 -2.4188  1.4526  1.2990
  962THY    HP424035   0.854   9.200   1.872  0.3401 -1.6191  1.4810
  962THY    CP324036   0.779   9.418   1.725 -0.2803 -0.5440  1.0622
  962THY    HP524037   0.797   9.526   1.720  0.7484 -0.6912  1.3834
  962THY    HP624038   0.874   9.367   1.707 -0.4938 -0.2889 -1.0723
  962THY    HP724039   0.708   9.381   1.650 -0.8612  3.3226 -0.5227
  962THY    CA324040   0.471   9.341   1.802 -0.4279  0.0420 -0.1903
  962THY    HA324041   0.497   9.258   1.736 -1.3887 -0.5733  0.1880
  962THY    CA424042   0.340   9.357   1.833  0.8798 -0.5609 -0.4755
  962THY    HA424043   0.261   9.298   1.787 -1.0912  1.7159 -0.2358
  962THY    CA524044   0.299   9.462   1.915 -0.3532 -0.3889 -0.3146
  962THY    CM124045   0.155   9.496   1.929 -0.8140 -0.2013 -0.9237
  962THY    HM124046   0.120   9.540   1.835 -1.9392 -1.2889 -1.0493
  962THY    HM224047   0.098   9.404   1.946 -1.9144  0.3304 -1.6108
  962THY    HM324048   0.132   9.559   2.016 -1.0040  0.6825 -1.5986
  962THY    CA624049   0.399   9.547   1.971 -0.1613 -0.3376 -0.3320
  962THY    HA624050   0.378   9.640   2.022 -3.2990 -0.3199 -1.4218
  963THY      O24051   3.246   4.216   4.554 -0.5679  0.5065 -0.0502
  963THY     HO24052   3.209   4.244   4.469  1.5009  1.5610 -0.6691
  963THY    CA124053   3.157   4.270   4.638  0.0339  0.3673 -0.1787
  963THY    CA224054   3.191   4.292   4.765 -0.2926 -0.9275 -0.7141
  963THY    CP124055   3.328   4.249   4.821  0.7061 -0.3784  0.4533
  963THY    HP124056   3.359   4.164   4.758  2.1053  2.4188 -2.9550
  963THY    CP224057   3.425   4.360   4.804  0.1271 -0.0749  0.2755
  963THY    HP224058   3.383   4.460   4.803  1.3213  0.4500 -0.7600
  963THY    HP324059   3.502   4.364   4.883  0.3106  0.0051  0.0944
  963THY    HP424060   3.479   4.353   4.709 -0.4758  0.7928 -0.1353
  963THY    CP324061   3.326   4.201   4.965  0.2088  0.4805 -0.1891
  963THY    HP524062   3.348   4.288   5.028 -0.3122  1.0296 -0.7485
  963THY    HP624063   3.237   4.152   5.005  1.2577 -0.3400  1.2206
  963THY    HP724064   3.408   4.133   4.990  0.2226  1.3835  2.5535
  963THY    CA324065   3.090   4.339   4.853  0.0376  0.8404 -0.1978
  963THY    HA324066   3.114   4.337   4.959  0.3894  1.8033 -0.2510
  963THY    CA424067   2.974   4.386   4.803  0.8249  0.2665  0.0952
  963THY    HA424068   2.904   4.429   4.875  2.3220 -0.2487  1.9334
  963THY    CA524069   2.953   4.392   4.667 -0.8531  0.3032 -0.1626
  963THY    CM124070   2.831   4.461   4.596  0.1396  0.1526  0.2298
  963THY    HM124071   2.849   4.469   4.488 -2.3246  3.3739 -0.1207
  963THY    HM224072   2.741   4.399   4.608 -0.9710  1.9606  1.9677
  963THY    HM324073   2.799   4.558   4.636  1.0820  0.7527 -0.4276
  963THY    CA624074   3.046   4.335   4.588  0.0934  0.2342  0.4753
  963THY    HA624075   3.023   4.329   4.482 -0.8119  0.8405  0.6325
  964THY      O24076   2.098   3.517   8.373  0.3559 -0.0028  0.6900
  964THY     HO24077   2.125   3.560   8.457  0.4707  3.6516 -1.0188
  964THY    CA124078   2.189   3.540   8.276  0.6308  0.5560  0.4533
  964THY    CA224079   2.148   3.578   8.146 -0.2021 -0.1115  0.3918
  964THY    CP124080   2.004   3.606   8.121  1.4322  0.4439  0.5437
  964THY    HP124081   1.931   3.555   8.184 -0.5691  2.2979 -0.1859
  964THY    CP224082   1.962   3.749   8.151  0.1187  0.1107  0.1857
  964THY    HP224083   1.852   3.755   8.151  0.1527  1.1426  1.6009
  964THY    HP324084   2.000   3.780   8.249 -0.2824 -3.2210  1.5246
  964THY    HP424085   1.998   3.824   8.079 -2.8283  0.3319 -1.2089
  964THY    CP324086   1.959   3.556   7.985  0.3322  0.4884 -0.3714
  964THY    HP524087   2.020   3.581   7.898  0.6289 -0.6165 -0.5008
  964THY    HP624088   1.978   3.449   7.994  4.0250  1.1743  2.0559
  964THY    HP724089   1.853   3.575   7.964  0.0038  1.3759  1.7357
  964THY    CA324090   2.252   3.604   8.054  0.5213 -0.0251  0.1573
  964THY    HA324091   2.216   3.649   7.962 -0.8128 -0.5473  0.3970
  964THY    CA424092   2.391   3.594   8.090 -0.6746  0.5303  0.1939
  964THY    HA424093   2.469   3.619   8.018 -2.8453  0.7254 -2.2526
  964THY    CA524094   2.415   3.545   8.219 -0.3898  0.0200  0.5141
  964THY    CM124095   2.561   3.526   8.261 -0.0475 -0.8306 -0.2635
  964THY    HM124096   2.588   3.424   8.291  3.6940  0.1234  0.1165
  964THY    HM224097   2.633   3.531   8.179 -0.5657  0.5889 -0.6685
  964THY    HM324098   2.590   3.601   8.336 -0.9347 -0.9535  0.2175
  964THY    CA624099   2.312   3.512   8.306 -0.1149  0.0486 -0.1655
  964THY    HA624100   2.337   3.466   8.400  0.3810  0.2406 -0.2005
  965THY      O24101   8.804   4.544   2.077  0.1348 -0.1897  0.4500
  965THY     HO24102   8.749   4.613   2.118 -0.2725 -1.5631  2.3138
  965THY    CA124103   8.717   4.468   2.005  0.3349  0.5607  0.0678
  965THY    CA224104   8.770   4.377   1.914 -0.3583 -0.2542 -0.2163
  965THY    CP124105   8.919   4.351   1.893 -0.2698 -1.0208  0.3166
  965THY    HP124106   8.979   4.437   1.926  3.0822 -2.8564 -0.5821
  965THY    CP224107   8.972   4.238   1.968 -0.8199  0.1724  0.2591
  965THY    HP224108   8.918   4.148   1.935  0.3767 -0.1693 -0.8377
  965THY    HP324109   9.072   4.210   1.931 -0.1574  1.1985  1.2108
  965THY    HP424110   8.971   4.251   2.077 -2.1405 -0.2171  0.3052
  965THY    CP324111   8.950   4.340   1.739 -0.0064 -0.7592 -0.0015
  965THY    HP524112   8.940   4.234   1.713  0.3790 -0.6691 -0.5302
  965THY    HP624113   8.876   4.400   1.685 -1.2611 -2.5130 -0.3170
  965THY    HP724114   9.050   4.383   1.723  0.2327 -0.3453  2.2678
  965THY    CA324115   8.679   4.288   1.854  0.3496  0.0597  0.1835
  965THY    HA324116   8.722   4.211   1.790  0.9778 -0.6384  1.3889
  965THY    CA424117   8.546   4.295   1.877 -0.2621 -0.5080 -1.0370
  965THY    HA424118   8.472   4.228   1.836  0.7532 -2.5748  0.3520
  965THY    CA524119   8.496   4.399   1.960  0.8620 -0.2679  1.3453
  965THY    CM124120   8.351   4.415   1.984 -0.6648  0.0192  0.7557
  965THY    HM124121   8.304   4.511   1.958 -0.9172  0.9441  4.1130
  965THY    HM224122   8.285   4.331   1.959 -0.1719  0.0822 -0.8360
  965THY    HM324123   8.350   4.404   2.094  0.5912  1.3269  0.9206
  965THY    CA624124   8.580   4.490   2.028 -0.0326 -0.5646 -0.0963
  965THY    HA624125   8.535   4.563   2.094 -0.9229 -1.9765  0.9263
  966THY      O24126   4.931   2.035   3.512 -0.3243 -0.5410  0.3013
  966THY     HO24127   4.853   2.045   3.454 -0.3068  1.3262  0.5473
  966THY    CA124128   5.017   2.131   3.464  0.8848  0.1032 -0.1722
  966THY    CA224129   5.093   2.221   3.550  0.3839  0.5546  0.5089
  966THY    CP124130   5.093   2.200   3.703 -0.2029 -0.8671 -0.2784
  966THY    HP124131   4.999   2.154   3.737 -0.7796  0.5340  0.1062
  966THY    CP224132   5.206   2.107   3.746  0.1219 -0.1130 -0.5604
  966THY    HP224133   5.167   2.009   3.716 -1.1317  0.2756 -0.2359
  966THY    HP324134   5.301   2.116   3.691 -0.0377  0.1065 -0.8008
  966THY    HP424135   5.220   2.118   3.855  0.2463 -1.0627 -0.4726
  966THY    CP324136   5.100   2.330   3.781  0.0443  0.4981 -0.3051
  966THY    HP524137   5.205   2.358   3.792  0.9953 -1.9435 -2.3382
  966THY    HP624138   5.045   2.415   3.739  0.1530 -0.3848 -2.3125
  966THY    HP724139   5.054   2.325   3.881 -2.5135  1.3240 -1.3505
  966THY    CA324140   5.172   2.325   3.496  0.8310 -0.6207 -0.5650
  966THY    HA324141   5.228   2.398   3.553 -0.6220 -0.7326  1.0791
  966THY    CA424142   5.176   2.330   3.355 -0.2639  0.6862 -0.4294
  966THY    HA424143   5.247   2.393   3.303 -0.8630  0.8529 -1.0545
  966THY    CA524144   5.105   2.248   3.274  0.5158  0.2666 -0.1878
  966THY    CM124145   5.112   2.269   3.127  0.2607  0.5212  0.2435
  966THY    HM124146   5.007   2.283   3.098  0.4797 -0.3925 -1.0962
  966THY    HM224147   5.155   2.361   3.087  0.2371  0.3076 -0.2705
  966THY    HM324148   5.142   2.181   3.069  0.3794 -0.1898  1.3507
  966THY    CA624149   5.019   2.159   3.327  0.0211  0.1470 -0.2277
  966THY    HA624150   4.962   2.092   3.263 -2.7262  1.0327  1.1314
  967THY      O24151   9.800   8.779   4.914 -0.3139  0.3328  0.4150
  967THY     HO24152   9.743   8.721   4.862 -1.0093  0.7529  0.6860
  967THY    CA124153   9.839   8.887   4.840  0.0976  0.1762  0.2306
  967THY    CA224154   9.932   8.981   4.886  0.6774  0.1532 -0.7169
  967THY    CP124155   9.986   8.961   5.034  0.3130 -0.4135  0.6841
  967THY    HP124156  10.003   8.854   5.054 -1.4450 -0.6126  1.2779
  967THY    CP224157  10.118   9.037   5.062  0.0975  0.1548  0.3890
  967THY    HP224158  10.091   9.143   5.071  0.4875  0.1331  2.5636
  967THY    HP324159  10.151   8.999   5.160  0.8535 -0.9499 -0.2726
  967THY    HP424160  10.199   9.013   4.992  0.6001  0.2430  0.9275
  967THY    CP324161   9.884   9.004   5.145 -0.0574  0.4736  0.5429
  967THY    HP524162   9.862   9.109   5.126 -0.4615  0.2032 -0.5880
  967THY    HP624163   9.793   8.943   5.136  2.2561 -2.9527 -2.4958
  967THY    HP724164   9.923   8.994   5.247 -0.2887  0.1049  0.5982
  967THY    CA324165   9.968   9.079   4.791  0.1384 -0.1715 -0.2492
  967THY    HA324166  10.044   9.153   4.814 -1.3742  1.8450 -1.4305
  967THY    CA424167   9.909   9.086   4.666 -0.0946  0.0450  0.1523
  967THY    HA424168   9.946   9.150   4.587  0.5196 -3.4706 -2.6484
  967THY    CA524169   9.801   8.996   4.632  0.2265 -0.7105  0.1756
  967THY    CM124170   9.748   9.009   4.493  0.6680  0.2679 -0.1475
  967THY    HM124171   9.759   8.915   4.438 -2.5431  0.6583 -1.6876
  967THY    HM224172   9.641   9.029   4.504  0.7762  2.7235 -2.3175
  967THY    HM324173   9.797   9.081   4.426  1.1798  0.9136  0.9037
  967THY    CA624174   9.769   8.894   4.718  0.5770 -0.0583  0.1650
  967THY    HA624175   9.683   8.831   4.698 -0.6475  0.8903  2.1615
  968THY      O24176   0.113   6.755   8.172  0.0210  0.4261  0.1264
  968THY     HO24177   0.028   6.722   8.138 -0.3929  2.7207 -1.2682
  968THY    CA124178   0.066   6.809   8.288 -0.2612  0.0659 -0.9323
  968THY    CA224179   0.118   6.765   8.412 -0.0766 -0.4848 -0.4510
  968THY    CP124180   0.221   6.657   8.429 -0.3839 -0.1827 -0.2762
  968THY    HP124181   0.293   6.693   8.355 -0.2452  3.6468  1.4884
  968THY    CP224182   0.295   6.667   8.560  0.2001 -0.7086  0.2563
  968THY    HP224183   0.343   6.764   8.580  1.0671 -1.4946  2.2982
  968THY    HP324184   0.238   6.656   8.652  0.6780 -1.6475  0.4518
  968THY    HP424185   0.378   6.595   8.561  0.2986 -0.6679  2.9575
  968THY    CP324186   0.176   6.522   8.399  0.0370  0.3142 -0.1553
  968THY    HP524187   0.080   6.499   8.446 -1.9897  0.2975 -3.9075
  968THY    HP624188   0.149   6.514   8.293 -2.6697 -1.2301  0.5447
  968THY    HP724189   0.253   6.449   8.427  1.7559  2.1638  0.1258
  968THY    CA324190   0.056   6.820   8.527  0.5219  0.0282 -0.1524
  968THY    HA324191   0.082   6.790   8.628  0.7787  1.2283  0.1660
  968THY    CA424192  -0.042   6.920   8.512 -0.5620  0.6375  0.0413
  968THY    HA424193  -0.093   6.974   8.591 -0.3836  0.0036  0.5926
  968THY    CA524194  -0.089   6.954   8.386  0.1140 -1.0763  0.0380
  968THY    CM124195  -0.205   7.050   8.368 -0.4553 -0.2907  0.2172
  968THY    HM124196  -0.299   6.994   8.367 -0.3511 -0.4941  0.9845
  968THY    HM224197  -0.200   7.117   8.455 -0.2444 -1.8797  1.4858
  968THY    HM324198  -0.189   7.117   8.283 -0.6466 -1.7378 -1.0131
  968THY    CA624199  -0.028   6.905   8.275 -0.1286 -0.2966  0.2077
  968THY    HA624200  -0.064   6.941   8.179 -0.0593  2.2486  1.0668
  969THY      O24201   0.360   0.936   2.433 -0.1231 -0.1814  0.4765
  969THY     HO24202   0.382   0.880   2.356  1.6806 -3.0404  2.8723
  969THY    CA124203   0.319   0.844   2.520  1.0457 -0.3762  0.2140
  969THY    CA224204   0.230   0.869   2.627 -0.4046 -0.6991  0.2538
  969THY    CP124205   0.174   1.006   2.650  0.0794 -0.3719 -0.2676
  969THY    HP124206   0.249   1.074   2.607  1.3788  0.6479  3.2413
  969THY    CP224207   0.035   1.026   2.594  0.4772  0.3660  0.5961
  969THY    HP224208   0.043   0.995   2.489 -1.0948  1.2038  0.1808
  969THY    HP324209  -0.034   0.951   2.633 -0.1392 -0.0881 -1.2603
  969THY    HP424210  -0.006   1.127   2.606 -1.7380 -0.2500 -1.0302
  969THY    CP324211   0.178   1.050   2.792  0.6334 -0.7621 -0.3638
  969THY    HP524212   0.199   1.157   2.801 -0.3237 -0.4865 -1.2270
  969THY    HP624213   0.086   1.038   2.851  0.2152 -1.3726 -1.1085
  969THY    HP724214   0.258   0.991   2.837 -1.1237 -2.4978  0.6701
  969THY    CA324215   0.179   0.758   2.694  0.2475  0.2956 -0.1987
  969THY    HA324216   0.111   0.776   2.776 -0.5822  0.2106 -0.8533
  969THY    CA424217   0.209   0.629   2.653  0.7711 -0.1556 -0.2285
  969THY    HA424218   0.157   0.546   2.701 -3.0547  2.2687  0.2257
  969THY    CA524219   0.302   0.606   2.552  0.7770 -0.6058 -0.7280
  969THY    CM124220   0.335   0.463   2.508  0.5364  0.0657 -0.2162
  969THY    HM124221   0.386   0.408   2.588 -0.3524 -1.6484 -0.7870
  969THY    HM224222   0.243   0.409   2.482 -1.2383  2.7313  0.0622
  969THY    HM324223   0.401   0.465   2.420  0.2145  0.3259 -0.4587
  969THY    CA624224   0.356   0.719   2.488  0.4129 -0.2499  0.0347
  969THY    HA624225   0.431   0.700   2.412 -0.9564  1.4558 -1.8479
  970THY      O24226   4.341   7.584   9.863 -0.2790 -0.2758 -0.3882
  970THY     HO24227   4.352   7.490   9.843 -3.3582 -0.9463  0.5920
  970THY    CA124228   4.299   7.589   9.995 -1.1373 -0.2724 -0.3602
  970THY    CA224229   4.237   7.699  10.052 -0.2888  0.2557  0.1331
  970THY    CP124230   4.212   7.822   9.965 -0.2182  0.3543  0.5110
  970THY    HP124231   4.286   7.822   9.884  1.2748  0.2412  1.8233
  970THY    CP224232   4.079   7.806   9.895  0.0937 -0.0557 -0.0697
  970THY    HP224233   4.056   7.894   9.834  0.4699  0.5033  0.5825
  970THY    HP324234   4.075   7.718   9.829 -2.1184  1.7100 -2.4791
  970THY    HP424235   4.001   7.802   9.972  1.1030 -2.3850  0.9198
  970THY    CP324236   4.234   7.949  10.039 -0.4572 -1.3510 -0.1417
  970THY    HP524237   4.193   8.039   9.990 -0.8164 -0.4199  1.7625
  970THY    HP624238   4.181   7.949  10.135 -0.9026 -1.0911 -0.3864
  970THY    HP724239   4.342   7.961  10.052 -0.2695 -0.8242 -1.8572
  970THY    CA324240   4.198   7.684  10.187  0.3816  0.6618  0.3430
  970THY    HA324241   4.151   7.770  10.234 -0.0585  0.9662 -0.6279
  970THY    CA424242   4.219   7.567  10.265  0.1930 -0.0597 -0.2911
  970THY    HA424243   4.187   7.560  10.369  0.4090 -3.0656 -0.3271
  970THY    CA524244   4.279   7.458  10.203 -0.7284 -0.3811 -0.0406
  970THY    CM124245   4.313   7.337  10.291 -0.4262  0.3796 -0.0837
  970THY    HM124246   4.402   7.285  10.253  0.4339  1.2231  0.7112
  970THY    HM224247   4.346   7.367  10.391 -1.7556  1.0738  0.1662
  970THY    HM324248   4.226   7.270  10.289  0.1486 -0.5075  1.6765
  970THY    CA624249   4.323   7.473  10.067  0.2888  0.2980 -0.1953
  970THY    HA624250   4.375   7.388  10.024  0.8425 -0.4399  1.8151
  971THY      O24251   0.404   9.876   1.155  0.0051  0.0395  0.2357
  971THY     HO24252   0.395   9.790   1.200  0.0028  0.0775  0.3073
  971THY    CA124253   0.297   9.871   1.075 -0.4261 -0.6175 -0.1472
  971THY    CA224254   0.268   9.976   0.985  0.2861 -0.9738  0.0204
  971THY    CP124255   0.362  10.097   0.972  0.6336 -0.4414  0.1122
  971THY    HP124256   0.320  10.168   0.899 -2.1382 -3.6412 -1.6750
  971THY    CP224257   0.361  10.172   1.101  0.0091  0.1405 -0.6584
  971THY    HP224258   0.258  10.157   1.137  0.0465 -0.6150 -0.8642
  971THY    HP324259   0.434  10.126   1.169  0.3872  2.5189  0.6519
  971THY    HP424260   0.392  10.277   1.094  2.1913 -0.3355  0.8700
  971THY    CP324261   0.495  10.084   0.912  0.5057  0.8375  0.0451
  971THY    HP524262   0.567  10.023   0.969  1.8315  0.8141 -1.5634
  971THY    HP624263   0.492  10.040   0.812  0.0596  0.6451  0.1413
  971THY    HP724264   0.545  10.181   0.902 -1.1011  1.5901 -0.9360
  971THY    CA324265   0.147   9.976   0.912 -0.6915  0.2664 -0.2437
  971THY    HA324266   0.115  10.059   0.850  0.3083  0.8215 -0.0396
  971THY    CA424267   0.055   9.871   0.925 -0.1330  0.5441  0.7365
  971THY    HA424268  -0.035   9.877   0.864  1.4093  0.1451 -1.7388
  971THY    CA524269   0.091   9.760   1.009 -1.1668  1.0467  0.2076
  971THY    CM124270  -0.001   9.643   1.018 -0.6702  0.1795 -0.2939
  971THY    HM124271  -0.003   9.601   1.120 -0.9882 -0.0544 -0.3959
  971THY    HM224272  -0.107   9.665   1.005 -1.3444 -2.1936  0.5360
  971THY    HM324273   0.023   9.558   0.952 -0.5914  1.2566 -1.6891
  971THY    CA624274   0.213   9.761   1.083 -0.1519 -0.3441 -0.7465
  971THY    HA624275   0.229   9.674   1.146  0.0332  0.5020  0.4071
  972THY      O24276   8.847   3.656   8.895  0.2975 -0.4708  0.0481
  972THY     HO24277   8.930   3.611   8.872  2.3603  2.5008  1.0621
  972THY    CA124278   8.851   3.783   8.831  1.2265  0.5367 -0.4524
  972THY    CA224279   8.754   3.879   8.848  0.5376 -0.1121 -0.2083
  972THY    CP124280   8.622   3.855   8.928  0.3542 -0.0912  0.4443
  972THY    HP124281   8.643   3.783   9.008 -2.9466  1.3309  2.8377
  972THY    CP224282   8.580   3.997   9.000  0.4612  0.6185 -0.4041
  972THY    HP224283   8.496   3.963   9.062  0.6499  1.0605  0.0920
  972THY    HP324284   8.652   4.049   9.064  0.2504 -0.5660  0.8256
  972THY    HP424285   8.547   4.071   8.926  0.8947  1.5594  0.3254
  972THY    CP324286   8.506   3.800   8.844  0.5036 -0.0254  0.0634
  972THY    HP524287   8.531   3.698   8.813 -1.5826 -1.1582  1.8424
  972THY    HP624288   8.411   3.794   8.899 -0.1458 -0.8091 -1.1130
  972THY    HP724289   8.497   3.866   8.757  2.5204  1.1341  0.6569
  972THY    CA324290   8.746   3.985   8.751  0.0257 -0.3709 -0.9754
  972THY    HA324291   8.662   4.054   8.748 -0.7579 -1.1478  1.4193
  972THY    CA424292   8.852   4.006   8.662 -0.1728  0.2299 -0.3532
  972THY    HA424293   8.841   4.082   8.586 -3.0414 -1.2454 -1.5542
  972THY    CA524294   8.957   3.917   8.659 -0.1513  0.8293  0.0806
  972THY    CM124295   9.057   3.933   8.554 -0.1757  0.2388  0.3173
  972THY    HM124296   9.071   4.038   8.525  1.1357 -0.2255 -0.8008
  972THY    HM224297   9.146   3.876   8.581 -0.3050  0.2770  0.8318
  972THY    HM324298   9.020   3.879   8.466 -1.0001  1.1903  0.0498
  972THY    CA624299   8.952   3.797   8.736 -0.4270 -0.5259 -0.5352
  972THY    HA624300   9.032   3.723   8.731 -0.8809 -1.1159  0.5137
  973THY      O24301   6.229   9.011   1.801 -0.1574 -0.5305  0.1054
  973THY     HO24302   6.240   9.097   1.756 -2.6424  0.0115  0.3728
  973THY    CA124303   6.257   8.921   1.697  0.8221 -0.8354  0.1784
  973THY    CA224304   6.215   8.786   1.710  0.2671  0.3793 -0.1082
  973THY    CP124305   6.159   8.738   1.841 -0.1040  0.1069 -0.5911
  973THY    HP124306   6.182   8.812   1.919 -3.8985  2.2574 -1.2333
  973THY    CP224307   6.000   8.730   1.846  0.0191  0.3779  0.1641
  973THY    HP224308   5.963   8.677   1.758 -1.4158 -1.0962  1.5860
  973THY    HP324309   5.955   8.691   1.938 -1.2058  1.2586 -0.0366
  973THY    HP424310   5.966   8.833   1.828 -1.4748 -0.2236 -0.6474
  973THY    CP324311   6.217   8.608   1.886  0.2267 -0.1799 -0.1907
  973THY    HP524312   6.326   8.606   1.875  0.3232  1.2520  0.3808
  973THY    HP624313   6.185   8.583   1.988 -0.2726  1.4957  0.0880
  973THY    HP724314   6.175   8.532   1.819 -0.4263  0.6875 -0.7886
  973THY    CA324315   6.235   8.696   1.606 -0.5671  0.1084 -0.0457
  973THY    HA324316   6.211   8.590   1.610  1.6453 -0.5113 -1.4879
  973THY    CA424317   6.306   8.737   1.491  0.0406 -0.5369  0.8308
  973THY    HA424318   6.333   8.663   1.416 -1.6144 -0.0178 -0.3481
  973THY    CA524319   6.345   8.872   1.472 -0.5473  0.7797 -0.4894
  973THY    CM124320   6.424   8.922   1.349 -1.1054 -0.0131 -0.2066
  973THY    HM124321   6.354   8.986   1.293 -0.1172  2.6208  1.4088
  973THY    HM224322   6.521   8.971   1.359 -0.9814  0.3431 -2.5281
  973THY    HM324323   6.441   8.831   1.291  1.4207  0.2871 -0.0167
  973THY    CA624324   6.313   8.958   1.578  0.1095 -0.5860 -0.0870
  973THY    HA624325   6.352   9.060   1.578  0.6415 -0.7575  1.3170
  974THY      O24326   3.814   8.165   7.900  0.5583  0.2449 -0.0648
  974THY     HO24327   3.764   8.208   7.828  0.4032 -2.9741 -2.0475
  974THY    CA124328   3.780   8.235   8.006  0.1067  0.7829  0.2608
  974THY    CA224329   3.745   8.174   8.127 -0.0385 -0.2329  0.2759
  974THY    CP124330   3.776   8.021   8.139  0.2944 -0.3571 -0.2629
  974THY    HP124331   3.801   7.970   8.045  0.1663 -1.7085  0.4118
  974THY    CP224332   3.895   8.004   8.237  0.8997 -0.4019 -0.3137
  974THY    HP224333   3.920   7.898   8.251  0.6051 -0.3643  0.5697
  974THY    HP324334   3.988   8.056   8.210  1.9540 -1.0702  1.7383
  974THY    HP424335   3.866   8.036   8.338  0.3260  2.5406 -1.3179
  974THY    CP324336   3.651   7.955   8.190 -0.2508  0.4895  0.1654
  974THY    HP524337   3.631   7.975   8.296  0.5726 -0.7659  0.5821
  974THY    HP624338   3.563   7.990   8.135 -0.0793 -0.7246 -0.9481
  974THY    HP724339   3.662   7.848   8.166 -0.9753  0.2955  0.6732
  974THY    CA324340   3.703   8.249   8.240 -0.0170  0.3901  0.3210
  974THY    HA324341   3.675   8.195   8.330  0.5202 -2.5107 -1.1183
  974THY    CA424342   3.687   8.387   8.231  0.0539 -0.3275 -0.4855
  974THY    HA424343   3.649   8.441   8.317 -0.7322 -0.1774 -0.9201
  974THY    CA524344   3.704   8.447   8.105 -0.6554  0.4291 -0.2627
  974THY    CM124345   3.675   8.590   8.080 -0.4149 -0.2442 -0.0589
  974THY    HM124346   3.745   8.635   8.008 -0.6557  0.4826  0.1564
  974THY    HM224347   3.574   8.589   8.037 -0.8457  0.1192  0.9137
  974THY    HM324348   3.670   8.649   8.172 -0.7249 -2.0465  1.1325
  974THY    CA624349   3.754   8.373   7.999  0.6228  0.0661 -0.0890
  974THY    HA624350   3.780   8.434   7.913 -1.1171  0.8790 -0.0747
  975THY      O24351   5.398   5.241   0.822  0.1850 -0.6073 -0.0893
  975THY     HO24352   5.455   5.306   0.866  1.9456 -1.2180 -1.3117
  975THY    CA124353   5.349   5.177   0.924  0.5600  0.3080 -0.8196
  975THY    CA224354   5.219   5.121   0.915  0.2176 -0.3718  0.1365
  975THY    CP124355   5.146   5.123   0.780 -0.2895 -0.0519  0.2286
  975THY    HP124356   5.196   5.181   0.701 -3.1478  2.0535 -0.1715
  975THY    CP224357   5.125   4.971   0.734 -0.1380 -0.6464  0.0590
  975THY    HP224358   5.052   4.964   0.652 -3.3333 -1.4341  2.7689
  975THY    HP324359   5.217   4.935   0.687  0.2010 -0.9538  0.9508
  975THY    HP424360   5.102   4.904   0.818 -1.4466  0.3885  0.5709
  975THY    CP324361   5.005   5.190   0.791 -0.3918  0.4871 -0.7480
  975THY    HP524362   4.948   5.138   0.868  0.2534 -0.9423 -1.1909
  975THY    HP624363   5.014   5.297   0.811 -0.0488  0.0131  1.9929
  975THY    HP724364   4.949   5.170   0.699 -0.2490 -2.3875 -0.3269
  975THY    CA324365   5.160   5.076   1.036  0.5464  0.5185 -0.1811
  975THY    HA324366   5.058   5.038   1.030  0.5880  0.5979 -1.6869
  975THY    CA424367   5.223   5.089   1.159  0.9098  0.0726  0.3126
  975THY    HA424368   5.165   5.053   1.244  0.4632  0.1028  0.0231
  975THY    CA524369   5.357   5.147   1.173  0.0237  0.2415 -0.2596
  975THY    CM124370   5.421   5.169   1.307  0.3350  0.1658 -0.7895
  975THY    HM124371   5.359   5.205   1.390  1.5960  0.0204  0.2485
  975THY    HM224372   5.491   5.087   1.328 -0.4666 -0.3818 -0.2113
  975THY    HM324373   5.488   5.254   1.289  1.4739 -0.0806  1.8244
  975THY    CA624374   5.416   5.191   1.053 -0.7429 -0.5173  1.2606
  975THY    HA624375   5.509   5.247   1.054 -0.1147 -1.5015  0.1718
  976THY      O24376   9.606   8.048   8.450  0.2293  0.1322  0.3662
  976THY     HO24377   9.584   8.137   8.418 -0.9593 -1.4316 -3.9141
  976THY    CA124378   9.601   8.051   8.586 -0.1942  0.4220 -0.2058
  976THY    CA224379   9.612   7.934   8.668  0.2262 -0.6990 -0.5706
  976THY    CP124380   9.645   7.799   8.606  0.0023  0.2302 -0.1956
  976THY    HP124381   9.657   7.804   8.497 -0.1446 -2.2007 -0.3663
  976THY    CP224382   9.770   7.731   8.657  0.4388  0.7665 -0.4831
  976THY    HP224383   9.785   7.638   8.601  1.2468  1.9853 -2.3934
  976THY    HP324384   9.856   7.794   8.631 -0.1103  1.7097 -0.0635
  976THY    HP424385   9.777   7.707   8.764 -0.9607 -0.9321 -0.7278
  976THY    CP324386   9.533   7.693   8.633 -0.3638 -0.3685 -0.4096
  976THY    HP524387   9.562   7.592   8.600  1.0146 -0.5557  1.2665
  976THY    HP624388   9.502   7.690   8.738 -1.3408  0.4236 -0.6652
  976THY    HP724389   9.443   7.717   8.574 -1.6079 -1.1923  1.0685
  976THY    CA324390   9.601   7.951   8.806 -0.1033 -0.5488 -0.3687
  976THY    HA324391   9.604   7.872   8.880 -0.4209 -2.2715 -2.1087
  976THY    CA424392   9.573   8.080   8.861  0.2793 -1.0704  0.3528
  976THY    HA424393   9.554   8.096   8.966 -1.7374  4.1422 -0.5389
  976THY    CA524394   9.575   8.190   8.778  0.0480  0.0868  0.0950
  976THY    CM124395   9.552   8.324   8.842  0.7360  0.2459  0.0626
  976THY    HM124396   9.454   8.362   8.810  0.6687  1.2258  1.3644
  976THY    HM224397   9.568   8.324   8.950  1.2358 -0.2455 -0.0105
  976THY    HM324398   9.621   8.395   8.794  1.2125 -0.2836 -0.0432
  976THY    CA624399   9.584   8.176   8.642 -0.1432 -0.5758  0.0281
  976THY    HA624400   9.563   8.270   8.592 -0.9256 -0.6197  0.2605
  977THY      O24401   0.727   9.220   4.450  0.2124  0.4664  0.1820
  977THY     HO24402   0.788   9.276   4.502 -2.4507  2.1460  1.7930
  977THY    CA124403   0.686   9.310   4.352  0.1930  0.5374  0.0210
  977THY    CA224404   0.658   9.277   4.215 -0.4080 -0.5630 -0.6392
  977THY    CP124405   0.684   9.135   4.178  0.3256  0.6201  0.3697
  977THY    HP124406   0.751   9.089   4.252  0.4010  1.1208  0.6153
  977THY    CP224407   0.559   9.052   4.153  0.0151  0.3888  0.7160
  977THY    HP224408   0.486   9.104   4.090  0.6130  2.4772  1.6555
  977THY    HP324409   0.585   8.947   4.137  2.3753  1.1046 -0.7242
  977THY    HP424410   0.496   9.039   4.241  0.4623 -1.6459  0.7823
  977THY    CP324411   0.760   9.125   4.044  0.6847 -0.3446  0.5694
  977THY    HP524412   0.707   9.171   3.960  1.6067  0.0202  0.1688
  977THY    HP624413   0.852   9.183   4.057  1.9610 -1.7792 -1.4850
  977THY    HP724414   0.775   9.018   4.024  0.6249 -0.1438 -0.6337
  977THY    CA324415   0.606   9.378   4.130 -0.1320  0.6029  0.1856
  977THY    HA324416   0.585   9.354   4.026  2.3063 -1.7890  0.1162
  977THY    CA424417   0.582   9.502   4.182 -0.4836  0.3504 -0.2224
  977THY    HA424418   0.544   9.573   4.110  2.2940 -0.0705 -2.2957
  977THY    CA524419   0.627   9.536   4.300 -0.3368 -0.1005 -0.3274
  977THY    CM124420   0.611   9.678   4.343 -0.3044  0.1655  0.1637
  977THY    HM124421   0.566   9.685   4.444  1.3481  1.2510  0.8627
  977THY    HM224422   0.713   9.717   4.345 -0.8819  1.8197 -0.7370
  977THY    HM324423   0.555   9.737   4.269  1.6555  1.0266 -0.6847
  977THY    CA624424   0.672   9.441   4.394  0.4012 -0.6771  0.2301
  977THY    HA624425   0.702   9.475   4.492  0.7072  0.1587 -0.1451
  978THY      O24426   4.483   3.805   4.374 -0.0101  0.6768  0.3741
  978THY     HO24427   4.466   3.899   4.354 -1.0768  0.3590 -0.2804
  978THY    CA124428   4.535   3.739   4.273 -0.2290 -0.2883  0.6405
  978THY    CA224429   4.563   3.599   4.281  0.7068 -0.8833  0.6161
  978THY    CP124430   4.519   3.515   4.401 -0.3310  0.1614 -0.1471
  978THY    HP124431   4.482   3.584   4.478 -0.2838 -0.5188  0.4951
  978THY    CP224432   4.403   3.429   4.372  0.5056  0.3810 -0.5369
  978THY    HP224433   4.414   3.368   4.282  0.1826  0.5827 -0.7167
  978THY    HP324434   4.384   3.365   4.460  0.8198  0.2083 -0.5961
  978THY    HP424435   4.323   3.500   4.347  1.3857  1.5510 -0.1017
  978THY    CP324436   4.646   3.445   4.469  0.3227 -0.3351  0.6854
  978THY    HP524437   4.710   3.402   4.392  1.1256  1.3583  0.3696
  978THY    HP624438   4.701   3.532   4.508  1.2859 -0.3975 -0.4783
  978THY    HP724439   4.626   3.379   4.555  1.0109 -1.7535 -0.1988
  978THY    CA324440   4.617   3.530   4.173  0.2907  0.1679  0.0597
  978THY    HA324441   4.626   3.422   4.179 -4.2714 -0.3910  0.4651
  978THY    CA424442   4.648   3.604   4.058 -0.3202 -0.2660 -0.1706
  978THY    HA424443   4.692   3.549   3.975  1.6015  0.3669  0.3690
  978THY    CA524444   4.621   3.740   4.051  0.2947  0.1937 -0.4216
  978THY    CM124445   4.655   3.810   3.927  0.5969 -0.7997 -0.5112
  978THY    HM124446   4.642   3.917   3.943 -2.2250 -1.5319  3.6840
  978THY    HM224447   4.758   3.774   3.912  0.3840 -1.6582  0.0065
  978THY    HM324448   4.590   3.784   3.843 -1.6308  1.9093  0.2579
  978THY    CA624449   4.556   3.810   4.153 -0.6489  0.4381  0.3677
  978THY    HA624450   4.538   3.917   4.147 -1.0715  0.3645  0.2979
  979THY      O24451   2.937   1.091   1.817  0.0981 -0.1917  0.7562
  979THY     HO24452   2.984   1.012   1.785  1.3798  1.2728 -1.2273
  979THY    CA124453   2.806   1.060   1.816  0.1157  0.3971 -0.1423
  979THY    CA224454   2.706   1.150   1.766  0.1983 -0.5215  0.2819
  979THY    CP124455   2.753   1.279   1.707 -0.2451 -0.4000 -0.7596
  979THY    HP124456   2.862   1.273   1.707 -0.3068 -1.6738 -0.7763
  979THY    CP224457   2.703   1.309   1.574 -0.2712 -0.2593 -0.8149
  979THY    HP224458   2.705   1.215   1.517  1.7296 -3.1838  3.5575
  979THY    HP324459   2.602   1.348   1.593  0.6875  1.4463  1.1341
  979THY    HP424460   2.756   1.391   1.524 -2.7929  2.0406  0.0174
  979THY    CP324461   2.718   1.389   1.812 -0.3160 -0.0002 -0.6546
  979THY    HP524462   2.765   1.481   1.776  0.3930  0.1071  0.5053
  979THY    HP624463   2.610   1.405   1.825  0.2893  2.3202  2.5585
  979THY    HP724464   2.767   1.360   1.905 -1.6750  1.2694  0.5154
  979THY    CA324465   2.573   1.108   1.775 -0.3358  0.3479  0.4449
  979THY    HA324466   2.497   1.175   1.735 -0.7808 -0.1297  0.4688
  979THY    CA424467   2.541   0.991   1.848 -0.3657  0.0078  0.1510
  979THY    HA424468   2.439   0.958   1.866 -0.5609  0.0708 -0.8084
  979THY    CA524469   2.641   0.905   1.889 -0.7482  0.6580 -0.1745
  979THY    CM124470   2.599   0.770   1.954 -0.5001 -0.3678  0.1151
  979THY    HM124471   2.680   0.699   1.972 -0.1656 -0.6372 -2.1454
  979THY    HM224472   2.546   0.793   2.047  0.5036 -1.1488  0.9014
  979THY    HM324473   2.532   0.719   1.883 -0.5831 -1.7246  1.1437
  979THY    CA624474   2.774   0.941   1.871  0.3294 -0.6760 -0.1514
  979THY    HA624475   2.847   0.871   1.912 -0.2030 -1.7625 -1.0006
  980THY      O24476   8.639   4.494   5.200  0.1060 -0.6428 -0.3781
  980THY     HO24477   8.597   4.466   5.117 -0.8795 -1.6088  0.4320
  980THY    CA124478   8.592   4.397   5.285  0.6000 -0.8743  0.0524
  980THY    CA224479   8.674   4.301   5.337 -0.7062  0.1030 -0.5137
  980THY    CP124480   8.821   4.290   5.292  0.4058  0.0597  0.5542
  980THY    HP124481   8.861   4.391   5.277 -0.1037 -0.1303 -3.1130
  980THY    CP224482   8.925   4.229   5.387  0.0156 -0.5152  0.5816
  980THY    HP224483   8.888   4.134   5.428 -2.9915 -0.2379 -1.1803
  980THY    HP324484   9.023   4.225   5.338 -0.5024 -0.5875 -0.4807
  980THY    HP424485   8.928   4.295   5.474 -3.0522  0.7821 -0.1806
  980THY    CP324486   8.826   4.243   5.145  0.2327 -0.1487  0.1316
  980THY    HP524487   8.919   4.272   5.095 -0.9186  0.1031 -1.9438
  980THY    HP624488   8.801   4.137   5.130  0.6981 -0.5705  1.9985
  980THY    HP724489   8.746   4.290   5.087  0.7059  0.2670 -0.1976
  980THY    CA324490   8.617   4.207   5.430 -0.4030 -0.6529 -0.4757
  980THY    HA324491   8.673   4.131   5.483 -2.0926  0.0564  2.5564
  980THY    CA424492   8.481   4.210   5.461  0.1021 -0.1733 -0.4497
  980THY    HA424493   8.446   4.140   5.536  1.3964  1.7959  2.1338
  980THY    CA524494   8.396   4.302   5.399  0.3943  0.2347 -0.3518
  980THY    CM124495   8.251   4.297   5.413  0.4919 -0.1127 -0.0121
  980THY    HM124496   8.210   4.244   5.500 -2.7211  0.0938 -1.2426
  980THY    HM224497   8.214   4.399   5.432  0.3574 -0.2820  0.6501
  980THY    HM324498   8.203   4.251   5.326  0.4742 -0.3154  0.1045
  980THY    CA624499   8.454   4.387   5.307 -0.4689 -0.6200  0.0585
  980THY    HA624500   8.390   4.453   5.250 -0.1350  0.1962  0.6028
  981THY      O24501   6.855   5.578   6.731 -0.3694  0.2013 -0.2649
  981THY     HO24502   6.946   5.603   6.757 -0.2179  0.6332 -1.1930
  981THY    CA124503   6.841   5.451   6.748  0.1293  0.3372 -0.0596
  981THY    CA224504   6.719   5.392   6.725 -0.4713 -0.6825  0.2293
  981THY    CP124505   6.601   5.470   6.667 -0.7044 -0.2806  0.0793
  981THY    HP124506   6.632   5.563   6.617 -0.2048  0.1541  1.1476
  981THY    CP224507   6.516   5.403   6.555  0.7844 -0.9820 -0.2648
  981THY    HP224508   6.581   5.370   6.474  2.0305  0.3745  0.1250
  981THY    HP324509   6.469   5.309   6.585 -0.9828 -0.3114 -0.8495
  981THY    HP424510   6.447   5.478   6.516  1.5127 -0.1225  0.0546
  981THY    CP324511   6.512   5.523   6.784  0.0545  0.0109 -0.1581
  981THY    HP524512   6.585   5.586   6.838  0.1174  0.8608 -1.2128
  981THY    HP624513   6.428   5.589   6.761 -0.7961 -0.5378  1.2495
  981THY    HP724514   6.484   5.432   6.838  2.8639 -1.3318 -0.7327
  981THY    CA324515   6.704   5.258   6.739 -0.6450  0.9607 -0.1181
  981THY    HA324516   6.608   5.208   6.737  0.1035 -0.5391 -1.3819
  981THY    CA424517   6.819   5.181   6.779 -0.2448 -0.3069  0.0501
  981THY    HA424518   6.806   5.075   6.796 -0.2660 -0.6438 -1.8056
  981THY    CA524519   6.951   5.242   6.790  0.2541  0.8054  0.8570
  981THY    CM124520   7.081   5.168   6.811 -0.5522  0.7523 -0.4117
  981THY    HM124521   7.141   5.207   6.893  0.0195 -0.6663 -0.1137
  981THY    HM224522   7.053   5.062   6.812  0.3407  0.5043 -0.5330
  981THY    HM324523   7.146   5.189   6.725 -1.6144  0.3420 -1.3342
  981THY    CA624524   6.955   5.380   6.777 -0.6279  0.2741 -0.1059
  981THY    HA624525   7.052   5.429   6.782 -0.7566  0.5272 -0.1163
  982THY      O24526   5.443   0.094   5.477 -0.4822  0.7152 -0.2699
  982THY     HO24527   5.394   0.010   5.472  3.8974 -2.1992  0.6018
  982THY    CA124528   5.457   0.104   5.612 -0.1704  0.6046 -0.0979
  982THY    CA224529   5.428   0.223   5.681  0.6038  0.1271 -0.0422
  982THY    CP124530   5.417   0.355   5.606  1.0363  0.1503  0.4685
  982THY    HP124531   5.388   0.343   5.501 -0.7365 -0.8105  1.0205
  982THY    CP224532   5.295   0.429   5.665 -0.9509  0.3162 -0.0390
  982THY    HP224533   5.323   0.461   5.767 -1.0482 -0.0447  0.1039
  982THY    HP324534   5.273   0.514   5.600 -0.2180 -0.2075 -0.9855
  982THY    HP424535   5.203   0.370   5.670  0.7203 -2.4574  0.8634
  982THY    CP324536   5.544   0.445   5.616 -0.4134 -0.5058  0.5114
  982THY    HP524537   5.532   0.535   5.555  0.0228  0.1062  1.3044
  982THY    HP624538   5.562   0.473   5.720 -0.1943  1.5260 -0.0299
  982THY    HP724539   5.631   0.394   5.574 -1.1968  0.5426 -2.6592
  982THY    CA324540   5.436   0.225   5.823 -0.2057 -0.2469 -0.7296
  982THY    HA324541   5.429   0.321   5.873 -0.4981  0.6325 -2.3677
  982THY    CA424542   5.457   0.105   5.891  0.3335 -0.3043 -0.5657
  982THY    HA424543   5.473   0.102   5.999 -0.7212 -0.3748 -0.3925
  982THY    CA524544   5.473  -0.015   5.825  1.2788  0.4862 -0.0213
  982THY    CM124545   5.517  -0.134   5.907  0.2507 -0.0884  0.1352
  982THY    HM124546   5.431  -0.181   5.956 -0.2623  1.0427  0.3440
  982THY    HM224547   5.568  -0.210   5.846 -0.7865 -0.2291 -0.5813
  982THY    HM324548   5.574  -0.103   5.995 -1.1179  0.2856  0.9198
  982THY    CA624549   5.480  -0.013   5.684 -0.8513  0.2889 -0.2593
  982THY    HA624550   5.513  -0.098   5.625  1.6979  1.6300 -0.8638
  983THY      O24551   3.426   5.146   3.787 -0.3837  0.0952  0.4953
  983THY     HO24552   3.485   5.094   3.845  1.2167  1.1650 -0.1079
  983THY    CA124553   3.326   5.060   3.774  0.5187  0.7045  0.4439
  983THY    CA224554   3.209   5.087   3.700 -0.0594  0.6801 -0.4338
  983THY    CP124555   3.194   5.222   3.627 -0.1309 -0.1807 -0.3547
  983THY    HP124556   3.293   5.243   3.584  0.8483 -0.4840  1.6588
  983THY    CP224557   3.096   5.214   3.512  0.1089 -0.2638 -0.4515
  983THY    HP224558   2.998   5.177   3.543  1.3015 -2.5535  0.8415
  983THY    HP324559   3.076   5.316   3.478 -1.0729 -0.4942 -0.4950
  983THY    HP424560   3.134   5.136   3.445  0.7841 -1.2944  1.0638
  983THY    CP324561   3.150   5.338   3.725  0.0141 -0.7603 -0.3598
  983THY    HP524562   3.091   5.422   3.685  0.0938 -0.6198 -0.1860
  983THY    HP624563   3.070   5.290   3.783 -0.8976 -0.6074 -1.4710
  983THY    HP724564   3.235   5.375   3.783 -0.5617  1.8626 -1.0652
  983THY    CA324565   3.113   4.982   3.685 -0.1178  0.0251  0.3202
  983THY    HA324566   3.031   4.991   3.614 -0.7748  1.2400  1.1994
  983THY    CA424567   3.121   4.867   3.756 -0.4610 -0.5699 -0.0229
  983THY    HA424568   3.046   4.792   3.733  0.2811 -0.6458 -2.5161
  983THY    CA524569   3.232   4.848   3.841 -0.3280 -0.1309  0.2282
  983THY    CM124570   3.250   4.727   3.918  0.4449 -0.1442 -0.6783
  983THY    HM124571   3.175   4.649   3.900 -0.8785  1.2839 -1.6682
  983THY    HM224572   3.347   4.684   3.890 -0.9466 -3.0606 -1.4363
  983THY    HM324573   3.260   4.760   4.022 -1.9811  0.7762 -0.6839
  983THY    CA624574   3.339   4.943   3.844 -0.4625 -0.5526 -0.4096
  983THY    HA624575   3.428   4.928   3.904 -0.2055  1.2773 -0.2587
  984THY      O24576   4.677   4.176   6.438  0.3669  0.4366 -0.1428
  984THY     HO24577   4.607   4.196   6.372 -0.9155 -1.6477  0.4807
  984THY    CA124578   4.632   4.239   6.554  0.5850 -0.3429  0.5117
  984THY    CA224579   4.711   4.236   6.673  0.5040  0.6625 -0.1782
  984THY    CP124580   4.840   4.146   6.679 -0.4009  0.8210  0.9034
  984THY    HP124581   4.843   4.088   6.586 -0.9845 -1.6757  2.3527
  984THY    CP224582   4.970   4.227   6.700  0.0266 -0.4655  0.2727
  984THY    HP224583   4.994   4.295   6.618 -0.3193  3.0751  2.8517
  984THY    HP324584   4.963   4.288   6.791 -1.2820 -0.7309  0.3737
  984THY    HP424585   5.058   4.161   6.696  0.5171  0.1342  0.8317
  984THY    CP324586   4.799   4.038   6.777  0.0820 -0.1123 -0.0304
  984THY    HP524587   4.747   4.064   6.870  0.2055 -0.0397  0.0192
  984THY    HP624588   4.726   3.968   6.734 -1.1562  0.3950  1.1787
  984THY    HP724589   4.886   3.975   6.801  0.7153  0.4705 -0.7541
  984THY    CA324590   4.671   4.305   6.785  0.5210 -0.1432 -1.0936
  984THY    HA324591   4.733   4.304   6.874  0.9740  1.7977 -1.3441
  984THY    CA424592   4.551   4.376   6.780  0.5993  0.4443  0.0570
  984THY    HA424593   4.525   4.436   6.867  1.4011  1.7580 -0.5909
  984THY    CA524594   4.478   4.386   6.664 -0.1095 -1.1190  0.1268
  984THY    CM124595   4.357   4.484   6.667 -0.8006 -0.8204  0.0667
  984THY    HM124596   4.363   4.530   6.568 -0.0667 -3.7039 -1.3224
  984THY    HM224597   4.263   4.432   6.688 -0.9784 -0.4644  0.1733
  984THY    HM324598   4.361   4.556   6.750 -0.5094 -2.7991  1.8383
  984THY    CA624599   4.515   4.316   6.548  0.0557  0.2816  0.6557
  984THY    HA624600   4.460   4.319   6.454 -0.1027 -0.8890  0.6916
  985THY      O24601   4.861   5.346   8.346 -0.3561  0.3707  0.2501
  985THY     HO24602   4.813   5.325   8.428  2.2527 -0.3398  1.7135
  985THY    CA124603   4.778   5.415   8.270 -0.1606 -0.4180  0.5180
  985THY    CA224604   4.804   5.430   8.131 -0.2018  0.2512  0.2580
  985THY    CP124605   4.935   5.370   8.066  0.0915 -0.2812  0.4889
  985THY    HP124606   5.004   5.335   8.144  0.3467  0.9341  0.8274
  985THY    CP224607   4.914   5.273   7.952 -0.0755 -0.2318 -0.2947
  985THY    HP224608   5.013   5.255   7.908  1.0526  1.2571  1.4844
  985THY    HP324609   4.869   5.180   7.989 -0.1772  0.1512  0.5903
  985THY    HP424610   4.843   5.322   7.884 -0.2099  2.3258  1.5074
  985THY    CP324611   5.012   5.485   8.001  0.0574 -0.2428 -0.5314
  985THY    HP524612   5.119   5.465   8.015  0.1501  0.7560  0.2422
  985THY    HP624613   4.989   5.512   7.898  0.2857  1.9836 -0.0465
  985THY    HP724614   5.001   5.575   8.063  0.3384 -1.2538  1.0635
  985THY    CA324615   4.712   5.504   8.056 -1.1013 -0.8326  0.5607
  985THY    HA324616   4.739   5.538   7.956 -2.8451  0.2885  0.4164
  985THY    CA424617   4.594   5.555   8.110  0.5634  0.8482 -0.0972
  985THY    HA424618   4.524   5.614   8.051  1.0144  1.8481  0.3253
  985THY    CA524619   4.568   5.536   8.243 -0.0035 -0.8710 -0.8909
  985THY    CM124620   4.454   5.606   8.311  0.0880 -0.2648 -0.0239
  985THY    HM124621   4.366   5.601   8.247 -0.2483 -1.8004  0.5128
  985THY    HM224622   4.420   5.568   8.408  0.7926 -1.4522 -0.2117
  985THY    HM324623   4.470   5.713   8.327  0.7173 -0.5946  1.9006
  985THY    CA624624   4.663   5.473   8.326  0.2502 -0.2191 -0.3729
  985THY    HA624625   4.644   5.463   8.433 -1.7765 -0.3759 -0.7040
  986THY      O24626   0.735   6.300   5.063  0.5585  0.0890 -0.1289
  986THY     HO24627   0.747   6.306   4.966 -1.1973  1.1753 -0.3205
  986THY    CA124628   0.621   6.376   5.078 -0.1884  0.2529  0.4144
  986THY    CA224629   0.564   6.411   5.203 -0.7871 -0.2864 -0.0820
  986THY    CP124630   0.649   6.382   5.334 -0.2076 -0.2427  0.0627
  986THY    HP124631   0.735   6.315   5.322 -0.1080 -0.7471  2.8067
  986THY    CP224632   0.693   6.515   5.408 -0.6749  0.7260 -0.4387
  986THY    HP224633   0.731   6.487   5.506 -0.0409  0.1391 -0.8460
  986THY    HP324634   0.777   6.569   5.362 -0.7051  0.9542 -0.2310
  986THY    HP424635   0.603   6.578   5.421 -1.7543 -0.9245  0.3534
  986THY    CP324636   0.564   6.307   5.432 -0.3549 -0.5192 -0.2247
  986THY    HP524637   0.513   6.217   5.398  2.2263 -2.9534  1.8747
  986THY    HP624638   0.614   6.279   5.526 -0.9468 -0.2074  0.1940
  986THY    HP724639   0.482   6.376   5.455 -1.6686 -2.4982  1.4192
  986THY    CA324640   0.437   6.476   5.198 -0.2380 -0.1611  0.6999
  986THY    HA324641   0.382   6.509   5.285 -0.6972  1.8757 -0.2902
  986THY    CA424642   0.375   6.504   5.071  0.0681 -0.9932 -0.1663
  986THY    HA424643   0.278   6.553   5.069  0.4450 -0.0981  1.3859
  986THY    CA524644   0.431   6.464   4.951 -0.8597 -0.1913 -0.3267
  986THY    CM124645   0.354   6.488   4.825 -0.0825  0.4686  0.0237
  986THY    HM124646   0.270   6.559   4.835  0.8975  2.3311 -3.4535
  986THY    HM224647   0.419   6.523   4.744  0.9179  0.8256  0.9625
  986THY    HM324648   0.312   6.392   4.792 -0.1834  0.7497 -0.6816
  986THY    CA624649   0.554   6.394   4.957  0.2890  0.1399 -0.1320
  986THY    HA624650   0.589   6.357   4.862 -2.1489 -1.5600 -0.4476
  987THY      O24651   2.479   9.420   7.170 -0.6107 -0.2048 -0.7666
  987THY     HO24652   2.397   9.462   7.138 -1.3199 -2.3403 -2.0249
  987THY    CA124653   2.478   9.395   7.305 -0.0015 -0.6819  0.3093
  987THY    CA224654   2.564   9.312   7.373  0.4793 -0.5528 -0.6214
  987THY    CP124655   2.668   9.232   7.303 -0.3688  0.6403 -0.1508
  987THY    HP124656   2.678   9.260   7.197  1.0809 -3.2104 -1.2149
  987THY    CP224657   2.811   9.244   7.380 -0.0276  0.5038 -0.1984
  987THY    HP224658   2.887   9.197   7.317  1.0651 -0.5834  1.8470
  987THY    HP324659   2.844   9.348   7.389 -0.6927  0.6914  0.1782
  987THY    HP424660   2.810   9.194   7.477  0.9091  0.2806 -0.2995
  987THY    CP324661   2.637   9.086   7.291 -1.0261 -0.0668  0.2423
  987THY    HP524662   2.716   9.033   7.237  1.3029  2.6064  0.7961
  987THY    HP624663   2.644   9.044   7.392  3.1261 -0.4102 -0.0128
  987THY    HP724664   2.541   9.068   7.241 -0.0155 -1.1431 -1.4518
  987THY    CA324665   2.540   9.299   7.509 -0.7761  0.0079  0.1382
  987THY    HA324666   2.585   9.216   7.562  2.3415  1.5257  0.0984
  987THY    CA424667   2.446   9.381   7.576 -0.1081  0.4547 -0.2125
  987THY    HA424668   2.433   9.374   7.683 -2.3677  1.5923 -0.3516
  987THY    CA524669   2.369   9.469   7.506  0.0083  0.6750  0.3766
  987THY    CM124670   2.271   9.561   7.580 -0.5781  0.4617  0.0308
  987THY    HM124671   2.190   9.493   7.610  0.4105 -2.0231 -2.5113
  987THY    HM224672   2.321   9.615   7.662 -1.8012 -0.9558  1.7991
  987THY    HM324673   2.225   9.630   7.509  1.7193  0.8051 -1.1941
  987THY    CA624674   2.383   9.479   7.363 -0.8863  0.4203  0.4277
  987THY    HA624675   2.312   9.532   7.300  0.3231  0.7590 -0.6772
  988THY      O24676   0.629   1.519   9.755 -0.1776  0.9056  0.4807
  988THY     HO24677   0.726   1.511   9.761 -0.1931 -1.8958 -1.1187
  988THY    CA124678   0.616   1.554   9.621 -0.3591  0.0690 -0.2413
  988THY    CA224679   0.500   1.600   9.567  0.2663 -0.7628  0.1008
  988THY    CP124680   0.377   1.630   9.652  0.0701  0.0437  0.1964
  988THY    HP124681   0.404   1.615   9.758  2.5906 -1.2099 -0.5434
  988THY    CP224682   0.333   1.777   9.635  0.6960  0.1944  0.7211
  988THY    HP224683   0.257   1.783   9.557  0.2061  0.6548  1.2244
  988THY    HP324684   0.288   1.819   9.726 -0.7033 -1.6074  0.9129
  988THY    HP424685   0.411   1.849   9.605  0.4242  0.8390  1.5280
  988THY    CP324686   0.265   1.524   9.609  0.3921 -0.6448 -0.7965
  988THY    HP524687   0.172   1.547   9.663 -0.4465 -2.1700 -1.5381
  988THY    HP624688   0.240   1.527   9.502  1.5604  0.7734 -1.0586
  988THY    HP724689   0.297   1.421   9.625 -1.4483 -0.9583  1.3448
  988THY    CA324690   0.491   1.634   9.425  0.1047 -0.3347  0.2644
  988THY    HA324691   0.404   1.676   9.375  0.1004 -0.2707  0.3249
  988THY    CA424692   0.598   1.607   9.346 -0.3286 -0.1587 -0.3034
  988THY    HA424693   0.601   1.625   9.239 -0.0547 -0.1583 -0.2985
  988THY    CA524694   0.723   1.572   9.400 -0.8365 -0.1202 -0.2436
  988THY    CM124695   0.836   1.547   9.310  0.0504  0.3961  0.1246
  988THY    HM124696   0.819   1.581   9.207  0.3836 -2.5193 -0.9784
  988THY    HM224697   0.923   1.597   9.355 -0.5331  0.3671  1.3212
  988THY    HM324698   0.872   1.445   9.295  2.2824  1.2608 -0.8788
  988THY    CA624699   0.730   1.540   9.539 -0.1284  0.1038 -0.1464
  988THY    HA624700   0.821   1.497   9.581 -1.0625 -0.2421  1.5959
  989THY      O24701   6.454   0.832   0.982 -0.3331  0.2536 -0.1875
  989THY     HO24702   6.525   0.766   0.980 -0.1550  0.2354  2.4632
  989THY    CA124703   6.475   0.908   0.872 -0.3993 -0.0920 -0.8826
  989THY    CA224704   6.378   1.002   0.834  0.1700 -0.3779  0.9380
  989THY    CP124705   6.283   1.061   0.928  0.3245  0.1896  0.4609
  989THY    HP124706   6.269   1.004   1.021 -2.7586  1.7687  1.1060
  989THY    CP224707   6.314   1.208   0.967 -0.0952  0.0387  0.5747
  989THY    HP224708   6.251   1.225   1.055 -0.8562 -1.3257  0.3292
  989THY    HP324709   6.421   1.209   0.989  0.6044  0.9462 -2.3418
  989THY    HP424710   6.292   1.268   0.878  0.1994 -1.7198 -0.7516
  989THY    CP324711   6.141   1.059   0.866 -0.4681  0.1046 -0.0958
  989THY    HP524712   6.109   1.157   0.830  0.1155  0.5061  0.4678
  989THY    HP624713   6.121   0.991   0.781 -2.5299 -0.0219  0.4566
  989THY    HP724714   6.079   1.013   0.943 -1.8103  0.0593 -1.1669
  989THY    CA324715   6.404   1.069   0.710 -0.0276  0.4480  0.3103
  989THY    HA324716   6.352   1.158   0.678  1.2772  0.0552 -3.4156
  989THY    CA424717   6.504   1.020   0.617 -0.4139 -0.7400 -0.2486
  989THY    HA424718   6.510   1.076   0.524 -0.9088  2.9089  1.7250
  989THY    CA524719   6.592   0.922   0.656  0.2322  0.0252 -0.0572
  989THY    CM124720   6.705   0.876   0.563 -0.0684 -0.7468 -0.2042
  989THY    HM124721   6.717   0.952   0.485 -0.1351  2.3051  2.5261
  989THY    HM224722   6.798   0.881   0.622 -0.4000 -0.5798  0.3135
  989THY    HM324723   6.686   0.771   0.536 -4.4534 -0.2204  0.0734
  989THY    CA624724   6.581   0.872   0.786 -0.6499  0.3632 -0.7605
  989THY    HA624725   6.658   0.803   0.819  0.6702  1.9122 -0.4840
  990THY      O24726   7.065   8.965   5.173  0.1314  0.0946 -0.5521
  990THY     HO24727   7.139   8.912   5.140  1.9647  1.2918  1.3498
  990THY    CA124728   7.111   9.041   5.278 -0.0432 -0.9487  0.3709
  990THY    CA224729   7.090   9.183   5.271  0.1715 -0.0820  0.0225
  990THY    CP124730   7.016   9.246   5.153  0.1744 -0.2098 -0.1057
  990THY    HP124731   6.984   9.170   5.081  1.2617 -1.9551  1.1762
  990THY    CP224732   6.885   9.306   5.188  0.0007  0.3277 -0.4478
  990THY    HP224733   6.891   9.414   5.209 -1.8005  0.5413 -0.8855
  990THY    HP324734   6.814   9.303   5.105 -1.3563  0.7720  0.6674
  990THY    HP424735   6.841   9.264   5.279 -0.5967  1.0151 -0.4094
  990THY    CP324736   7.112   9.344   5.085 -0.5277  0.6258 -0.7152
  990THY    HP524737   7.200   9.286   5.057 -1.0605 -1.1366  1.0647
  990THY    HP624738   7.070   9.395   4.997 -1.1280 -0.3594 -1.0166
  990THY    HP724739   7.127   9.427   5.156  1.3455 -0.4074  0.1422
  990THY    CA324740   7.141   9.257   5.385 -0.5522  0.2843  0.0474
  990THY    HA324741   7.128   9.365   5.384 -1.9510  0.1376  1.0390
  990THY    CA424742   7.195   9.190   5.492 -0.7238  0.5892 -0.3451
  990THY    HA424743   7.223   9.249   5.579  0.3122  1.1595 -1.0381
  990THY    CA524744   7.219   9.057   5.485  0.2908  0.1187  0.2389
  990THY    CM124745   7.289   8.987   5.601 -0.1098 -0.3165 -0.5038
  990THY    HM124746   7.218   8.939   5.669 -1.3618  0.2840 -1.3290
  990THY    HM224747   7.365   8.915   5.570 -0.4379 -1.1515  0.5824
  990THY    HM324748   7.353   9.053   5.661  1.4040 -2.3225  0.1667
  990THY    CA624749   7.170   8.981   5.376 -0.2730  0.0828 -0.2457
  990THY    HA624750   7.185   8.874   5.381  0.8837  0.1700 -1.3258
  991THY      O24751   3.797   1.411   0.836 -0.1427  0.0432  0.3466
  991THY     HO24752   3.747   1.471   0.778  0.3715 -0.8600 -1.0962
  991THY    CA124753   3.904   1.480   0.859  0.1000 -0.4328  0.3339
  991THY    CA224754   4.013   1.437   0.937 -0.0205  0.1349  0.7317
  991THY    CP124755   4.005   1.304   1.003  0.1734  0.3449  0.2346
  991THY    HP124756   3.899   1.292   1.031  0.4567 -1.4230  0.6695
  991THY    CP224757   4.033   1.178   0.918  1.0102  0.2505  0.0897
  991THY    HP224758   4.000   1.197   0.815 -1.2798 -1.0085  0.5162
  991THY    HP324759   4.140   1.155   0.910  0.7893 -0.3716 -1.7185
  991THY    HP424760   3.976   1.090   0.952  0.4134  0.7894  0.5042
  991THY    CP324761   4.079   1.299   1.133 -0.0158 -0.0048  0.6098
  991THY    HP524762   4.060   1.390   1.191 -1.9559 -1.0064  1.6490
  991THY    HP624763   4.030   1.228   1.202 -1.8472 -0.6274 -1.2169
  991THY    HP724764   4.187   1.294   1.121 -0.0127  1.7186 -0.3701
  991THY    CA324765   4.129   1.519   0.943  0.5794  0.2427 -0.2957
  991THY    HA324766   4.220   1.493   0.996  0.9882  0.8514 -0.6845
  991THY    CA424767   4.126   1.650   0.895 -0.3663  0.1778  0.3288
  991THY    HA424768   4.210   1.718   0.893 -0.5553  0.4144  0.3104
  991THY    CA524769   4.012   1.699   0.830 -0.2573 -0.0342 -0.0368
  991THY    CM124770   4.018   1.831   0.771 -0.1357  0.2861  0.1544
  991THY    HM124771   3.928   1.865   0.718  0.4499  1.9040  0.1450
  991THY    HM224772   4.038   1.902   0.852  2.4607 -1.3186  1.0467
  991THY    HM324773   4.107   1.839   0.707 -0.7174 -0.1742 -0.7314
  991THY    CA624774   3.908   1.614   0.809 -0.1453  0.4670 -0.7527
  991THY    HA624775   3.828   1.658   0.750  0.2465 -0.6809 -2.1880
  992THY      O24776   3.918   5.723   6.109 -0.3868 -0.0012  0.7158
  992THY     HO24777   3.983   5.679   6.166 -0.0805 -1.4859 -0.7357
  992THY    CA124778   3.977   5.837   6.060 -0.0225  0.2862 -1.6192
  992THY    CA224779   3.951   5.889   5.935  0.0370 -0.0341 -0.3446
  992THY    CP124780   3.830   5.830   5.856 -0.7527  0.2413 -0.6054
  992THY    HP124781   3.831   5.721   5.866  0.2591  0.1927 -1.1423
  992THY    CP224782   3.702   5.892   5.912 -0.1542  0.5036  0.1282
  992THY    HP224783   3.618   5.867   5.845 -1.8923 -2.8478  3.2090
  992THY    HP324784   3.679   5.837   6.004  3.4630 -2.3489 -0.4565
  992THY    HP424785   3.723   5.995   5.943  1.6382 -0.0973  1.0490
  992THY    CP324786   3.862   5.849   5.705  0.0383 -0.7221  0.5041
  992THY    HP524787   3.840   5.949   5.664 -0.9417 -1.4672 -0.8987
  992THY    HP624788   3.968   5.826   5.687  0.3388  1.8774 -1.7604
  992THY    HP724789   3.796   5.778   5.654 -0.6801  0.2952 -0.0285
  992THY    CA324790   4.011   6.012   5.899  0.0181  0.4624  0.6125
  992THY    HA324791   3.994   6.069   5.808  2.4954 -1.4861 -1.2392
  992THY    CA424792   4.110   6.069   5.980 -0.3424 -0.0579  0.0678
  992THY    HA424793   4.169   6.148   5.935  0.0367 -0.8989 -0.9542
  992THY    CA524794   4.127   6.028   6.115 -0.2078  0.4537  0.4470
  992THY    CM124795   4.219   6.101   6.211 -0.1596 -0.0649  0.1578
  992THY    HM124796   4.237   6.028   6.290  2.2018  1.3998  1.0633
  992THY    HM224797   4.305   6.146   6.161 -0.2337  2.1159  1.8267
  992THY    HM324798   4.177   6.195   6.250 -1.2576 -0.6379  0.4068
  992THY    CA624799   4.056   5.914   6.155  0.5858  0.1140 -0.1959
  992THY    HA624800   4.051   5.888   6.261 -0.1362  0.8405 -0.0440
  993THY      O24801   4.314   2.640   1.419  0.0220  0.2561  0.0992
  993THY     HO24802   4.338   2.602   1.505 -0.1801 -1.1157 -0.4323
  993THY    CA124803   4.381   2.757   1.417  0.3731 -0.0752 -0.0178
  993THY    CA224804   4.331   2.877   1.348  0.0708  0.2821 -0.1706
  993THY    CP124805   4.208   2.859   1.256 -0.3843 -0.2877  0.2794
  993THY    HP124806   4.191   2.753   1.234 -0.9106 -0.5366  1.8009
  993THY    CP224807   4.078   2.900   1.332  0.0200  0.0048 -0.1231
  993THY    HP224808   4.006   2.934   1.256 -0.5446  0.4779  0.6020
  993THY    HP324809   4.032   2.815   1.384 -1.7256 -0.1350 -1.7879
  993THY    HP424810   4.097   2.979   1.406 -1.4181 -2.9079  3.6911
  993THY    CP324811   4.226   2.931   1.121 -0.7184  0.0113  0.0144
  993THY    HP524812   4.319   2.895   1.076  0.5246  0.7671  1.8703
  993THY    HP624813   4.146   2.908   1.049  2.0667 -1.8370 -2.8036
  993THY    HP724814   4.231   3.039   1.137  0.6264  0.3457 -2.1801
  993THY    CA324815   4.384   3.001   1.368 -0.0200 -0.3429  0.8438
  993THY    HA324816   4.330   3.089   1.337 -0.3242  0.4345  3.3724
  993THY    CA424817   4.511   3.008   1.445  1.1522 -0.5671  0.3466
  993THY    HA424818   4.568   3.098   1.467  0.9386 -0.7947  1.9787
  993THY    CA524819   4.565   2.891   1.502  0.7410  0.0579 -0.5669
  993THY    CM124820   4.691   2.901   1.585 -0.0046  0.2677  0.2782
  993THY    HM124821   4.712   3.000   1.629  3.4158  0.1679 -0.8513
  993THY    HM224822   4.693   2.820   1.659  0.8874 -0.1558 -0.1943
  993THY    HM324823   4.768   2.871   1.514 -0.9738  0.3499 -0.8340
  993THY    CA624824   4.497   2.771   1.498 -0.3313 -0.3333 -0.1577
  993THY    HA624825   4.538   2.685   1.551 -0.1480  1.0675  2.1214
  994THY      O24826   8.431   8.084   0.203 -0.3418  0.2603  0.4385
  994THY     HO24827   8.337   8.064   0.215 -1.1739  2.7670 -1.0427
  994THY    CA124828   8.436   8.208   0.152 -0.0678  0.1808  0.5528
  994THY    CA224829   8.555   8.269   0.117 -0.0668 -0.2410  0.9370
  994THY    CP124830   8.685   8.185   0.121 -0.1213  0.5868  0.0899
  994THY    HP124831   8.672   8.124   0.211 -0.8596  0.8546  0.1692
  994THY    CP224832   8.705   8.075   0.004  0.5449  0.5032 -0.0577
  994THY    HP224833   8.773   7.995   0.035  0.6847  1.1127  1.2670
  994THY    HP324834   8.616   8.014  -0.017  1.5299 -0.2777 -2.2910
  994THY    HP424835   8.744   8.123  -0.087  0.9550  0.5611  0.1495
  994THY    CP324836   8.816   8.253   0.150 -0.3707 -0.2700  0.1162
  994THY    HP524837   8.898   8.181   0.141 -1.9538 -2.2800  0.9876
  994THY    HP624838   8.835   8.343   0.091  2.6167 -0.1646  1.1234
  994THY    HP724839   8.803   8.282   0.255 -0.3931 -0.6086  0.2078
  994THY    CA324840   8.553   8.406   0.081  0.6301  0.0282  0.0447
  994THY    HA324841   8.648   8.457   0.067  0.6226  0.2092  0.6265
  994THY    CA424842   8.428   8.473   0.080 -0.6198 -0.2322 -0.1915
  994THY    HA424843   8.425   8.580   0.061  0.4087 -0.3494 -1.1317
  994THY    CA524844   8.305   8.414   0.110 -0.6190  0.1002  0.2367
  994THY    CM124845   8.185   8.493   0.118  0.2328  0.5343 -0.1032
  994THY    HM124846   8.205   8.579   0.184  1.1240 -0.2639  0.7152
  994THY    HM224847   8.159   8.523   0.016 -0.9114 -1.1457 -0.3431
  994THY    HM324848   8.102   8.438   0.164  1.0439  0.6498  1.5812
  994THY    CA624849   8.316   8.284   0.154  0.5385 -0.0868 -0.0356
  994THY    HA624850   8.227   8.236   0.193  1.3620 -1.4151  0.2742
  995THY      O24851   5.580   9.390   6.010  0.1067  0.2348 -0.2010
  995THY     HO24852   5.670   9.381   6.046  0.8434  2.4849 -1.2527
  995THY    CA124853   5.580   9.320   5.892  0.1562  0.1892  0.2787
  995THY    CA224854   5.473   9.336   5.802 -0.2845 -0.7801 -0.1291
  995THY    CP124855   5.352   9.430   5.839  0.6031  0.6971  0.0421
  995THY    HP124856   5.377   9.507   5.912 -0.2596 -0.0682  1.1803
  995THY    CP224857   5.311   9.507   5.706  0.0803  0.2425  0.2321
  995THY    HP224858   5.381   9.576   5.658 -0.5595 -0.7503 -2.3103
  995THY    HP324859   5.269   9.446   5.626 -0.8264  0.3608  0.6050
  995THY    HP424860   5.228   9.570   5.741 -0.3924  0.7113 -1.6311
  995THY    CP324861   5.235   9.351   5.896  0.1177 -0.4601 -0.8530
  995THY    HP524862   5.156   9.425   5.912 -0.5135 -1.4569  0.7979
  995THY    HP624863   5.197   9.275   5.827 -0.4427 -0.6853 -0.3004
  995THY    HP724864   5.258   9.323   5.999  0.4622  2.3558 -0.0895
  995THY    CA324865   5.488   9.278   5.673 -0.0039 -0.3220 -0.3671
  995THY    HA324866   5.401   9.281   5.607 -0.1041 -1.6187 -0.3297
  995THY    CA424867   5.600   9.194   5.648 -0.0311  1.0415 -0.1869
  995THY    HA424868   5.602   9.147   5.550 -3.3656  0.8972 -0.3181
  995THY    CA524869   5.699   9.171   5.747  0.0090 -0.1397  0.1238
  995THY    CM124870   5.826   9.101   5.724  0.3603  0.0250  0.6692
  995THY    HM124871   5.836   9.025   5.803  0.7272  0.9658  1.5542
  995THY    HM224872   5.809   9.040   5.635 -0.7774 -2.5281  2.5187
  995THY    HM324873   5.911   9.171   5.720 -0.4650  1.0063 -0.5045
  995THY    CA624874   5.683   9.236   5.868  0.1525 -0.3675  0.5128
  995THY    HA624875   5.759   9.231   5.946  0.9718 -1.2298 -0.3117
  996THY      O24876   8.205   7.919   7.838  0.1582  0.1675  0.0301
  996THY     HO24877   8.130   7.968   7.875 -0.5702  1.3633 -2.7984
  996THY    CA124878   8.292   8.013   7.795  0.6476 -0.1426 -0.3682
  996THY    CA224879   8.427   7.989   7.773  0.8857 -0.3140 -0.8052
  996THY    CP124880   8.488   7.853   7.792 -0.8351 -0.0157  0.3151
  996THY    HP124881   8.422   7.777   7.837 -0.0949 -1.0004 -0.2087
  996THY    CP224882   8.544   7.784   7.666 -0.4020 -0.1062 -0.1744
  996THY    HP224883   8.464   7.750   7.599 -0.5388  1.6655 -0.9601
  996THY    HP324884   8.601   7.854   7.605 -1.7749  0.2793 -1.0675
  996THY    HP424885   8.615   7.705   7.695  0.4639  0.6347 -0.2570
  996THY    CP324886   8.604   7.860   7.899  0.5903  0.0276  0.0902
  996THY    HP524887   8.649   7.763   7.924  0.6506 -0.5220 -1.9560
  996THY    HP624888   8.683   7.930   7.868 -1.0274  0.5862 -3.1946
  996THY    HP724889   8.566   7.903   7.992  2.1204  1.3814  0.1419
  996THY    CA324890   8.508   8.092   7.717  0.6269 -0.1136 -1.7827
  996THY    HA324891   8.614   8.077   7.697  0.3351 -0.6448 -3.0153
  996THY    CA424892   8.454   8.214   7.686  0.1259 -0.8898  0.4725
  996THY    HA424893   8.513   8.302   7.662 -0.3065 -0.2347  1.7419
  996THY    CA524894   8.319   8.242   7.704  0.2152  0.5124  0.0968
  996THY    CM124895   8.270   8.378   7.679 -0.3226 -0.7677 -0.0780
  996THY    HM124896   8.278   8.406   7.574  3.0016 -1.8184 -0.2435
  996THY    HM224897   8.168   8.396   7.716 -0.5208 -0.7038 -0.6546
  996THY    HM324898   8.343   8.441   7.732 -1.4380  1.0395 -0.5928
  996THY    CA624899   8.232   8.138   7.754 -1.0077 -0.0678  0.1522
  996THY    HA624900   8.124   8.151   7.760 -0.8983  0.6057  0.8906
  997THY      O24901   3.247   1.064   4.182  0.3870  0.4597 -0.3415
  997THY     HO24902   3.321   1.007   4.154  0.8652  0.1715  1.3837
  997THY    CA124903   3.212   1.145   4.077 -0.2301  0.9096 -0.3953
  997THY    CA224904   3.085   1.194   4.061  0.2988 -0.7640 -0.8776
  997THY    CP124905   2.977   1.160   4.163 -0.4960 -0.8182 -0.5823
  997THY    HP124906   2.994   1.059   4.204  0.4652 -0.0630  0.9830
  997THY    CP224907   2.986   1.240   4.289 -0.4948 -1.0567 -0.2280
  997THY    HP224908   2.986   1.349   4.272  0.5332 -1.0011  0.0706
  997THY    HP324909   2.908   1.222   4.363  0.3013 -0.3910  0.8038
  997THY    HP424910   3.081   1.222   4.340 -0.2033 -0.6096 -0.5982
  997THY    CP324911   2.835   1.174   4.104 -0.6168 -0.0535 -0.0358
  997THY    HP524912   2.812   1.281   4.098  1.7887  0.5319 -0.0549
  997THY    HP624913   2.824   1.128   4.005 -2.9088  1.7152 -0.6846
  997THY    HP724914   2.763   1.129   4.172  1.2796 -0.5351  1.7660
  997THY    CA324915   3.064   1.280   3.954 -0.3186 -0.0781 -0.0366
  997THY    HA324916   2.965   1.321   3.938  0.0432  0.6372 -0.5068
  997THY    CA424917   3.171   1.299   3.863 -0.3534 -0.4121 -0.3870
  997THY    HA424918   3.156   1.358   3.773 -0.0444 -0.4984 -0.4965
  997THY    CA524919   3.295   1.242   3.876 -0.4657 -0.2613  0.0196
  997THY    CM124920   3.398   1.266   3.782  0.0002 -0.2697  0.8850
  997THY    HM124921   3.359   1.291   3.683 -2.6217 -2.3583  1.2818
  997THY    HM224922   3.458   1.349   3.822  0.6991 -0.4626  0.2465
  997THY    HM324923   3.456   1.173   3.777  0.6597  0.1864 -0.6674
  997THY    CA624924   3.322   1.160   3.985 -0.1578 -0.4782  0.1790
  997THY    HA624925   3.422   1.121   4.007 -0.2533 -1.4069 -0.9547
  998THY      O24926   8.842   9.728   7.189  0.4651 -0.0103 -0.2209
  998THY     HO24927   8.841   9.804   7.249  0.7390  2.3367 -2.9547
  998THY    CA124928   8.778   9.754   7.078  0.5146 -0.2462 -0.0072
  998THY    CA224929   8.678   9.666   7.021  0.6819 -0.7158 -0.0619
  998THY    CP124930   8.642   9.540   7.098  0.0729 -0.2705 -0.6454
  998THY    HP124931   8.737   9.509   7.143 -0.4288  1.6277  1.9460
  998THY    CP224932   8.540   9.555   7.212 -0.0997 -0.8236  0.1860
  998THY    HP224933   8.591   9.602   7.297  0.2556 -1.6482  0.4410
  998THY    HP324934   8.454   9.611   7.173 -0.5802 -1.3557  0.4710
  998THY    HP424935   8.526   9.453   7.251  2.7142 -0.8486  1.4087
  998THY    CP324936   8.597   9.430   7.006 -0.0187  0.2567 -0.6739
  998THY    HP524937   8.607   9.338   7.065  0.7587  0.2266 -0.8416
  998THY    HP624938   8.492   9.436   6.977 -0.1656 -0.0958 -0.2315
  998THY    HP724939   8.670   9.429   6.924 -0.0310  2.8725 -0.7897
  998THY    CA324940   8.620   9.704   6.897 -0.1294 -0.2875 -0.1512
  998THY    HA324941   8.545   9.646   6.845 -0.8633  0.3536  0.1638
  998THY    CA424942   8.657   9.822   6.835  0.3011 -0.3084 -0.0089
  998THY    HA424943   8.610   9.852   6.742 -1.3439  1.7988  1.4002
  998THY    CA524944   8.743   9.909   6.896  0.4508  0.0640  0.7911
  998THY    CM124945   8.777  10.038   6.835 -0.4078  0.2306  0.2368
  998THY    HM124946   8.699  10.082   6.772  0.4166 -0.0467 -1.0106
  998THY    HM224947   8.792  10.114   6.913 -0.0754 -1.0018  1.4049
  998THY    HM324948   8.871  10.023   6.781  1.0679 -0.1513  2.7413
  998THY    CA624949   8.805   9.876   7.014 -1.3194 -0.8020 -0.0200
  998THY    HA624950   8.878   9.941   7.062  0.9338 -4.5671  2.1444
  999THY      O24951   4.940   4.263   6.368 -0.4234  0.1216 -0.2085
  999THY     HO24952   4.845   4.263   6.390 -0.4397 -0.2218 -0.2667
  999THY    CA124953   4.956   4.382   6.305 -0.0085 -0.0428  0.0596
  999THY    CA224954   5.080   4.443   6.274  0.1141  1.2525 -0.4017
  999THY    CP124955   5.212   4.359   6.282  0.2141 -0.0572 -0.1851
  999THY    HP124956   5.197   4.267   6.338  0.0098 -0.3321 -0.6875
  999THY    CP224957   5.248   4.307   6.139 -0.0306  0.0825  0.4963
  999THY    HP224958   5.328   4.232   6.146  0.6820  0.8591  0.8909
  999THY    HP324959   5.159   4.274   6.085 -0.6257  1.7682  0.3819
  999THY    HP424960   5.304   4.388   6.090  0.2434 -0.4419 -0.0728
  999THY    CP324961   5.316   4.434   6.360 -0.6705 -0.4357  0.4299
  999THY    HP524962   5.401   4.367   6.377  0.7707  1.3202  0.4634
  999THY    HP624963   5.348   4.518   6.297 -2.2012 -0.5548 -0.5563
  999THY    HP724964   5.286   4.472   6.458 -0.6353  2.5249 -0.5959
  999THY    CA324965   5.085   4.580   6.241  0.3153 -0.2390 -0.4594
  999THY    HA324966   5.175   4.635   6.217 -0.1471  0.5035 -0.4958
  999THY    CA424967   4.960   4.651   6.235  1.2142 -0.2850  0.2919
  999THY    HA424968   4.959   4.757   6.210  1.2638 -0.3707 -0.0839
  999THY    CA524969   4.838   4.589   6.255  0.0964 -0.0013  0.0057
  999THY    CM124970   4.707   4.656   6.223  0.9527 -0.1608 -0.4644
  999THY    HM124971   4.679   4.629   6.120 -1.0966  0.3224 -0.0783
  999THY    HM224972   4.632   4.627   6.297 -0.2546  1.4783 -0.9850
  999THY    HM324973   4.715   4.765   6.219  0.1918 -0.0433  0.8242
  999THY    CA624974   4.840   4.454   6.279 -1.0406 -0.2713  0.0348
  999THY    HA624975   4.746   4.402   6.295 -0.3846 -0.9999  1.7187
 1000THY      O24976   5.605   7.586   5.315 -0.0469 -0.2974 -0.4427
 1000THY     HO24977   5.510   7.580   5.294 -0.3791  2.3098 -0.0282
 1000THY    CA124978   5.611   7.613   5.448 -0.0889  0.3155  0.7530
 1000THY    CA224979   5.729   7.654   5.507 -0.3121  0.3336  0.8250
 1000THY    CP124980   5.856   7.683   5.429  0.0676 -0.0969  0.2508
 1000THY    HP124981   5.839   7.684   5.320  0.8309 -1.2720  0.0928
 1000THY    CP224982   5.907   7.827   5.459 -0.7475 -0.1678 -0.9383
 1000THY    HP224983   5.970   7.826   5.549 -1.7591  0.8384 -0.1954
 1000THY    HP324984   5.980   7.842   5.378  1.8397 -1.9683  0.9023
 1000THY    HP424985   5.831   7.905   5.467 -0.5011 -0.1143  1.5291
 1000THY    CP324986   5.971   7.579   5.466  0.5461 -0.1923  0.0828
 1000THY    HP524987   5.990   7.585   5.573 -0.6634  0.0065  0.3020
 1000THY    HP624988   5.951   7.472   5.456  1.7021 -0.4123 -0.0931
 1000THY    HP724989   6.067   7.601   5.417  0.3619  0.0336 -0.1864
 1000THY    CA324990   5.733   7.681   5.644 -0.9743 -0.0079  0.3960
 1000THY    HA324991   5.823   7.726   5.684 -2.1487  3.4276 -0.4666
 1000THY    CA424992   5.627   7.650   5.724  1.1079 -0.3273 -0.0761
 1000THY    HA424993   5.626   7.664   5.832 -0.5497 -1.0375  0.0345
 1000THY    CA524994   5.505   7.618   5.666 -0.6897  0.1080 -0.6655
 1000THY    CM124995   5.376   7.619   5.743 -1.4615  0.1349  0.3910
 1000THY    HM124996   5.371   7.548   5.827  0.4012  1.4144  1.6594
 1000THY    HM224997   5.359   7.716   5.789  0.6858 -1.0192  3.9968
 1000THY    HM324998   5.288   7.595   5.682 -1.9031 -1.5099  1.6112
 1000THY    CA624999   5.495   7.598   5.530 -0.1993  0.5391  0.4434
 1000THY    HA625000   5.406   7.575   5.472 -0.7843 -3.8316  2.6889
 1001THY      O25001   2.609   1.986   2.699  0.2076  0.3131 -0.1826
 1001THY     HO25002   2.661   1.904   2.697 -0.0618  0.1464 -1.0555
 1001THY    CA125003   2.471   1.941   2.690  0.0073 -0.7327 -0.0482
 1001THY    CA225004   2.372   2.026   2.660 -0.3677 -0.7437  0.1999
 1001THY    CP125005   2.405   2.178   2.641  0.1175  0.2614  0.2711
 1001THY    HP125006   2.499   2.211   2.686 -0.1860  1.0111  0.3745
 1001THY    CP225007   2.426   2.224   2.495 -0.3635 -0.2092  0.1538
 1001THY    HP225008   2.337   2.214   2.431 -0.4011  1.8491 -0.1950
 1001THY    HP325009   2.448   2.331   2.484 -0.2725 -0.3135 -0.7740
 1001THY    HP425010   2.510   2.166   2.455  0.6711  2.1326 -1.3087
 1001THY    CP325011   2.302   2.277   2.711 -0.1465 -0.4254 -0.0237
 1001THY    HP525012   2.288   2.250   2.816 -0.2281  0.2820  0.1505
 1001THY    HP625013   2.334   2.380   2.690 -0.3752  0.1682  2.2650
 1001THY    HP725014   2.205   2.264   2.660 -0.5800 -0.5875  0.8321
 1001THY    CA325015   2.237   1.984   2.651 -0.3363 -0.0487  0.6327
 1001THY    HA325016   2.161   2.059   2.632  1.1093  1.2221 -0.5246
 1001THY    CA425017   2.208   1.854   2.667 -0.8246  0.6682 -0.1926
 1001THY    HA425018   2.104   1.825   2.658 -0.8909  0.6831  0.4777
 1001THY    CA525019   2.311   1.765   2.713 -0.2815 -0.1820 -0.7714
 1001THY    CM125020   2.280   1.620   2.724 -0.1359  0.2509  0.5404
 1001THY    HM125021   2.240   1.592   2.822 -0.5983  0.8418  0.5269
 1001THY    HM225022   2.215   1.592   2.641  0.7359 -0.3315  0.0419
 1001THY    HM325023   2.371   1.561   2.705 -0.5422 -0.2695  0.2060
 1001THY    CA625024   2.445   1.813   2.722 -0.3424  0.1109  0.1414
 1001THY    HA625025   2.521   1.737   2.737  0.7299  1.2359  0.6125
 1002THY      O25026   2.291   5.689   8.955  0.6440  0.2269 -0.1642
 1002THY     HO25027   2.249   5.647   8.878  0.8337 -1.8935  0.8196
 1002THY    CA125028   2.410   5.626   8.952 -0.2805 -0.1691  0.4760
 1002THY    CA225029   2.529   5.704   8.995 -0.7442 -0.2253 -0.4017
 1002THY    CP125030   2.524   5.850   9.039  0.3156  0.6520 -0.5312
 1002THY    HP125031   2.429   5.872   9.089  0.6872  1.6202 -0.2217
 1002THY    CP225032   2.624   5.868   9.158 -0.2978 -0.6108  0.2917
 1002THY    HP225033   2.607   5.789   9.231 -1.5716 -1.6915 -1.1026
 1002THY    HP325034   2.728   5.887   9.130 -0.9820 -0.5166 -2.5926
 1002THY    HP425035   2.593   5.960   9.209  1.7799  1.0057 -1.1625
 1002THY    CP325036   2.556   5.949   8.928 -0.2700  0.1584  0.6104
 1002THY    HP525037   2.554   6.049   8.973 -2.0091  1.0407 -1.2529
 1002THY    HP625038   2.655   5.927   8.887 -0.5061  2.6609 -1.6041
 1002THY    HP725039   2.472   5.941   8.858 -0.6224 -0.9467  1.1363
 1002THY    CA325040   2.652   5.637   8.973 -0.5073 -0.1454 -0.3604
 1002THY    HA325041   2.746   5.684   9.001 -1.7635 -0.0050  4.4620
 1002THY    CA425042   2.647   5.496   8.931 -0.2317 -0.6221  0.8788
 1002THY    HA425043   2.741   5.441   8.936  0.1875  0.0462  0.5603
 1002THY    CA525044   2.530   5.426   8.917 -0.0929 -0.1180  0.0343
 1002THY    CM125045   2.523   5.278   8.896  0.5963 -0.0021  0.1279
 1002THY    HM125046   2.583   5.248   8.809  1.2394  1.8551 -0.1081
 1002THY    HM225047   2.567   5.218   8.976 -0.1570 -2.0884 -0.9520
 1002THY    HM325048   2.418   5.247   8.888  0.5815 -0.1254  0.7301
 1002THY    CA625049   2.408   5.491   8.927 -0.5624 -0.6491  0.0924
 1002THY    HA625050   2.311   5.447   8.907 -0.5898 -1.2687  1.5081
 1003THY      O25051   8.297   0.343   2.234  0.2134 -0.3894  0.2173
 1003THY     HO25052   8.305   0.364   2.139 -0.9547  0.6107  0.3218
 1003THY    CA125053   8.412   0.375   2.295 -0.0257 -0.3058  0.2615
 1003THY    CA225054   8.422   0.402   2.434 -0.9123  0.6629 -0.8209
 1003THY    CP125055   8.292   0.412   2.513 -0.1873  0.0165  0.3760
 1003THY    HP125056   8.211   0.441   2.446  1.5922 -2.1015 -2.9868
 1003THY    CP225057   8.269   0.275   2.582  0.2864 -0.5574 -0.1604
 1003THY    HP225058   8.289   0.195   2.510 -0.9745  0.5053 -1.7487
 1003THY    HP325059   8.325   0.254   2.675  0.2371 -0.8984 -0.2066
 1003THY    HP425060   8.165   0.272   2.617  0.5648  1.2447  0.9902
 1003THY    CP325061   8.287   0.514   2.625 -0.2428 -0.6465  0.3539
 1003THY    HP525062   8.358   0.508   2.708 -2.9733 -0.3441  2.8914
 1003THY    HP625063   8.315   0.606   2.573  1.8500 -1.5915 -0.3186
 1003THY    HP725064   8.185   0.537   2.659 -0.1627  3.1763 -1.5250
 1003THY    CA325065   8.549   0.423   2.491 -0.3331 -0.5950 -0.1336
 1003THY    HA325066   8.556   0.437   2.598 -1.4535 -2.4188  0.2180
 1003THY    CA425067   8.664   0.423   2.412 -0.5009 -0.3384 -0.2137
 1003THY    HA425068   8.759   0.440   2.460 -0.5686 -0.4256 -0.0450
 1003THY    CA525069   8.652   0.405   2.271  0.0756  0.1549 -0.6400
 1003THY    CM125070   8.774   0.392   2.185  0.5049 -0.5486 -0.3339
 1003THY    HM125071   8.766   0.295   2.135 -1.0882 -0.2184 -0.7976
 1003THY    HM225072   8.778   0.480   2.120  1.4382 -0.6335 -0.4017
 1003THY    HM325073   8.870   0.374   2.235 -0.1308  0.5257  1.4051
 1003THY    CA625074   8.527   0.374   2.219  0.2484 -0.0136  0.2551
 1003THY    HA625075   8.526   0.353   2.113 -1.7455 -1.0384  0.4332
 1004THY      O25076   2.221   3.125   2.807  0.2348  0.6081  0.1617
 1004THY     HO25077   2.215   3.036   2.767  1.7385  0.7559 -0.4425
 1004THY    CA125078   2.346   3.133   2.866 -0.2367  0.1076 -0.2503
 1004THY    CA225079   2.459   3.053   2.834  0.0948  0.1733 -0.9066
 1004THY    CP125080   2.450   2.938   2.738  0.0200  0.2111  0.2513
 1004THY    HP125081   2.349   2.932   2.695  0.6007  0.1070 -1.1580
 1004THY    CP225082   2.525   2.953   2.612 -0.7735  0.0996  0.8127
 1004THY    HP225083   2.487   3.044   2.563  0.9291 -0.7700 -2.3677
 1004THY    HP325084   2.632   2.956   2.633 -0.5284 -3.5426  0.6233
 1004THY    HP425085   2.501   2.871   2.544 -1.0711  0.5624  0.3531
 1004THY    CP325086   2.491   2.813   2.813  0.0556 -0.0186 -0.3684
 1004THY    HP525087   2.593   2.817   2.855 -0.3293  0.3052  0.5729
 1004THY    HP625088   2.430   2.783   2.899  2.7754 -1.7309  1.1411
 1004THY    HP725089   2.484   2.732   2.740 -0.8907 -1.0537  0.8333
 1004THY    CA325090   2.578   3.081   2.904 -0.5084 -0.1971  0.2856
 1004THY    HA325091   2.669   3.025   2.884 -0.3457  0.6427 -1.5147
 1004THY    CA425092   2.582   3.171   3.005 -0.3606 -0.2364 -0.2668
 1004THY    HA425093   2.666   3.167   3.074 -0.1915 -0.3130 -0.4755
 1004THY    CA525094   2.464   3.241   3.039  0.5843 -0.2941  0.1742
 1004THY    CM125095   2.473   3.334   3.161 -0.1968  0.1293  0.0363
 1004THY    HM125096   2.376   3.328   3.212  0.7097 -0.7140  1.7720
 1004THY    HM225097   2.551   3.308   3.233  0.5484 -0.6169 -1.0157
 1004THY    HM325098   2.494   3.437   3.128  1.1157  0.1796  0.9298
 1004THY    CA625099   2.352   3.234   2.968  0.1011 -0.0698 -0.2556
 1004THY    HA625100   2.261   3.286   2.997 -0.2664 -1.1373  0.5667
 1005THY      O25101   2.097   8.118   7.803  0.5221  0.8285  0.1465
 1005THY     HO25102   2.064   8.131   7.712 -0.4867  1.8147  0.6280
 1005THY    CA125103   2.065   7.991   7.840 -0.5239 -0.3353 -0.1300
 1005THY    CA225104   2.128   7.931   7.956 -0.1291 -0.5520  0.6645
 1005THY    CP125105   2.240   8.001   8.021  0.2423 -0.2172 -0.0798
 1005THY    HP125106   2.288   8.070   7.951 -1.2347  0.7657 -0.1663
 1005THY    CP225107   2.197   8.083   8.151  0.2350  0.0512 -0.0150
 1005THY    HP225108   2.134   8.169   8.127  1.4018  0.8974 -0.1214
 1005THY    HP325109   2.138   8.009   8.206 -0.1987  2.0115  2.2711
 1005THY    HP425110   2.285   8.119   8.206  1.3887 -1.5576 -0.7019
 1005THY    CP325111   2.363   7.910   8.052  0.3572  0.5130  0.3825
 1005THY    HP525112   2.393   7.858   7.960 -0.2565 -1.5461  1.2732
 1005THY    HP625113   2.445   7.971   8.090  0.8237  0.1426 -0.0136
 1005THY    HP725114   2.342   7.829   8.122 -1.6948  1.9496  1.5423
 1005THY    CA325115   2.073   7.805   7.995  0.1586 -0.6732  0.4826
 1005THY    HA325116   2.117   7.751   8.079  2.2731  1.2238  0.7031
 1005THY    CA425117   1.968   7.745   7.927  0.2594 -1.2973 -0.2851
 1005THY    HA425118   1.921   7.651   7.953  0.6251 -1.1428  1.0225
 1005THY    CA525119   1.925   7.805   7.806  0.5939  0.3635 -0.4000
 1005THY    CM125120   1.802   7.739   7.729  0.5780  0.2179 -0.6762
 1005THY    HM125121   1.760   7.655   7.785 -0.4291  0.9538 -0.3145
 1005THY    HM225122   1.721   7.811   7.715  0.1478  0.5179  2.6263
 1005THY    HM325123   1.851   7.720   7.633 -0.2856  2.8125 -1.7046
 1005THY    CA625124   1.972   7.929   7.764 -0.0121  0.2915  0.4627
 1005THY    HA625125   1.913   7.976   7.686 -0.0145  0.0122  0.2945
 1006THY      O25126   3.532   9.826   5.348 -0.1795 -0.0893 -0.0166
 1006THY     HO25127   3.484   9.886   5.408 -1.2248 -1.7541  0.9213
 1006THY    CA125128   3.458   9.714   5.332 -0.3268 -0.1173  0.3884
 1006THY    CA225129   3.510   9.604   5.251  0.1241  0.4587  0.4168
 1006THY    CP125130   3.653   9.605   5.196 -0.6252 -0.1733  0.2699
 1006THY    HP125131   3.705   9.700   5.210 -0.8283  0.2701 -1.6874
 1006THY    CP225132   3.737   9.504   5.272 -0.2568 -0.5506 -0.1465
 1006THY    HP225133   3.839   9.521   5.235  0.0017  0.8554  1.0981
 1006THY    HP325134   3.737   9.534   5.378 -0.5655  0.0793 -0.3186
 1006THY    HP425135   3.702   9.401   5.264  1.3314 -1.0188 -1.6623
 1006THY    CP325136   3.655   9.583   5.037 -0.0149  0.4287  0.6244
 1006THY    HP525137   3.625   9.671   4.979 -1.9114 -1.6299 -1.7712
 1006THY    HP625138   3.749   9.543   4.996 -1.4944 -1.6693 -1.0020
 1006THY    HP725139   3.591   9.501   5.000  1.9704 -2.0746  2.4140
 1006THY    CA325140   3.418   9.494   5.217 -0.3928  0.3002  0.0029
 1006THY    HA325141   3.448   9.408   5.157  1.9779 -0.1799  1.7542
 1006THY    CA425142   3.300   9.483   5.294  0.7050 -0.8973  0.3489
 1006THY    HA425143   3.249   9.388   5.280 -0.7456 -0.2122  0.8011
 1006THY    CA525144   3.259   9.584   5.380 -0.2167  0.0916 -0.6286
 1006THY    CM125145   3.135   9.580   5.465 -0.8717  0.3039  0.3247
 1006THY    HM125146   3.161   9.584   5.571 -0.5350 -1.4399  0.3384
 1006THY    HM225147   3.086   9.678   5.455 -2.5896 -0.1949  2.9528
 1006THY    HM325148   3.061   9.501   5.449  0.9156 -1.7375  1.6866
 1006THY    CA625149   3.339   9.697   5.397  0.9605 -0.5202 -0.0442
 1006THY    HA625150   3.300   9.775   5.462 -2.5035  0.4115 -2.9693
 1007THY      O25151   3.940   7.626   0.943  0.0162  0.0647 -0.0220
 1007THY     HO25152   4.016   7.564   0.945 -2.0758 -2.6785  1.8293
 1007THY    CA125153   3.831   7.550   0.908 -0.2203 -0.3060 -0.3973
 1007THY    CA225154   3.697   7.599   0.921 -0.4210 -0.4313 -0.4351
 1007THY    CP125155   3.667   7.745   0.959 -0.4033  0.7549  0.1556
 1007THY    HP125156   3.761   7.773   1.008 -0.2528  0.1073  0.2527
 1007THY    CP225157   3.634   7.841   0.847 -0.3469  0.1351  0.3346
 1007THY    HP225158   3.533   7.834   0.805 -0.1373 -1.1411  0.0230
 1007THY    HP325159   3.671   7.941   0.873 -0.2332  0.2575 -0.2877
 1007THY    HP425160   3.693   7.805   0.762 -2.0190 -0.1927 -0.7462
 1007THY    CP325161   3.566   7.746   1.070  0.0319  0.3129 -0.2449
 1007THY    HP525162   3.534   7.847   1.098 -0.7347 -0.3749  1.4740
 1007THY    HP625163   3.476   7.711   1.019  0.2749 -1.3338  0.3908
 1007THY    HP725164   3.587   7.698   1.166 -2.2309  0.4784  0.3729
 1007THY    CA325165   3.590   7.505   0.898 -0.6444 -0.3853  0.7530
 1007THY    HA325166   3.485   7.533   0.895 -0.5782 -0.2184 -0.2144
 1007THY    CA425167   3.621   7.376   0.855 -0.1831 -0.0761  0.6162
 1007THY    HA425168   3.543   7.312   0.816 -0.4980  0.0780  0.9859
 1007THY    CA525169   3.752   7.335   0.841 -0.8827  0.8656 -0.2874
 1007THY    CM125170   3.778   7.198   0.785  0.5335  0.0365  0.7285
 1007THY    HM125171   3.854   7.202   0.706  1.2264 -2.7516  1.1528
 1007THY    HM225172   3.817   7.136   0.866 -0.7588 -0.2333  1.1764
 1007THY    HM325173   3.688   7.151   0.743  0.5351 -0.0840  0.8594
 1007THY    CA625174   3.859   7.422   0.867 -0.3431  0.5244 -0.4583
 1007THY    HA625175   3.961   7.387   0.857 -0.2302  0.8566 -0.4603
 1008THY      O25176   8.803   0.394   0.594 -0.0290 -0.4994  0.2271
 1008THY     HO25177   8.818   0.300   0.612 -0.1076 -0.0773  2.9055
 1008THY    CA125178   8.925   0.441   0.563 -0.4326  0.0881  0.4052
 1008THY    CA225179   8.937   0.573   0.508  0.1535  0.3626  0.3463
 1008THY    CP125180   8.816   0.671   0.495  0.1293 -0.1201  0.4650
 1008THY    HP125181   8.720   0.619   0.501  0.9889 -1.6357  1.7943
 1008THY    CP225182   8.823   0.776   0.608  0.0574  0.1877 -0.1163
 1008THY    HP225183   8.747   0.852   0.586 -1.2789 -0.3620  2.2192
 1008THY    HP325184   8.793   0.729   0.703  1.2901  0.2278  0.3111
 1008THY    HP425185   8.920   0.827   0.616  0.4006  0.2422 -3.3828
 1008THY    CP325186   8.812   0.741   0.358 -0.2020  0.1208 -0.6345
 1008THY    HP525187   8.900   0.802   0.336 -1.5559  2.4961  0.1221
 1008THY    HP625188   8.795   0.673   0.274 -0.6675 -2.3872  1.3680
 1008THY    HP725189   8.729   0.812   0.352  0.6495  1.3477  1.2910
 1008THY    CA325190   9.068   0.615   0.465 -0.3306 -0.1055 -0.5143
 1008THY    HA325191   9.081   0.720   0.438 -0.1280  0.2131  0.7582
 1008THY    CA425192   9.175   0.529   0.482 -0.2861 -0.5666 -0.1064
 1008THY    HA425193   9.272   0.568   0.451 -0.9285  1.4684  0.2919
 1008THY    CA525194   9.160   0.399   0.539 -0.1827  0.4141  0.0398
 1008THY    CM125195   9.294   0.320   0.532  0.6132  0.2816 -0.5616
 1008THY    HM125196   9.331   0.285   0.435  0.1694 -2.0165  0.0162
 1008THY    HM225197   9.379   0.376   0.572  0.2737  0.9184 -0.7130
 1008THY    HM325198   9.285   0.230   0.595  1.8658 -0.2383 -1.0881
 1008THY    CA625199   9.034   0.358   0.583 -1.0947  0.1576  0.7149
 1008THY    HA625200   9.023   0.258   0.623  1.3064 -0.0931  0.9310
 1009THY      O25201   0.552   2.749   8.910 -0.3741  0.3260  0.2046
 1009THY     HO25202   0.575   2.669   8.860  0.2255  0.9494 -0.5560
 1009THY    CA125203   0.672   2.811   8.934 -0.2492  0.4711 -0.0662
 1009THY    CA225204   0.682   2.929   9.006  0.1346  0.1301  0.2728
 1009THY    CP125205   0.558   2.985   9.083 -0.0929  0.1702 -0.3100
 1009THY    HP125206   0.470   2.919   9.078 -0.7186  1.0017 -0.4948
 1009THY    CP225207   0.586   2.997   9.233 -0.3160  0.6685  0.1436
 1009THY    HP225208   0.492   3.029   9.280  0.9801  2.4674  1.6482
 1009THY    HP325209   0.622   2.907   9.284 -0.6785  0.0608 -0.6465
 1009THY    HP425210   0.655   3.079   9.252  0.0677  0.4118 -0.1223
 1009THY    CP325211   0.525   3.127   9.033 -0.0251 -0.2382 -0.3289
 1009THY    HP525212   0.623   3.173   9.015  0.0144  0.5366  1.6660
 1009THY    HP625213   0.465   3.125   8.941 -0.4903  1.0080 -0.0685
 1009THY    HP725214   0.466   3.180   9.108  0.3775  1.0050 -0.8710
 1009THY    CA325215   0.808   2.986   9.020 -0.8633 -0.1668 -0.0753
 1009THY    HA325216   0.817   3.082   9.069  1.0199 -0.1165 -0.4325
 1009THY    CA425217   0.917   2.924   8.961 -0.0825 -0.9801  0.0123
 1009THY    HA425218   1.015   2.963   8.985 -1.6905  1.5395  3.1538
 1009THY    CA525219   0.902   2.810   8.895 -0.7185  0.4805  0.2654
 1009THY    CM125220   1.023   2.746   8.848  0.0611 -0.1017 -0.3518
 1009THY    HM125221   0.984   2.644   8.841 -1.5682  0.0346  3.9009
 1009THY    HM225222   1.054   2.785   8.750 -1.3650  0.9055 -0.4382
 1009THY    HM325223   1.102   2.750   8.923 -0.0635 -0.1173 -0.2183
 1009THY    CA625224   0.780   2.748   8.876 -0.1292 -0.0666 -0.2078
 1009THY    HA625225   0.764   2.656   8.819  2.0427  0.1961 -1.3597
 1010THY      O25226   7.796   1.700   9.393 -0.2757  0.1395  0.3978
 1010THY     HO25227   7.861   1.661   9.332 -0.0196  1.3922 -0.1522
 1010THY    CA125228   7.846   1.819   9.428 -0.3843 -0.9715  0.7622
 1010THY    CA225229   7.818   1.879   9.549 -0.2119  0.5206 -0.7305
 1010THY    CP125230   7.698   1.834   9.639 -0.1677  0.1586  0.1948
 1010THY    HP125231   7.663   1.737   9.603 -2.1976  1.1584 -0.7236
 1010THY    CP225232   7.733   1.818   9.789  0.4843 -0.0611  0.1602
 1010THY    HP225233   7.725   1.915   9.840 -3.8695 -0.9390  1.5688
 1010THY    HP325234   7.671   1.742   9.838  0.6029  1.2830  2.5450
 1010THY    HP425235   7.838   1.792   9.808  0.8580  1.5285  0.4358
 1010THY    CP325236   7.575   1.922   9.617 -0.2492  0.2397 -0.1425
 1010THY    HP525237   7.561   1.934   9.509  1.7026  2.1348 -0.2521
 1010THY    HP625238   7.488   1.873   9.663  0.6134  0.8422  2.2892
 1010THY    HP725239   7.600   2.015   9.671  0.1811 -1.6554  3.1724
 1010THY    CA325240   7.905   1.988   9.589 -0.1710 -0.4144 -0.2565
 1010THY    HA325241   7.893   2.038   9.685  0.0870 -1.3367  0.2715
 1010THY    CA425242   8.006   2.036   9.501  0.7498 -0.7490  0.5848
 1010THY    HA425243   8.064   2.124   9.526  0.4949 -0.5415  0.4502
 1010THY    CA525244   8.021   1.976   9.374 -0.2447  0.5726  0.1682
 1010THY    CM125245   8.108   2.031   9.267 -0.2774  0.1713  0.0950
 1010THY    HM125246   8.129   2.137   9.283 -0.2751  0.4214 -1.4385
 1010THY    HM225247   8.200   1.976   9.245  0.8395  1.6362  0.8958
 1010THY    HM325248   8.050   2.021   9.175  1.2319 -0.1506 -0.8436
 1010THY    CA625249   7.944   1.866   9.340 -0.4114 -0.1147 -0.5722
 1010THY    HA625250   7.967   1.823   9.243  0.6815 -1.2031  0.1350
 1011THY      O25251   5.668   0.737   2.537  0.0058  0.2851  0.1976
 1011THY     HO25252   5.669   0.703   2.446 -2.1190 -0.9291  0.5594
 1011THY    CA125253   5.588   0.851   2.536 -0.0006 -0.2221 -0.2741
 1011THY    CA225254   5.585   0.938   2.649  0.3071  0.0324 -0.2080
 1011THY    CP125255   5.685   0.918   2.765  0.4585  0.1376 -0.2258
 1011THY    HP125256   5.721   0.814   2.768 -1.5746 -0.6192 -0.4658
 1011THY    CP225257   5.800   1.012   2.751 -0.4117 -0.9012  0.0354
 1011THY    HP225258   5.777   1.113   2.718 -2.9027 -0.4965  2.6378
 1011THY    HP325259   5.861   1.027   2.841  1.7882  0.9518 -1.6455
 1011THY    HP425260   5.875   0.956   2.694 -0.4869 -1.5458  0.5591
 1011THY    CP325261   5.625   0.935   2.902 -0.6856 -0.0596  0.2356
 1011THY    HP525262   5.527   0.887   2.892 -1.2463  1.3295 -1.4101
 1011THY    HP625263   5.687   0.892   2.982 -0.1376  2.8202  1.4908
 1011THY    HP725264   5.614   1.042   2.923 -0.8112 -0.1512  0.6594
 1011THY    CA325265   5.490   1.043   2.651  0.2341  0.1517  0.7504
 1011THY    HA325266   5.492   1.117   2.730 -0.4489  0.9567  0.0264
 1011THY    CA425267   5.398   1.059   2.542  0.1936  0.3321  0.5650
 1011THY    HA425268   5.311   1.120   2.564 -0.5947 -0.1046 -1.1917
 1011THY    CA525269   5.401   0.971   2.436  0.2720 -0.1142 -0.3989
 1011THY    CM125270   5.298   0.966   2.337  0.1595 -0.5907 -0.4625
 1011THY    HM125271   5.325   1.017   2.244  2.4748 -1.8857 -0.5862
 1011THY    HM225272   5.267   0.862   2.319  0.6249 -0.6309 -1.0341
 1011THY    HM325273   5.213   1.023   2.376  0.4364 -0.2233 -0.3872
 1011THY    CA625274   5.504   0.873   2.426  0.5078  0.7616  0.2872
 1011THY    HA625275   5.494   0.803   2.344 -1.8985  0.3546  0.8552
 1012THY      O25276   9.424   2.702   8.577 -0.2200  0.9812  0.1239
 1012THY     HO25277   9.336   2.703   8.535 -0.9254 -4.0974  0.8850
 1012THY    CA125278   9.495   2.621   8.493 -0.0933 -0.1335 -0.2843
 1012THY    CA225279   9.628   2.651   8.444 -0.3252 -0.3042 -0.8638
 1012THY    CP125280   9.704   2.783   8.494 -0.5231  0.9267 -0.3430
 1012THY    HP125281   9.699   2.786   8.603  3.0081 -0.9883  0.0166
 1012THY    CP225282   9.853   2.780   8.473 -0.1160 -0.3077 -0.2515
 1012THY    HP225283   9.886   2.678   8.496 -1.0979 -0.2427  1.6060
 1012THY    HP325284   9.884   2.790   8.369  0.0654 -1.8822 -0.3775
 1012THY    HP425285   9.908   2.856   8.530  0.6081  0.8931 -2.4526
 1012THY    CP325286   9.661   2.919   8.444  0.3421  0.2897 -0.2702
 1012THY    HP525287   9.557   2.938   8.474 -0.3329 -0.8398 -1.7899
 1012THY    HP625288   9.726   2.995   8.490  1.7281 -0.7823 -0.3942
 1012THY    HP725289   9.671   2.920   8.335 -0.4708 -1.1903 -0.3807
 1012THY    CA325290   9.681   2.564   8.341  0.8772  0.0752  0.5506
 1012THY    HA325291   9.777   2.576   8.292  1.1811 -1.9348  0.5681
 1012THY    CA425292   9.604   2.456   8.296 -0.6417  0.1918 -0.1691
 1012THY    HA425293   9.639   2.401   8.209  2.3232 -0.6057  1.3964
 1012THY    CA525294   9.480   2.432   8.341 -0.1154 -0.2512  0.8168
 1012THY    CM125295   9.391   2.333   8.270 -0.2950  0.3058 -0.0918
 1012THY    HM125296   9.334   2.280   8.347 -2.4162  1.4760 -0.7901
 1012THY    HM225297   9.326   2.397   8.209 -2.9402 -0.4534  1.7674
 1012THY    HM325298   9.450   2.270   8.202  1.1988  1.0293  0.4742
 1012THY    CA625299   9.426   2.505   8.448 -0.3123  0.2571  0.8811
 1012THY    HA625300   9.324   2.487   8.482 -0.8729 -2.0494 -1.6630
 1013THY      O25301   4.713   2.367   7.907  0.3242  0.5788 -0.1905
 1013THY     HO25302   4.733   2.335   7.996  0.5117 -0.2451 -0.5195
 1013THY    CA125303   4.786   2.286   7.827  1.1743 -0.2755  0.0262
 1013THY    CA225304   4.728   2.252   7.703 -0.4476 -0.4997  0.1244
 1013THY    CP125305   4.600   2.317   7.656  1.4940 -0.0345  0.3020
 1013THY    HP125306   4.551   2.384   7.727 -0.5055  0.2923 -1.2694
 1013THY    CP225307   4.622   2.404   7.528 -0.6784  0.3611 -0.8026
 1013THY    HP225308   4.660   2.350   7.441  1.6680  1.9584 -0.8621
 1013THY    HP325309   4.538   2.473   7.510  0.0206  1.6491  0.6131
 1013THY    HP425310   4.702   2.473   7.559 -0.2910 -0.6776  0.6186
 1013THY    CP325311   4.499   2.196   7.616  0.2672 -0.7624 -0.0572
 1013THY    HP525312   4.480   2.131   7.702 -1.0323 -0.7658 -0.3159
 1013THY    HP625313   4.400   2.243   7.608  0.9338  0.6662 -0.2541
 1013THY    HP725314   4.526   2.135   7.529 -1.6564 -0.7491 -0.7243
 1013THY    CA325315   4.790   2.155   7.621 -0.1628  0.6968  0.4695
 1013THY    HA325316   4.764   2.129   7.519  1.8220  3.5687 -0.8851
 1013THY    CA425317   4.913   2.098   7.672  1.2790 -0.1755  0.8790
 1013THY    HA425318   4.968   2.020   7.620  0.0136 -1.7067  1.7366
 1013THY    CA525319   4.962   2.135   7.801 -0.8267 -0.6218  0.6056
 1013THY    CM125320   5.079   2.058   7.852 -0.0864  0.2423  0.4390
 1013THY    HM125321   5.096   1.963   7.800  0.3283 -0.0550  1.0929
 1013THY    HM225322   5.169   2.120   7.843 -0.0530  0.4176  1.8004
 1013THY    HM325323   5.064   2.018   7.953 -1.1582 -4.5401 -1.3536
 1013THY    CA625324   4.897   2.226   7.880  0.5485  0.3340 -0.0347
 1013THY    HA625325   4.938   2.244   7.979 -0.6872  0.1749  0.5257
 1014THY      O25326   0.767   0.870   7.310 -0.4424  0.6645  0.3916
 1014THY     HO25327   0.857   0.890   7.280 -0.1985  0.4888  1.0080
 1014THY    CA125328   0.723   0.966   7.385  0.0996 -0.2172  0.0144
 1014THY    CA225329   0.649   0.945   7.496 -0.0389  0.2958 -0.5969
 1014THY    CP125330   0.625   0.797   7.546 -0.6773  0.1484  0.0925
 1014THY    HP125331   0.648   0.725   7.466  4.2088  1.1895  0.2603
 1014THY    CP225332   0.713   0.747   7.656 -0.0525  0.6570 -0.3680
 1014THY    HP225333   0.676   0.653   7.698  2.0672  0.3918  1.0894
 1014THY    HP325334   0.811   0.721   7.615  0.3056 -0.4201  1.0764
 1014THY    HP425335   0.717   0.818   7.740 -0.9514  2.6891 -1.9499
 1014THY    CP325336   0.485   0.779   7.583 -0.1306 -0.7624  0.0966
 1014THY    HP525337   0.480   0.675   7.618 -0.0894 -0.6314  0.4844
 1014THY    HP625338   0.453   0.842   7.666 -4.1413 -1.1312 -0.9708
 1014THY    HP725339   0.411   0.795   7.504 -2.1410  0.5837  2.1545
 1014THY    CA325340   0.619   1.059   7.578 -0.4477 -0.0104  0.4590
 1014THY    HA325341   0.567   1.053   7.673  0.0144  0.3449  0.7345
 1014THY    CA425342   0.668   1.183   7.547 -0.2508  0.2978 -0.2238
 1014THY    HA425343   0.651   1.272   7.607  0.4647  1.3048 -1.4520
 1014THY    CA525344   0.742   1.200   7.431  0.2616 -0.4643  0.2898
 1014THY    CM125345   0.798   1.340   7.394 -0.1174  0.1905  0.1008
 1014THY    HM125346   0.819   1.341   7.286 -1.0747  1.7365 -0.1011
 1014THY    HM225347   0.729   1.423   7.413 -0.2600 -0.3523  2.2051
 1014THY    HM325348   0.890   1.346   7.452 -0.8063  0.7040  1.1758
 1014THY    CA625349   0.766   1.096   7.352  0.2569 -0.8473 -0.0055
 1014THY    HA625350   0.831   1.106   7.267  0.6349 -0.3732  0.3366
 1015THY      O25351   7.405   5.578   5.937 -0.1874 -0.2327 -0.6998
 1015THY     HO25352   7.466   5.543   6.005 -0.7295 -1.9307 -1.0384
 1015THY    CA125353   7.464   5.645   5.835  0.5202  0.3859 -0.1651
 1015THY    CA225354   7.390   5.680   5.723 -0.2660  0.4716  0.9556
 1015THY    CP125355   7.243   5.655   5.717  0.2207 -0.2930  0.1194
 1015THY    HP125356   7.213   5.602   5.808 -0.6139 -0.6231 -0.3305
 1015THY    CP225357   7.155   5.779   5.703 -0.6857  0.3459  0.6046
 1015THY    HP225358   7.049   5.750   5.695 -0.5636 -0.3985  1.4814
 1015THY    HP325359   7.179   5.848   5.785  2.9601  0.9722 -0.7913
 1015THY    HP425360   7.177   5.836   5.613 -1.6009  0.8283  0.6719
 1015THY    CP325361   7.205   5.558   5.601  0.5469 -0.3113 -0.4308
 1015THY    HP525362   7.241   5.457   5.621  2.5274  0.9351  3.2368
 1015THY    HP625363   7.097   5.550   5.587  0.7602 -1.0773 -1.7313
 1015THY    HP725364   7.232   5.593   5.501 -1.2980  0.1532 -0.7925
 1015THY    CA325365   7.460   5.734   5.610  0.0335  0.0976  0.1757
 1015THY    HA325366   7.401   5.761   5.523 -1.1724  1.3296  1.3197
 1015THY    CA425367   7.595   5.751   5.619 -0.3424 -0.2778  0.8442
 1015THY    HA425368   7.653   5.789   5.536 -1.6956 -0.7779 -0.3784
 1015THY    CA525369   7.669   5.722   5.732  0.7093  0.3558  0.3022
 1015THY    CM125370   7.814   5.734   5.724  0.0559  0.0617 -0.4292
 1015THY    HM125371   7.856   5.834   5.739 -0.0040  0.2325 -1.3233
 1015THY    HM225372   7.864   5.657   5.783  0.0171  0.6956  0.4454
 1015THY    HM325373   7.839   5.713   5.619  1.7089 -1.1432  0.1767
 1015THY    CA625374   7.608   5.669   5.843 -0.2773  0.3221  0.1946
 1015THY    HA625375   7.673   5.639   5.925  0.1089  2.9747  0.9700
 1016THY      O25376   3.816   7.523   3.751 -0.0494 -0.2994  0.4944
 1016THY     HO25377   3.864   7.493   3.672  2.7162 -0.1532  1.9933
 1016THY    CA125378   3.861   7.653   3.762 -0.2689  0.8263 -0.7669
 1016THY    CA225379   3.779   7.753   3.801  0.2476 -0.3485  1.1849
 1016THY    CP125380   3.634   7.730   3.847  0.4182  0.0428 -0.3381
 1016THY    HP125381   3.613   7.623   3.863  1.5175  0.2521  3.7459
 1016THY    CP225382   3.619   7.781   3.990  0.2867 -0.3667  0.0852
 1016THY    HP225383   3.524   7.739   4.027 -0.8336  1.1974 -0.8764
 1016THY    HP325384   3.710   7.753   4.043 -0.0502 -0.6758  0.5101
 1016THY    HP425385   3.604   7.890   3.988 -1.9908 -0.6200  0.1376
 1016THY    CP325386   3.544   7.779   3.742  0.0699 -1.1118 -0.3289
 1016THY    HP525387   3.577   7.729   3.650  2.4806 -0.1391 -0.0637
 1016THY    HP625388   3.441   7.742   3.757 -0.8815  1.3447 -0.3689
 1016THY    HP725389   3.548   7.888   3.739 -1.2109 -0.9148  2.0997
 1016THY    CA325390   3.820   7.889   3.796  0.0799 -0.0917  0.7157
 1016THY    HA325391   3.746   7.965   3.822  0.4385  0.5172 -0.0092
 1016THY    CA425392   3.953   7.911   3.752  0.8512 -0.2473 -0.0809
 1016THY    HA425393   3.988   8.014   3.751 -2.0526  0.8283 -0.8464
 1016THY    CA525394   4.039   7.806   3.712  1.2148 -0.1859  0.2200
 1016THY    CM125395   4.185   7.832   3.668 -0.2683 -0.3007  0.0635
 1016THY    HM125396   4.249   7.756   3.714 -0.6539 -0.9319 -0.4279
 1016THY    HM225397   4.207   7.820   3.561  0.5451  0.8770  0.0831
 1016THY    HM325398   4.226   7.932   3.685  0.1570 -0.2617 -1.0944
 1016THY    CA625399   3.991   7.674   3.713  1.1763 -0.1367  0.0724
 1016THY    HA625400   4.063   7.597   3.687 -0.6854 -1.1867 -2.2748
 1017THY      O25401   7.277   4.582   7.360  0.4518 -0.0587 -0.3458
 1017THY     HO25402   7.292   4.602   7.454 -3.2164 -0.7421  0.5251
 1017THY    CA125403   7.394   4.535   7.306  0.3654  0.4414  0.1523
 1017THY    CA225404   7.399   4.475   7.181  0.2076  0.2237 -0.3409
 1017THY    CP125405   7.274   4.469   7.088  0.1799 -0.2641  0.9302
 1017THY    HP125406   7.191   4.477   7.159 -0.0238 -0.0187  0.6664
 1017THY    CP225407   7.275   4.576   6.972 -0.7424 -0.3591 -0.7041
 1017THY    HP225408   7.356   4.558   6.900 -2.3759 -0.8513 -2.4914
 1017THY    HP325409   7.185   4.578   6.909 -1.1979 -0.4594 -0.0617
 1017THY    HP425410   7.295   4.676   7.012 -0.9875 -0.3431 -0.6222
 1017THY    CP325411   7.257   4.325   7.030 -0.2928  0.0448 -0.1606
 1017THY    HP525412   7.333   4.300   6.955  0.2788  0.2906  0.3257
 1017THY    HP625413   7.259   4.249   7.110 -0.3577  0.3124  0.0992
 1017THY    HP725414   7.156   4.308   6.991 -1.0729  2.2049  0.7836
 1017THY    CA325415   7.520   4.433   7.128 -0.3437  0.4049 -0.6868
 1017THY    HA325416   7.527   4.389   7.029 -0.3128 -1.2715  0.0314
 1017THY    CA425417   7.637   4.435   7.213 -0.5407  0.7151  0.0577
 1017THY    HA425418   7.728   4.386   7.181  0.3152  1.5330  1.1478
 1017THY    CA525419   7.631   4.492   7.340  0.2795 -0.1505  0.2850
 1017THY    CM125420   7.756   4.527   7.422 -0.4083  0.6190  0.1257
 1017THY    HM125421   7.844   4.479   7.377 -0.4567  0.7148 -0.0692
 1017THY    HM225422   7.776   4.634   7.411 -0.6290  0.5603 -1.0127
 1017THY    HM325423   7.746   4.502   7.528  1.3877  0.5815  0.3175
 1017THY    CA625424   7.511   4.550   7.381 -0.7667  0.3076  0.5287
 1017THY    HA625425   7.512   4.615   7.468 -0.5150  0.8076  0.1529
 1018THY      O25426   4.569   7.803   5.258  0.1046 -0.7855 -0.0447
 1018THY     HO25427   4.524   7.846   5.332  0.7280  2.2583 -1.2836
 1018THY    CA125428   4.492   7.703   5.209  0.0188 -0.2711  0.5792
 1018THY    CA225429   4.532   7.628   5.099  0.2959  0.1488 -0.4541
 1018THY    CP125430   4.661   7.667   5.034 -0.2422  0.5517 -0.5109
 1018THY    HP125431   4.727   7.729   5.097  0.0630 -1.1807  0.9545
 1018THY    CP225432   4.759   7.548   5.019 -0.6072 -0.2605  0.4769
 1018THY    HP225433   4.773   7.484   5.107  0.4354  3.0950  2.9724
 1018THY    HP325434   4.718   7.482   4.942  0.1823  0.5020 -0.6365
 1018THY    HP425435   4.857   7.577   4.979  0.8146 -3.0192  1.6951
 1018THY    CP325436   4.641   7.727   4.895 -0.4516  0.0828 -0.3125
 1018THY    HP525437   4.597   7.660   4.821  1.3512 -2.5716  0.8779
 1018THY    HP625438   4.580   7.816   4.916 -0.6046  0.3493 -1.7575
 1018THY    HP725439   4.730   7.768   4.846 -2.3539  3.4909 -1.2815
 1018THY    CA325440   4.446   7.529   5.045  0.1903  0.4242 -0.8999
 1018THY    HA325441   4.488   7.456   4.976 -0.9474 -1.1492  0.0135
 1018THY    CA425442   4.320   7.510   5.103 -0.1175  0.2001 -0.0189
 1018THY    HA425443   4.257   7.426   5.075  1.1227 -1.1978  1.1656
 1018THY    CA525444   4.282   7.594   5.208  0.4395 -0.0378 -0.0056
 1018THY    CM125445   4.145   7.586   5.254  0.3729  0.1900 -0.3652
 1018THY    HM125446   4.076   7.602   5.170  0.9058  1.0027 -0.6663
 1018THY    HM225447   4.125   7.489   5.302  1.1067  1.1920  2.1120
 1018THY    HM325448   4.137   7.661   5.333  3.3294 -0.0042  0.2243
 1018THY    CA625449   4.370   7.689   5.267  0.3990 -0.6259 -0.0887
 1018THY    HA625450   4.344   7.757   5.347  3.3453  0.3000  0.1998
 1019THY      O25451   4.571   5.165   6.628 -0.4020  0.0688  0.3910
 1019THY     HO25452   4.548   5.173   6.534 -0.3810  2.4510  0.5265
 1019THY    CA125453   4.507   5.062   6.675 -0.3706  0.1978  0.5267
 1019THY    CA225454   4.508   5.030   6.814 -0.7333 -0.2514  0.1049
 1019THY    CP125455   4.584   5.113   6.915  0.5251 -0.0213 -1.0322
 1019THY    HP125456   4.647   5.178   6.852  1.6456 -1.1794 -1.1646
 1019THY    CP225457   4.498   5.191   7.009 -0.0903  0.0191 -0.4866
 1019THY    HP225458   4.448   5.130   7.086 -1.5882  0.1778 -1.2813
 1019THY    HP325459   4.567   5.256   7.063 -1.2340 -0.7211  2.0418
 1019THY    HP425460   4.426   5.249   6.950  1.4189  0.8799 -1.5357
 1019THY    CP325461   4.672   5.025   7.002  0.2507 -0.5196 -0.5611
 1019THY    HP525462   4.709   5.092   7.080  0.4106 -1.9663  0.6491
 1019THY    HP625463   4.616   4.944   7.050 -3.1239  1.3811 -0.9737
 1019THY    HP725464   4.753   4.990   6.936  1.0791  1.0144 -0.3882
 1019THY    CA325465   4.416   4.928   6.853  0.0017  0.1236 -0.0282
 1019THY    HA325466   4.398   4.917   6.959  1.6309 -3.1721  0.0184
 1019THY    CA425467   4.352   4.850   6.759 -0.4470  0.2891 -0.0036
 1019THY    HA425468   4.287   4.767   6.786 -1.2604  0.3261 -1.7020
 1019THY    CA525469   4.351   4.885   6.623 -0.2129 -0.0004  0.5480
 1019THY    CM125470   4.261   4.814   6.530 -0.1788  0.3032  0.3233
 1019THY    HM125471   4.194   4.746   6.584  0.5436 -1.3905 -0.8077
 1019THY    HM225472   4.194   4.880   6.474 -1.5293 -1.6632 -0.5178
 1019THY    HM325473   4.312   4.749   6.457 -0.3991 -0.3707  0.7571
 1019THY    CA625474   4.438   4.989   6.584  0.1023 -0.2148  0.1952
 1019THY    HA625475   4.432   5.004   6.476  2.1288  0.4711  0.1358
 1020THY      O25476   9.746   9.789   4.456  0.2253 -0.0583  0.3925
 1020THY     HO25477   9.768   9.878   4.424  0.6382  0.0243  0.8904
 1020THY    CA125478   9.861   9.733   4.480  0.2119  0.5154  0.9783
 1020THY    CA225479   9.860   9.598   4.515  0.3298  0.1800  0.1183
 1020THY    CP125480   9.727   9.524   4.547 -0.3661  0.2682  0.6912
 1020THY    HP125481   9.657   9.565   4.474  0.5102 -1.9981 -1.5485
 1020THY    CP225482   9.725   9.380   4.505 -0.3299  0.8825 -0.1946
 1020THY    HP225483   9.764   9.356   4.405 -0.4682  0.1802 -0.0849
 1020THY    HP325484   9.783   9.325   4.580  1.3828  2.8450  0.0260
 1020THY    HP425485   9.619   9.353   4.508 -0.8337  2.0661 -3.4709
 1020THY    CP325486   9.676   9.545   4.687 -0.6938  0.8676 -0.2085
 1020THY    HP525487   9.732   9.495   4.766 -3.0124 -0.6326  0.5737
 1020THY    HP625488   9.694   9.650   4.715  1.0174  0.6137 -0.3027
 1020THY    HP725489   9.569   9.523   4.698 -0.2788 -0.8940  0.4702
 1020THY    CA325490   9.980   9.534   4.539 -0.5274  0.5090 -0.6620
 1020THY    HA325491   9.988   9.430   4.571 -2.4898  0.9198  1.3728
 1020THY    CA425492  10.097   9.607   4.525 -0.2243 -0.1540 -0.5956
 1020THY    HA425493  10.193   9.564   4.550 -0.0327  0.9289  0.7026
 1020THY    CA525494  10.093   9.742   4.485 -0.1963  0.0003  0.3252
 1020THY    CM125495  10.229   9.811   4.463  0.7463  0.4325 -1.4289
 1020THY    HM125496  10.300   9.747   4.410  1.1773 -0.0839 -0.2794
 1020THY    HM225497  10.214   9.909   4.417 -0.1097  0.8235 -0.3772
 1020THY    HM325498  10.271   9.831   4.563 -0.6427 -1.2970 -0.4278
 1020THY    CA625499   9.979   9.805   4.459 -0.1245  0.5128  0.4387
 1020THY    HA625500   9.980   9.909   4.428 -0.7771  1.2034  2.5772
 1021THY      O25501   8.365   8.627   6.922  0.4207  0.3470  0.8442
 1021THY     HO25502   8.311   8.549   6.905  1.8922 -0.3523 -0.9699
 1021THY    CA125503   8.317   8.705   7.022  0.3927  0.3836  0.0505
 1021THY    CA225504   8.396   8.801   7.087  0.1258  0.2760  0.3314
 1021THY    CP125505   8.537   8.842   7.042 -0.4348  0.3920  0.1697
 1021THY    HP125506   8.586   8.766   6.979 -2.1519 -0.8583  0.2807
 1021THY    CP225507   8.535   8.955   6.940 -0.9431  0.2333 -0.8552
 1021THY    HP225508   8.482   8.924   6.850  1.2839 -1.8577 -1.5453
 1021THY    HP325509   8.484   9.042   6.985  1.0003  0.4338  1.1210
 1021THY    HP425510   8.632   8.991   6.903 -0.8411  2.1147  1.0247
 1021THY    CP325511   8.644   8.862   7.150  0.7480  0.8264  0.2239
 1021THY    HP525512   8.632   8.942   7.224  0.8915 -1.0492  2.4318
 1021THY    HP625513   8.647   8.774   7.216  0.5488  1.9174  1.7579
 1021THY    HP725514   8.743   8.858   7.104  0.5364  2.1585 -0.3581
 1021THY    CA325515   8.335   8.882   7.179 -0.7798  0.5673 -0.4314
 1021THY    HA325516   8.399   8.963   7.213 -0.4157  0.4194 -0.7585
 1021THY    CA425517   8.204   8.864   7.227 -0.5661 -1.0281 -0.4659
 1021THY    HA425518   8.168   8.942   7.293  3.1333  0.4418  0.0532
 1021THY    CA525519   8.127   8.766   7.171  0.6191 -0.1936  0.2551
 1021THY    CM125520   7.981   8.745   7.196  0.1330 -0.5060 -0.0634
 1021THY    HM125521   7.961   8.638   7.209 -0.9251 -0.4558 -1.1364
 1021THY    HM225522   7.966   8.803   7.288  0.6172 -1.4745  0.6467
 1021THY    HM325523   7.923   8.792   7.116  0.7253  0.4233  0.0399
 1021THY    CA625524   8.185   8.681   7.069  0.0414 -0.3255  0.0176
 1021THY    HA625525   8.123   8.608   7.017 -0.7720  0.2208  0.1926
 1022THY      O25526   4.236   2.860   2.315 -0.9445 -0.5560  0.3815
 1022THY     HO25527   4.244   2.772   2.356  0.8513 -0.9854 -0.7586
 1022THY    CA125528   4.109   2.855   2.268  0.3733 -0.2106  0.4309
 1022THY    CA225529   4.032   2.967   2.226  0.3899 -0.7131 -0.4196
 1022THY    CP125530   4.092   3.110   2.230  0.1201  0.0895  0.0392
 1022THY    HP125531   4.189   3.084   2.275 -0.6751 -1.9947  0.6569
 1022THY    CP225532   4.096   3.186   2.096 -0.0299  0.1941  0.2323
 1022THY    HP225533   4.174   3.144   2.032 -0.9751  1.1924 -1.6678
 1022THY    HP325534   4.004   3.169   2.040 -1.9501  1.5372  2.7646
 1022THY    HP425535   4.106   3.295   2.106  0.9317  0.5411 -3.3563
 1022THY    CP325536   4.021   3.201   2.333 -0.2497  0.3180 -0.2118
 1022THY    HP525537   3.915   3.206   2.306 -1.0178 -1.0314  2.2728
 1022THY    HP625538   4.056   3.161   2.429  1.3813 -1.4328 -1.4785
 1022THY    HP725539   4.073   3.297   2.323  0.7359 -0.1210  0.4625
 1022THY    CA325540   3.903   2.944   2.180 -0.4166 -0.1418 -0.2525
 1022THY    HA325541   3.845   3.032   2.151 -0.9053 -1.7297 -5.0244
 1022THY    CA425542   3.843   2.815   2.187  0.5464 -1.5685 -0.0865
 1022THY    HA425543   3.740   2.797   2.155  0.4200  1.6842 -1.8956
 1022THY    CA525544   3.921   2.707   2.230 -0.5463 -0.0749  0.1626
 1022THY    CM125545   3.857   2.572   2.240  0.0765  0.3332 -1.0171
 1022THY    HM125546   3.945   2.508   2.230 -0.2615 -0.5160  0.9015
 1022THY    HM225547   3.816   2.554   2.341 -0.4967  0.6926 -1.1796
 1022THY    HM325548   3.784   2.556   2.161 -0.5103  1.8963 -0.8367
 1022THY    CA625549   4.055   2.725   2.265  0.5475 -0.9315 -0.6596
 1022THY    HA625550   4.110   2.637   2.299 -0.5114 -1.6506 -0.7666
 1023THY      O25551   4.146   4.038   2.073  0.3662  0.5073 -0.3123
 1023THY     HO25552   4.065   4.052   2.022  1.3190  1.7868 -1.5927
 1023THY    CA125553   4.134   4.096   2.193 -0.2413  0.6578 -1.1098
 1023THY    CA225554   4.230   4.070   2.297  0.7407 -0.2189 -0.3126
 1023THY    CP125555   4.352   3.977   2.267  0.1357 -0.4519 -0.3738
 1023THY    HP125556   4.325   3.919   2.179  0.4889 -0.0297 -0.7700
 1023THY    CP225557   4.482   4.038   2.235  0.3874 -0.3696 -0.5444
 1023THY    HP225558   4.466   4.117   2.161 -0.1789 -1.8688 -2.0677
 1023THY    HP325559   4.534   4.079   2.323  0.2508 -2.3894  0.5414
 1023THY    HP425560   4.563   3.980   2.190  2.5321  2.3370 -0.4423
 1023THY    CP325561   4.377   3.887   2.386 -0.5369 -0.8564 -0.7842
 1023THY    HP525562   4.380   3.926   2.488 -1.6723 -0.9937 -0.6929
 1023THY    HP625563   4.290   3.821   2.375 -0.4172 -1.0765 -0.4208
 1023THY    HP725564   4.470   3.830   2.371  1.1012  1.6482 -0.7886
 1023THY    CA325565   4.217   4.140   2.416  0.2212  0.1978  0.0032
 1023THY    HA325566   4.292   4.131   2.493  0.1635  0.2962  0.0704
 1023THY    CA425567   4.108   4.223   2.434  0.4292  0.4329  0.0420
 1023THY    HA425568   4.092   4.279   2.526  1.2102  0.2610  0.2846
 1023THY    CA525569   4.001   4.231   2.339 -0.9204 -0.2084  0.2173
 1023THY    CM125570   3.885   4.324   2.347  0.6101 -0.0449  0.7964
 1023THY    HM125571   3.844   4.343   2.247  0.2823  1.8377  1.2428
 1023THY    HM225572   3.801   4.280   2.403 -1.1781  0.1798 -1.5382
 1023THY    HM325573   3.901   4.418   2.402  0.4117  0.0595  0.6768
 1023THY    CA625574   4.015   4.157   2.222  0.0581  0.6255 -0.1161
 1023THY    HA625575   3.936   4.146   2.148 -1.1110  1.7735  0.9194
 1024THY      O25576   8.866   8.142   1.707  0.2516 -0.2910  0.2496
 1024THY     HO25577   8.810   8.216   1.736  0.8698  0.4521 -0.3950
 1024THY    CA125578   8.993   8.182   1.731 -0.2371 -0.0335  0.3426
 1024THY    CA225579   9.094   8.092   1.779  0.1903  0.3417  0.2616
 1024THY    CP125580   9.051   7.951   1.816 -0.5599  1.1461  0.0171
 1024THY    HP125581   8.971   7.918   1.749 -0.3727  2.8695 -1.1187
 1024THY    CP225582   9.164   7.850   1.788 -0.0836 -0.4160  0.3059
 1024THY    HP225583   9.185   7.845   1.680 -0.4213 -1.2245  0.2701
 1024THY    HP325584   9.255   7.862   1.848  0.4212  1.4892 -0.7524
 1024THY    HP425585   9.120   7.752   1.809  0.0433 -1.0150 -1.9207
 1024THY    CP325586   9.012   7.946   1.968 -0.0068  0.1764  0.4331
 1024THY    HP525587   8.991   7.842   1.995  1.8039 -0.5846 -0.8815
 1024THY    HP625588   9.098   7.983   2.026 -1.1380  0.6963  1.8204
 1024THY    HP725589   8.926   8.012   1.978 -0.4825 -0.6216  1.7598
 1024THY    CA325590   9.224   8.141   1.812  0.4302 -0.5287  1.0878
 1024THY    HA325591   9.297   8.076   1.859  1.9213 -0.7890 -1.4324
 1024THY    CA425592   9.249   8.279   1.801 -0.4499  0.3592  0.6044
 1024THY    HA425593   9.344   8.321   1.831 -0.3794 -0.0188  0.9298
 1024THY    CA525594   9.155   8.367   1.738  0.1079  0.5077 -0.5168
 1024THY    CM125595   9.187   8.506   1.711 -0.7784 -0.4331  0.1563
 1024THY    HM125596   9.137   8.543   1.620  1.6347 -0.5145 -1.2791
 1024THY    HM225597   9.156   8.570   1.795  0.7953 -1.4196  1.5576
 1024THY    HM325598   9.294   8.515   1.692 -0.6961 -0.4439  0.5964
 1024THY    CA625599   9.029   8.312   1.695  0.4013  0.3020  0.0327
 1024THY    HA625600   8.951   8.365   1.642 -0.6211 -1.6579 -0.4948
 1025THY      O25601   3.004   1.086   0.879 -0.1208 -0.1477 -0.9387
 1025THY     HO25602   3.085   1.140   0.885 -0.4775  0.4231 -1.2064
 1025THY    CA125603   2.931   1.120   0.990 -0.5966 -0.4927  0.9915
 1025THY    CA225604   2.808   1.062   1.015 -0.1040  0.2119  0.5877
 1025THY    CP125605   2.753   0.957   0.913 -0.9153  0.5243  0.0869
 1025THY    HP125606   2.792   0.969   0.812 -2.8717 -1.2212 -0.9331
 1025THY    CP225607   2.797   0.814   0.970  0.2870  0.2284 -0.0031
 1025THY    HP225608   2.740   0.792   1.061  1.2475  1.3353  0.8883
 1025THY    HP325609   2.770   0.743   0.890  0.0908  1.1804 -0.7967
 1025THY    HP425610   2.903   0.815   0.996  0.5642 -1.1047 -0.9194
 1025THY    CP325611   2.603   0.959   0.884  0.5317  0.3764  0.6189
 1025THY    HP525612   2.584   0.905   0.790  1.4434  1.9292 -0.5160
 1025THY    HP625613   2.534   0.928   0.963 -1.5234 -2.0735 -1.9499
 1025THY    HP725614   2.573   1.063   0.865  0.4656  0.2533  0.0125
 1025THY    CA325615   2.738   1.099   1.132 -0.1310 -0.5908  0.2427
 1025THY    HA325616   2.644   1.051   1.156  0.6467 -1.0589  2.5257
 1025THY    CA425617   2.789   1.207   1.214 -0.5618  0.8016 -0.0414
 1025THY    HA425618   2.726   1.241   1.295  1.0189  1.3103  1.0169
 1025THY    CA525619   2.905   1.268   1.182 -0.2073  0.0611 -0.0208
 1025THY    CM125620   2.968   1.365   1.278  0.0226  0.2967  0.5552
 1025THY    HM125621   2.919   1.462   1.263 -1.2064 -0.3954 -0.1303
 1025THY    HM225622   2.957   1.333   1.382 -2.5090  0.4734  0.4028
 1025THY    HM325623   3.069   1.397   1.249  0.0144 -1.4985 -1.8167
 1025THY    CA625624   2.981   1.213   1.078  0.2063 -0.2250 -0.0990
 1025THY    HA625625   3.082   1.249   1.064  0.6312 -0.6475  1.6013
 1026THY      O25626   0.253   7.797   2.004  0.5373  0.0431  0.1140
 1026THY     HO25627   0.249   7.801   2.101 -0.0237  2.1416  0.0543
 1026THY    CA125628   0.328   7.692   1.982 -0.2489 -0.3539  0.7150
 1026THY    CA225629   0.423   7.698   1.878 -0.0726 -0.7586 -0.9511
 1026THY    CP125630   0.434   7.821   1.784 -0.1466  0.7068 -0.5086
 1026THY    HP125631   0.346   7.885   1.800 -0.5966 -0.5387  2.5249
 1026THY    CP225632   0.556   7.916   1.809 -0.1862  0.7504 -0.0526
 1026THY    HP225633   0.649   7.858   1.814 -1.5797 -1.5258  0.8495
 1026THY    HP325634   0.561   7.983   1.722 -2.2024  0.2569 -0.5857
 1026THY    HP425635   0.550   7.972   1.904 -1.4749 -2.1661  1.7084
 1026THY    CP325636   0.439   7.774   1.636 -0.4873  0.1107  0.2317
 1026THY    HP525637   0.537   7.738   1.604 -1.8310 -1.6826 -2.1560
 1026THY    HP625638   0.369   7.693   1.613 -1.1272  0.8917 -0.6547
 1026THY    HP725639   0.415   7.864   1.577 -0.1605 -1.0758 -1.7877
 1026THY    CA325640   0.517   7.592   1.853  1.0803  0.1922 -0.7204
 1026THY    HA325641   0.601   7.601   1.784  1.2477 -1.6572 -0.8053
 1026THY    CA425642   0.490   7.470   1.923 -0.3130 -0.0024  0.1653
 1026THY    HA425643   0.542   7.378   1.899 -1.2758 -1.1577  2.2617
 1026THY    CA525644   0.384   7.465   2.020 -0.2115 -0.0844  0.6394
 1026THY    CM125645   0.349   7.341   2.104  0.4764  1.0269  0.4356
 1026THY    HM125646   0.246   7.320   2.073  0.1575  0.8051  1.5731
 1026THY    HM225647   0.412   7.254   2.081 -1.0175 -0.2154  0.8990
 1026THY    HM325648   0.367   7.349   2.212 -1.3895 -2.0506  1.0873
 1026THY    CA625649   0.314   7.584   2.061  0.1776  0.3409 -0.5977
 1026THY    HA625650   0.244   7.590   2.144 -0.2452 -2.6166 -0.6355
 1027THY      O25651   6.830   1.529   0.459  0.3697 -1.2563  0.9436
 1027THY     HO25652   6.868   1.579   0.532 -0.9152 -0.1224  0.8808
 1027THY    CA125653   6.705   1.570   0.464  0.9189  0.1995 -0.0237
 1027THY    CA225654   6.596   1.509   0.392 -0.3064 -0.1620 -0.7088
 1027THY    CP125655   6.631   1.403   0.286  0.6900 -0.5983 -0.0577
 1027THY    HP125656   6.734   1.416   0.251  1.1393 -1.7733  0.7705
 1027THY    CP225657   6.600   1.261   0.324 -0.3460  0.2428 -0.0316
 1027THY    HP225658   6.497   1.259   0.361 -0.3974  1.4539 -0.0532
 1027THY    HP325659   6.608   1.194   0.237  0.1535  0.5730 -0.2461
 1027THY    HP425660   6.665   1.229   0.406  0.0792  0.7300 -0.1669
 1027THY    CP325661   6.535   1.436   0.169  0.1449  0.1420 -0.1428
 1027THY    HP525662   6.525   1.545   0.164 -0.3500  0.2246  1.8703
 1027THY    HP625663   6.596   1.411   0.081  2.9985  0.7865  1.5330
 1027THY    HP725664   6.442   1.378   0.174  1.3960 -1.8518  1.2722
 1027THY    CA325665   6.462   1.541   0.431 -0.3113  0.4139  0.3385
 1027THY    HA325666   6.382   1.481   0.389 -0.3901 -0.8914  2.2278
 1027THY    CA425667   6.443   1.642   0.520 -0.1009  0.9722 -0.2610
 1027THY    HA425668   6.342   1.663   0.553 -0.7298 -2.7574  0.6867
 1027THY    CA525669   6.552   1.711   0.576 -0.0790  0.2577  0.2041
 1027THY    CM125670   6.522   1.804   0.695  0.3720  0.4231  0.2212
 1027THY    HM125671   6.444   1.774   0.766  0.6282 -0.9682 -0.0647
 1027THY    HM225672   6.620   1.823   0.740  1.6874 -3.9894 -0.2801
 1027THY    HM325673   6.490   1.893   0.640 -0.1542 -0.8126 -1.5694
 1027THY    CA625674   6.677   1.661   0.566  0.6646 -0.7480  0.0589
 1027THY    HA625675   6.748   1.691   0.643 -2.0711 -1.7471  3.1806
 1028THY      O25676   0.520   4.472   0.208  0.4949  0.0351 -0.4496
 1028THY     HO25677   0.512   4.382   0.245  0.5623  0.8427  1.6261
 1028THY    CA125678   0.646   4.517   0.234 -0.5616  0.1852 -0.0396
 1028THY    CA225679   0.682   4.655   0.249 -0.0875 -0.1127  0.0849
 1028THY    CP125680   0.574   4.754   0.220 -0.3123  0.2308  0.1318
 1028THY    HP125681   0.500   4.710   0.151  0.0427  0.3001 -0.3017
 1028THY    CP225682   0.507   4.797   0.349  0.1988  0.5491 -1.1299
 1028THY    HP225683   0.413   4.850   0.329  0.1056  1.2111  0.8491
 1028THY    HP325684   0.481   4.712   0.413  0.9913  1.6867  0.7885
 1028THY    HP425685   0.578   4.862   0.402 -0.8560  1.0096 -0.2276
 1028THY    CP325686   0.616   4.874   0.131  0.3546  0.0030 -0.0875
 1028THY    HP525687   0.664   4.835   0.041  2.2528 -2.5687  1.9149
 1028THY    HP625688   0.529   4.936   0.104  1.0139  0.5217 -1.0634
 1028THY    HP725689   0.692   4.932   0.184 -1.2550  0.9200  1.3095
 1028THY    CA325690   0.809   4.692   0.299 -0.5094  0.2185  0.6051
 1028THY    HA325691   0.830   4.792   0.335  2.0522  0.1802 -0.5323
 1028THY    CA425692   0.897   4.590   0.329  0.2249 -0.1279 -0.1641
 1028THY    HA425693   0.994   4.614   0.371  0.6010 -0.1553 -1.0072
 1028THY    CA525694   0.864   4.460   0.313  0.3240  0.3297 -0.4075
 1028THY    CM125695   0.967   4.347   0.343  0.0227  0.1167 -0.8128
 1028THY    HM125696   1.067   4.386   0.324  0.5393  0.9918  3.0163
 1028THY    HM225697   0.961   4.313   0.447 -0.6795 -0.5129 -1.0479
 1028THY    HM325698   0.963   4.258   0.278 -0.4201  0.5240 -1.3618
 1028THY    CA625699   0.739   4.425   0.269 -0.0259  0.5102  0.4737
 1028THY    HA625700   0.715   4.319   0.272  1.7090  0.0507  4.2364
 1029THY      O25701   2.800   9.420   6.470 -0.1927  0.2586 -0.0824
 1029THY     HO25702   2.764   9.472   6.543 -1.8962  0.3142 -0.9129
 1029THY    CA125703   2.922   9.368   6.509 -0.5872 -0.4623 -0.5698
 1029THY    CA225704   2.983   9.258   6.449  0.2423  0.4256 -0.2012
 1029THY    CP125705   2.915   9.190   6.329  0.3859 -0.4641  0.2567
 1029THY    HP125706   2.809   9.215   6.318  0.7068  2.4701  2.7816
 1029THY    CP225707   2.975   9.238   6.200 -0.1237  0.2411  0.4367
 1029THY    HP225708   2.962   9.347   6.205 -1.0255  0.1979 -0.4627
 1029THY    HP325709   3.077   9.200   6.192 -0.1066  0.6614 -3.2750
 1029THY    HP425710   2.921   9.210   6.108  1.3085  3.9830 -1.7798
 1029THY    CP325711   2.932   9.036   6.332  0.4533 -1.0681 -0.2769
 1029THY    HP525712   2.851   8.999   6.395  1.5312  0.5879  2.2159
 1029THY    HP625713   2.930   8.994   6.230  0.4482  0.2282 -0.8346
 1029THY    HP725714   3.034   9.016   6.368  0.9500  2.8575  0.9669
 1029THY    CA325715   3.106   9.216   6.505 -0.0079 -0.3848  0.3090
 1029THY    HA325716   3.167   9.144   6.452  2.8950  1.2670  1.1451
 1029THY    CA425717   3.168   9.278   6.615  0.8082  0.3795 -0.6392
 1029THY    HA425718   3.263   9.246   6.657  0.6192 -0.0940 -0.5658
 1029THY    CA525719   3.099   9.388   6.665 -0.6971 -0.8268 -0.6106
 1029THY    CM125720   3.168   9.454   6.781  0.4444 -0.3330 -0.2384
 1029THY    HM125721   3.246   9.526   6.750  0.2125  0.0277  0.0043
 1029THY    HM225722   3.087   9.503   6.837 -1.1256 -0.0648 -2.5864
 1029THY    HM325723   3.202   9.376   6.849 -1.4418 -0.7183  0.3025
 1029THY    CA625724   2.981   9.436   6.619 -0.5122 -0.1981 -0.0367
 1029THY    HA625725   2.934   9.527   6.655  0.4802  1.1722 -2.0308
 1030THY      O25726   3.570   7.286   1.143  0.1276 -0.0617  0.5055
 1030THY     HO25727   3.575   7.361   1.082  0.3900 -0.7175 -0.3025
 1030THY    CA125728   3.472   7.312   1.227  0.4823  0.3368 -0.5891
 1030THY    CA225729   3.437   7.221   1.333  0.0200  0.5149 -0.1517
 1030THY    CP125730   3.515   7.090   1.353 -0.1821  0.4726 -0.3549
 1030THY    HP125731   3.568   7.050   1.266  0.8787 -2.3076  1.4452
 1030THY    CP225732   3.618   7.114   1.457 -0.1064 -0.0475  0.3016
 1030THY    HP225733   3.690   7.031   1.451 -0.7707 -0.7217  1.3931
 1030THY    HP325734   3.679   7.205   1.445  0.9965 -0.9045 -0.8888
 1030THY    HP425735   3.582   7.123   1.560  2.3932  0.1285  1.2295
 1030THY    CP325736   3.437   6.968   1.396  0.0780 -0.7870  0.5488
 1030THY    HP525737   3.409   6.976   1.502  3.6772 -1.2957  1.6455
 1030THY    HP625738   3.348   6.959   1.332  1.1047 -2.6992 -0.7066
 1030THY    HP725739   3.494   6.877   1.379 -1.5689 -1.5216 -1.4399
 1030THY    CA325740   3.341   7.261   1.432 -0.5937 -0.4869  0.2502
 1030THY    HA325741   3.299   7.202   1.513 -1.4767  3.4822  3.0150
 1030THY    CA425742   3.281   7.383   1.406  0.2515  0.5840 -0.0956
 1030THY    HA425743   3.204   7.415   1.476 -1.1980  0.2971 -1.5004
 1030THY    CA525744   3.314   7.470   1.306  0.0397  0.1885  0.0228
 1030THY    CM125745   3.242   7.606   1.305 -0.0867 -0.5585 -0.1842
 1030THY    HM125746   3.281   7.670   1.225 -0.1767  1.5444  1.3359
 1030THY    HM225747   3.132   7.607   1.295 -0.0487  2.1396 -1.3658
 1030THY    HM325748   3.259   7.661   1.399 -2.4261  1.6353 -0.8925
 1030THY    CA625749   3.412   7.431   1.213 -0.4588 -0.7002 -0.5422
 1030THY    HA625750   3.426   7.489   1.122  1.1175 -0.4909 -0.1929
 1031THY      O25751   7.106   7.427   2.550  0.6481  0.1818  0.1403
 1031THY     HO25752   7.198   7.408   2.577  1.2011  1.7878 -0.4665
 1031THY    CA125753   7.109   7.557   2.561  0.2417 -0.2731  0.0781
 1031THY    CA225754   6.995   7.630   2.592  0.2657 -0.3314  0.2040
 1031THY    CP125755   6.858   7.565   2.596  0.1481 -0.2649 -0.2518
 1031THY    HP125756   6.857   7.459   2.566 -2.7992  0.1654 -2.1279
 1031THY    CP225757   6.795   7.568   2.733 -0.3369 -0.2167  0.9034
 1031THY    HP225758   6.866   7.538   2.811  0.4815 -2.3422 -0.5487
 1031THY    HP325759   6.758   7.670   2.750 -1.0718 -0.7622  2.9029
 1031THY    HP425760   6.713   7.496   2.729  0.9158 -1.8074  2.2947
 1031THY    CP325761   6.766   7.613   2.474  0.3218  0.4488 -0.3328
 1031THY    HP525762   6.767   7.722   2.480  0.8877  0.4094  0.4593
 1031THY    HP625763   6.815   7.571   2.385 -1.4120 -1.0173 -0.6524
 1031THY    HP725764   6.670   7.562   2.488  1.2133 -1.8151 -1.9503
 1031THY    CA325765   7.007   7.773   2.614  0.0261  0.0699 -0.1327
 1031THY    HA325766   6.920   7.836   2.626 -1.3702 -1.9822  1.2605
 1031THY    CA425767   7.131   7.828   2.616 -1.0130 -0.4877  0.2535
 1031THY    HA425768   7.140   7.934   2.637  1.1815 -0.2538 -1.4982
 1031THY    CA525769   7.246   7.749   2.590  0.3598 -0.2189 -0.4296
 1031THY    CM125770   7.375   7.805   2.602 -0.1669  0.0722 -0.5063
 1031THY    HM125771   7.383   7.913   2.585 -0.4476  0.7821  3.1097
 1031THY    HM225772   7.417   7.787   2.702 -1.4471 -1.6659 -0.2404
 1031THY    HM325773   7.443   7.754   2.533 -0.9191  0.3770 -1.5070
 1031THY    CA625774   7.233   7.616   2.562  0.2700 -0.3274 -0.1696
 1031THY    HA625775   7.324   7.560   2.545  1.2176  1.7193 -2.4487
 1032THY      O25776   0.981   7.898   7.618 -0.0240  0.0435 -0.0159
 1032THY     HO25777   0.933   7.822   7.656  1.4104  0.7294  3.5994
 1032THY    CA125778   1.106   7.851   7.626  0.0411 -0.2053  1.0906
 1032THY    CA225779   1.208   7.927   7.576 -0.1290 -0.6762 -0.5461
 1032THY    CP125780   1.179   8.069   7.514 -0.4443 -0.5063 -0.2569
 1032THY    HP125781   1.078   8.064   7.471  0.0504  1.3376 -1.7493
 1032THY    CP225782   1.188   8.176   7.631 -0.2600  0.7232 -0.3707
 1032THY    HP225783   1.286   8.175   7.680 -1.1906 -3.9080  1.9010
 1032THY    HP325784   1.159   8.272   7.585 -3.7698 -0.2869 -0.5690
 1032THY    HP425785   1.123   8.160   7.717  1.3008  2.0182  1.1135
 1032THY    CP325786   1.278   8.104   7.407 -1.0883  0.0814  0.4786
 1032THY    HP525787   1.378   8.122   7.449 -0.6239 -1.4692  0.1231
 1032THY    HP625788   1.288   8.036   7.321 -0.7625  0.3662  0.2879
 1032THY    HP725789   1.238   8.192   7.356  1.7813  2.0429  1.3542
 1032THY    CA325790   1.341   7.881   7.583  0.6928  0.1756  0.0740
 1032THY    HA325791   1.427   7.935   7.543 -0.5234  1.6320 -0.6590
 1032THY    CA425792   1.361   7.758   7.649 -0.3714  0.8847  0.6032
 1032THY    HA425793   1.457   7.707   7.640  0.2087  2.1827 -1.0413
 1032THY    CA525794   1.251   7.684   7.700 -1.0730  0.3960  0.3636
 1032THY    CM125795   1.275   7.546   7.748 -0.3931  0.5559  0.3026
 1032THY    HM125796   1.214   7.478   7.688 -0.1084 -1.4578  2.1989
 1032THY    HM225797   1.378   7.514   7.731 -0.7996 -1.2737  1.0837
 1032THY    HM325798   1.267   7.535   7.856  2.5404  0.6873  0.6108
 1032THY    CA625799   1.124   7.730   7.694  0.0184 -0.1407  0.4485
 1032THY    HA625800   1.038   7.673   7.726  0.1219 -1.5093 -1.5138
 1033THY      O25801   7.912   8.632   4.432  0.3276 -0.1972 -0.2806
 1033THY     HO25802   7.939   8.699   4.367  0.1946 -0.7643 -0.9329
 1033THY    CA125803   7.800   8.670   4.501  0.6188  0.0750  0.2187
 1033THY    CA225804   7.712   8.575   4.560 -0.1211  0.0572 -0.7936
 1033THY    CP125805   7.723   8.422   4.511  0.2277  0.0194 -0.2668
 1033THY    HP125806   7.816   8.407   4.456  0.7928  3.0137 -0.3007
 1033THY    CP225807   7.746   8.329   4.634 -0.6957  0.5247 -0.2188
 1033THY    HP225808   7.832   8.360   4.694  0.1361  4.1029 -2.9207
 1033THY    HP325809   7.659   8.321   4.701  0.5631 -1.2518  1.3105
 1033THY    HP425810   7.765   8.233   4.584 -0.8404  0.4764 -0.1834
 1033THY    CP325811   7.599   8.372   4.424 -0.2801  0.5731  0.3455
 1033THY    HP525812   7.581   8.464   4.367 -1.2684  0.5833  0.6486
 1033THY    HP625813   7.630   8.290   4.360 -1.9157 -0.8083  1.2367
 1033THY    HP725814   7.513   8.343   4.486  1.3362 -1.3003  1.8375
 1033THY    CA325815   7.606   8.622   4.637  0.2925 -0.2828  0.7797
 1033THY    HA325816   7.526   8.555   4.668 -1.8536  0.0817 -3.2740
 1033THY    CA425817   7.596   8.761   4.661  0.0855 -0.4966 -0.4570
 1033THY    HA425818   7.529   8.802   4.736 -1.5802  1.6923 -2.9852
 1033THY    CA525819   7.691   8.853   4.612 -0.1506  0.1236 -0.3034
 1033THY    CM125820   7.692   8.998   4.654 -0.2224 -0.1208  0.1489
 1033THY    HM125821   7.661   9.061   4.570 -0.7628 -0.4564  0.0931
 1033THY    HM225822   7.614   9.011   4.730 -2.3480 -1.9847 -1.5597
 1033THY    HM325823   7.788   9.040   4.686 -0.7555  1.2234  0.0351
 1033THY    CA625824   7.782   8.808   4.523 -0.9402  0.5817  0.2899
 1033THY    HA625825   7.854   8.882   4.487 -0.5772 -0.2597 -0.7646
 1034THY      O25826   6.248   3.516   7.362  0.3901  0.2016 -0.0013
 1034THY     HO25827   6.293   3.505   7.276  0.1258  0.3264 -0.1578
 1034THY    CA125828   6.155   3.416   7.372  1.0203  0.0362  0.0354
 1034THY    CA225829   6.040   3.428   7.451  0.8163  0.1545 -0.8539
 1034THY    CP125830   6.003   3.559   7.524 -0.0310 -0.4181  0.3975
 1034THY    HP125831   6.076   3.636   7.495 -1.4300  1.3329  1.2538
 1034THY    CP225832   5.862   3.609   7.493  0.6783  0.2175 -0.0805
 1034THY    HP225833   5.851   3.612   7.384 -1.7578  1.5852  0.1453
 1034THY    HP325834   5.782   3.554   7.544  2.3126 -0.8263  1.4699
 1034THY    HP425835   5.857   3.712   7.529 -2.2500  0.5744 -1.2481
 1034THY    CP325836   6.018   3.542   7.676 -0.0009  0.6950 -0.5729
 1034THY    HP525837   5.927   3.529   7.736  0.7875  1.3806  0.8375
 1034THY    HP625838   6.099   3.472   7.701  0.4033  1.4615  0.3076
 1034THY    HP725839   6.054   3.642   7.701  1.5747 -0.2803  1.3817
 1034THY    CA325840   5.940   3.323   7.444 -1.0309 -0.3560 -0.3430
 1034THY    HA325841   5.836   3.333   7.475 -1.2478 -0.4598 -1.0021
 1034THY    CA425842   5.959   3.211   7.359  0.0189 -0.1791 -1.0717
 1034THY    HA425843   5.875   3.143   7.350  0.4789 -0.6846 -1.6497
 1034THY    CA525844   6.079   3.194   7.287  0.2098 -0.2553 -0.3571
 1034THY    CM125845   6.103   3.071   7.216  0.7192  0.7596 -0.3880
 1034THY    HM125846   6.153   2.993   7.275 -0.5101 -0.5527 -1.0178
 1034THY    HM225847   6.008   3.028   7.183 -0.2222  2.6062 -0.2111
 1034THY    HM325848   6.161   3.082   7.124 -1.1768 -0.9722 -1.8923
 1034THY    CA625849   6.175   3.299   7.289 -0.9171  0.5549 -0.0519
 1034THY    HA625850   6.267   3.293   7.232 -0.1759  2.3820  0.8452
 1035THY      O25851   2.172   3.142   3.259 -0.1012 -0.6242  0.1439
 1035THY     HO25852   2.159   3.198   3.181  1.1102 -0.0827  0.3013
 1035THY    CA125853   2.096   3.206   3.354  0.0891 -0.0505  0.0186
 1035THY    CA225854   2.083   3.154   3.484  0.7722  0.4295  0.2774
 1035THY    CP125855   2.140   3.013   3.524 -0.3796 -0.2945 -0.0923
 1035THY    HP125856   2.157   2.958   3.430  0.8925 -2.7932  1.4932
 1035THY    CP225857   2.272   3.014   3.595  0.3995 -0.0653 -0.2836
 1035THY    HP225858   2.315   2.914   3.586  1.0872  0.1665  0.3248
 1035THY    HP325859   2.357   3.074   3.559  2.3685 -1.3236  1.9543
 1035THY    HP425860   2.266   3.035   3.703  1.3384 -0.9624 -0.0427
 1035THY    CP325861   2.045   2.918   3.608 -0.4525 -0.3732  0.2898
 1035THY    HP525862   1.940   2.917   3.578 -0.6780 -1.3139  1.0718
 1035THY    HP625863   2.090   2.819   3.612  0.3916  0.0085  0.4677
 1035THY    HP725864   2.036   2.955   3.711 -0.5911 -1.0003  0.5045
 1035THY    CA325865   2.001   3.221   3.576 -0.3090  0.2016  0.0874
 1035THY    HA325866   1.985   3.187   3.678 -0.8594 -1.9167 -0.6578
 1035THY    CA425867   1.930   3.336   3.531  0.2445  1.1324 -0.2981
 1035THY    HA425868   1.864   3.391   3.598 -0.6571  1.1719 -1.1853
 1035THY    CA525869   1.941   3.388   3.402 -0.1521 -0.0817  0.2260
 1035THY    CM125870   1.880   3.519   3.374  0.3663 -0.1597  0.1023
 1035THY    HM125871   1.896   3.539   3.267  0.9720 -0.0569  0.2067
 1035THY    HM225872   1.774   3.536   3.396  0.7873  3.2739  0.1094
 1035THY    HM325873   1.945   3.592   3.425  0.4180 -0.5342  0.5767
 1035THY    CA625874   2.018   3.319   3.312 -0.5974  0.5998 -0.2401
 1035THY    HA625875   2.024   3.349   3.207  1.8455 -0.1991 -0.3859
 1036THY      O25876   2.935   5.115   4.582  0.8711 -0.0649 -0.7311
 1036THY     HO25877   2.923   5.039   4.523  1.4132 -1.4125  0.8470
 1036THY    CA125878   2.996   5.063   4.690 -0.7379  0.5191 -0.2477
 1036THY    CA225879   3.066   5.137   4.786  0.1079  0.4682  0.3185
 1036THY    CP125880   3.084   5.288   4.772  0.2090  0.1819  0.8741
 1036THY    HP125881   2.996   5.324   4.717 -1.2785 -1.0145  2.3557
 1036THY    CP225882   3.091   5.373   4.904  0.3959 -0.7191  0.0165
 1036THY    HP225883   3.070   5.479   4.886  1.2213 -0.4862  0.3413
 1036THY    HP325884   3.014   5.335   4.972  1.0031 -1.1375  0.4882
 1036THY    HP425885   3.189   5.388   4.951 -0.2018 -0.6146  1.2619
 1036THY    CP325886   3.204   5.308   4.683  0.1172  0.7598  0.4405
 1036THY    HP525887   3.301   5.284   4.730  0.4502  0.3798 -0.4132
 1036THY    HP625888   3.201   5.253   4.589 -0.9843  1.9259 -0.2247
 1036THY    HP725889   3.223   5.411   4.652 -0.1380  0.9109  0.7737
 1036THY    CA325890   3.134   5.071   4.893 -0.8924  0.4111 -0.0157
 1036THY    HA325891   3.191   5.130   4.964  0.7907 -1.7743  0.5747
 1036THY    CA425892   3.128   4.930   4.910  0.4323  0.1032  0.1471
 1036THY    HA425893   3.177   4.883   4.995  1.7405  1.2657  0.0602
 1036THY    CA525894   3.062   4.857   4.813  0.1716  0.6994 -0.2311
 1036THY    CM125895   3.059   4.705   4.822 -0.1584 -0.4260 -0.1679
 1036THY    HM125896   3.157   4.662   4.796 -0.8830 -0.9610 -2.2641
 1036THY    HM225897   3.027   4.692   4.926 -0.2577 -0.2947 -0.1818
 1036THY    HM325898   2.984   4.668   4.752 -0.2453  1.1165 -0.9241
 1036THY    CA625899   2.990   4.918   4.705  0.6195  0.1696  0.1738
 1036THY    HA625900   2.924   4.852   4.648  2.0942 -0.2894 -1.0658
 1037THY      O25901   6.691   4.588   4.007 -0.0583  0.1469 -0.1088
 1037THY     HO25902   6.648   4.523   4.065  3.3388 -1.7323  0.5611
 1037THY    CA125903   6.748   4.687   4.087  0.4147  0.3992 -0.0509
 1037THY    CA225904   6.846   4.774   4.039 -0.2754 -0.3733  0.1065
 1037THY    CP125905   6.893   4.768   3.899  0.2389 -0.3186  0.3294
 1037THY    HP125906   6.879   4.666   3.859  2.4380  0.2035 -1.9854
 1037THY    CP225907   6.823   4.883   3.815 -0.6203  0.0058  0.6686
 1037THY    HP225908   6.892   4.965   3.789  1.0875 -1.7444 -0.6374
 1037THY    HP325909   6.778   4.839   3.726 -1.0419 -0.3735  1.0680
 1037THY    HP425910   6.734   4.925   3.862 -0.3448  0.7684  0.5230
 1037THY    CP325911   7.049   4.786   3.878  0.3478  0.3445  0.5647
 1037THY    HP525912   7.087   4.879   3.923 -0.7147  0.5231  1.1081
 1037THY    HP625913   7.100   4.700   3.921  0.5322  0.5840  0.8325
 1037THY    HP725914   7.074   4.802   3.772 -1.5218 -2.6377 -0.4394
 1037THY    CA325915   6.893   4.873   4.129 -0.2374  0.1896  0.0063
 1037THY    HA325916   6.968   4.945   4.099  0.3261 -0.8303 -1.1839
 1037THY    CA425917   6.861   4.868   4.266  1.0043 -0.3167  0.3479
 1037THY    HA425918   6.905   4.938   4.337 -0.4609  0.4717  0.5174
 1037THY    CA525919   6.768   4.774   4.313 -0.1669  0.7059  0.8334
 1037THY    CM125920   6.714   4.757   4.454 -0.2136  0.6919 -0.0536
 1037THY    HM125921   6.614   4.715   4.437  0.3571 -0.3354 -1.0215
 1037THY    HM225922   6.770   4.677   4.503 -1.4462 -0.5330 -0.5638
 1037THY    HM325923   6.707   4.845   4.519  1.2304  0.5629  0.2961
 1037THY    CA625924   6.718   4.678   4.226  0.8145 -0.2169 -0.0559
 1037THY    HA625925   6.648   4.605   4.265  0.9435 -0.2890  0.0407
 1038THY      O25926   0.565   9.228   5.890  0.4872  0.1357 -0.4441
 1038THY     HO25927   0.490   9.204   5.946  0.7073 -2.9054 -1.3136
 1038THY    CA125928   0.642   9.292   5.985 -0.2669  0.1865  0.0163
 1038THY    CA225929   0.732   9.393   5.955  0.0288  0.7058  0.0359
 1038THY    CP125930   0.752   9.436   5.813 -0.4402  0.3058 -0.0054
 1038THY    HP125931   0.660   9.429   5.754 -0.1588 -1.7828 -0.2601
 1038THY    CP225932   0.780   9.583   5.799 -0.1385 -0.1306  0.2682
 1038THY    HP225933   0.763   9.623   5.699  0.2494  0.3810  0.4001
 1038THY    HP325934   0.721   9.646   5.867 -3.2550 -1.2145 -1.2624
 1038THY    HP425935   0.885   9.610   5.818  0.5013  1.1142 -4.0011
 1038THY    CP325936   0.866   9.341   5.756  1.3276  0.1339 -0.1132
 1038THY    HP525937   0.942   9.309   5.827 -0.0556 -1.5438  0.7012
 1038THY    HP625938   0.817   9.246   5.735  0.8681  0.5331 -0.8953
 1038THY    HP725939   0.909   9.377   5.662  2.1329 -2.3513 -0.7741
 1038THY    CA325940   0.784   9.456   6.063  0.4543 -0.4206 -0.0662
 1038THY    HA325941   0.866   9.526   6.048 -0.5831  0.6214 -1.0129
 1038THY    CA425942   0.757   9.413   6.196  0.6857  0.9221  0.1391
 1038THY    HA425943   0.801   9.470   6.277 -1.4804  0.5657  1.6616
 1038THY    CA525944   0.670   9.304   6.223  0.5991  0.4651  0.8005
 1038THY    CM125945   0.616   9.262   6.361 -0.0195  0.8125 -0.7182
 1038THY    HM125946   0.508   9.274   6.375 -0.2828 -1.7089 -0.0802
 1038THY    HM225947   0.628   9.156   6.388  1.2772  0.7386 -1.4815
 1038THY    HM325948   0.665   9.320   6.440  1.9936  2.5003 -3.0653
 1038THY    CA625949   0.603   9.249   6.113  0.3576 -1.1418  0.2877
 1038THY    HA625950   0.530   9.171   6.129 -0.9490 -0.4905 -2.0397
 1039THY      O25951   7.561   6.423   1.393  0.7623 -0.2640  0.1013
 1039THY     HO25952   7.486   6.467   1.349 -0.0065 -0.2972  1.3279
 1039THY    CA125953   7.516   6.398   1.516 -0.1771  0.1846  0.3456
 1039THY    CA225954   7.581   6.302   1.594  0.3193 -0.6946 -0.1717
 1039THY    CP125955   7.692   6.213   1.535 -0.1890 -0.8547 -0.4716
 1039THY    HP125956   7.732   6.250   1.440  0.9895  1.0816  0.7265
 1039THY    CP225957   7.814   6.208   1.625  0.3792  0.0156 -0.0256
 1039THY    HP225958   7.898   6.165   1.571 -0.8888  0.5348 -2.5486
 1039THY    HP325959   7.840   6.306   1.668 -0.3871  0.7403 -1.1689
 1039THY    HP425960   7.801   6.143   1.713  2.3509 -0.6985 -0.2261
 1039THY    CP325961   7.627   6.072   1.518  0.4745  0.1862 -0.5675
 1039THY    HP525962   7.537   6.067   1.456 -1.2804 -2.4607  1.9279
 1039THY    HP625963   7.702   6.001   1.479 -0.5001  0.2321 -2.6798
 1039THY    HP725964   7.592   6.035   1.615 -0.2709  0.4116 -0.7507
 1039THY    CA325965   7.535   6.276   1.728  0.7206  0.1138  0.2541
 1039THY    HA325966   7.572   6.200   1.795  2.2405 -0.7956 -1.5254
 1039THY    CA425967   7.429   6.351   1.773 -0.0617 -0.1729 -0.6913
 1039THY    HA425968   7.402   6.341   1.878  2.7460 -1.3863  0.0057
 1039THY    CA525969   7.366   6.449   1.692 -0.0552  0.7258 -0.7877
 1039THY    CM125970   7.261   6.540   1.750 -0.0013 -1.2868  0.1197
 1039THY    HM125971   7.252   6.514   1.856  1.4840  2.7799  1.4478
 1039THY    HM225972   7.291   6.645   1.738 -0.7928 -1.1183 -0.4728
 1039THY    HM325973   7.164   6.527   1.701 -1.0003 -0.7058  1.8692
 1039THY    CA625974   7.404   6.469   1.559 -0.0637  0.9148 -0.8288
 1039THY    HA625975   7.368   6.554   1.503  0.4483  1.4720 -0.3346
 1040THY      O25976   5.857   5.196   6.881 -0.4077 -0.3440  0.1630
 1040THY     HO25977   5.905   5.130   6.933 -0.2669 -0.4039 -0.0428
 1040THY    CA125978   5.802   5.279   6.973  0.7619 -0.5998 -0.5459
 1040THY    CA225979   5.714   5.384   6.936 -0.7804 -0.1175  0.1606
 1040THY    CP125980   5.685   5.409   6.790 -0.6383  1.0048 -0.0935
 1040THY    HP125981   5.706   5.314   6.737 -1.5032  1.2311 -0.8766
 1040THY    CP225982   5.533   5.414   6.762 -0.0153  0.3858  0.1567
 1040THY    HP225983   5.514   5.484   6.680  2.3853  0.3390 -0.5049
 1040THY    HP325984   5.496   5.314   6.739  1.8025 -0.9269  2.4981
 1040THY    HP425985   5.474   5.455   6.845  0.0179 -0.5633  0.6604
 1040THY    CP325986   5.756   5.538   6.741  0.3610 -0.4364  0.4084
 1040THY    HP525987   5.732   5.554   6.635 -0.8212  3.5186  1.0990
 1040THY    HP625988   5.711   5.623   6.793 -0.1722 -0.3646 -0.1621
 1040THY    HP725989   5.865   5.528   6.741  0.2818 -2.7744 -2.7746
 1040THY    CA325990   5.655   5.465   7.031  0.5497  0.3111 -0.1966
 1040THY    HA325991   5.582   5.541   7.007 -3.5200 -2.8743  1.0583
 1040THY    CA425992   5.689   5.444   7.166 -0.0535  0.2844 -0.3127
 1040THY    HA425993   5.644   5.501   7.247  1.2400 -2.0061  2.1943
 1040THY    CA525994   5.786   5.351   7.200  0.1819 -0.0231 -0.0936
 1040THY    CM125995   5.825   5.328   7.340  0.5479 -0.2771 -0.2147
 1040THY    HM125996   5.793   5.227   7.367 -0.8296 -0.4927 -2.3770
 1040THY    HM225997   5.934   5.336   7.345  0.5215  0.5656 -0.7129
 1040THY    HM325998   5.777   5.400   7.407 -2.1991  1.1376 -3.3815
 1040THY    CA625999   5.840   5.266   7.104  0.6172 -0.1010  0.1642
 1040THY    HA626000   5.915   5.195   7.137 -0.1565 -0.3174  1.5630
 1041THY      O26001   7.488   0.342   8.918  0.3576 -0.4068 -0.2099
 1041THY     HO26002   7.521   0.426   8.954  0.2565 -0.4571  0.0050
 1041THY    CA126003   7.353   0.367   8.902 -0.0182  0.6029 -0.1969
 1041THY    CA226004   7.263   0.267   8.849  0.3194 -0.1111 -0.0647
 1041THY    CP126005   7.319   0.133   8.803 -0.0783 -0.3545 -0.3207
 1041THY    HP126006   7.422   0.116   8.836 -0.4398  0.0539  1.0923
 1041THY    CP226007   7.248   0.022   8.872  0.0161 -0.6964 -0.1221
 1041THY    HP226008   7.146   0.007   8.834 -0.5704  0.3538  0.9686
 1041THY    HP326009   7.300  -0.073   8.857 -1.4012 -1.5195 -0.0280
 1041THY    HP426010   7.249   0.054   8.977 -0.3188  0.7407 -0.5300
 1041THY    CP326011   7.312   0.126   8.651 -0.8836 -0.1479  0.6673
 1041THY    HP526012   7.364   0.036   8.615 -3.0305 -1.4780  0.7207
 1041THY    HP626013   7.207   0.122   8.620 -0.5535 -1.5247 -0.3531
 1041THY    HP726014   7.352   0.215   8.600  0.4953  1.3939  4.1048
 1041THY    CA326015   7.128   0.301   8.851  0.2311 -0.1216 -0.0821
 1041THY    HA326016   7.053   0.229   8.820  1.5204 -1.2551 -0.6938
 1041THY    CA426017   7.079   0.423   8.888 -0.9842 -0.1577 -0.4166
 1041THY    HA426018   6.973   0.444   8.879 -1.0444 -1.2941 -3.2616
 1041THY    CA526019   7.177   0.518   8.937 -0.1026  0.0379  0.0912
 1041THY    CM126020   7.131   0.651   8.966  0.4924  0.1469  0.0564
 1041THY    HM126021   7.171   0.675   9.065 -0.3855  0.3718  0.3699
 1041THY    HM226022   7.168   0.735   8.906  0.2215  0.2866  0.0804
 1041THY    HM326023   7.022   0.652   8.972  0.4276 -0.3486 -0.9578
 1041THY    CA626024   7.313   0.490   8.949  0.2717  0.0413 -0.2791
 1041THY    HA626025   7.375   0.567   8.994  0.8888 -0.9667  0.6588
 1042THY      O26026   3.115   3.921   0.559 -0.6011 -0.2720 -0.2688
 1042THY     HO26027   3.100   3.956   0.649 -1.2440  0.1776 -0.5490
 1042THY    CA126028   3.096   3.789   0.566  0.1941  0.3732 -0.2719
 1042THY    CA226029   3.152   3.701   0.479 -0.5100  0.6735 -0.1077
 1042THY    CP126030   3.240   3.752   0.361  0.4858 -0.0098  0.7405
 1042THY    HP126031   3.227   3.860   0.348  0.7019 -0.1606 -0.9785
 1042THY    CP226032   3.392   3.734   0.385 -0.1906 -0.1468  0.8047
 1042THY    HP226033   3.422   3.789   0.475 -0.6075  0.5625  0.5221
 1042THY    HP326034   3.418   3.630   0.404 -0.4382 -0.5480 -0.8995
 1042THY    HP426035   3.451   3.779   0.304 -3.0431 -0.5774 -1.7130
 1042THY    CP326036   3.191   3.687   0.230  0.1999 -0.0047  0.5899
 1042THY    HP526037   3.262   3.712   0.151 -0.7337  0.6453 -0.0667
 1042THY    HP626038   3.186   3.579   0.247  0.5942  0.3047  3.1801
 1042THY    HP726039   3.093   3.724   0.198  1.0795  1.1117 -0.9113
 1042THY    CA326040   3.143   3.566   0.504 -0.8242  0.1822 -0.3413
 1042THY    HA326041   3.205   3.503   0.442 -0.6458  2.8190 -3.0232
 1042THY    CA426042   3.067   3.518   0.613 -0.2156 -0.1190  0.4103
 1042THY    HA426043   3.060   3.412   0.635 -1.2620 -0.6094 -2.0174
 1042THY    CA526044   2.998   3.611   0.689  0.2883  0.5524 -0.4299
 1042THY    CM126045   2.905   3.567   0.803  0.0871  0.4179  0.2335
 1042THY    HM126046   2.935   3.584   0.907 -0.8374  0.6506  0.4731
 1042THY    HM226047   2.807   3.613   0.788 -0.8698 -2.1887 -2.5522
 1042THY    HM326048   2.887   3.461   0.785 -0.8083  0.7799 -1.1655
 1042THY    CA626049   3.022   3.742   0.676  0.2161  0.0623  0.2694
 1042THY    HA626050   2.972   3.811   0.744 -0.5288  0.6302 -0.8240
 1043THY      O26051   1.098   0.700   3.524 -0.8568  0.0117 -0.5297
 1043THY     HO26052   1.035   0.642   3.570  0.5548  0.2284  1.8406
 1043THY    CA126053   1.105   0.807   3.601 -0.4770 -0.7161  0.1153
 1043THY    CA226054   1.207   0.907   3.575  0.3403 -0.8116  0.0431
 1043THY    CP126055   1.307   0.910   3.462  0.9912  0.2034  0.6714
 1043THY    HP126056   1.292   0.821   3.400  2.9153  0.3715 -0.1076
 1043THY    CP226057   1.310   1.039   3.367 -0.2998 -0.2527  0.5901
 1043THY    HP226058   1.390   1.038   3.291 -0.3025  1.1640  0.5352
 1043THY    HP326059   1.215   1.038   3.312 -0.4542 -3.7513  0.7057
 1043THY    HP426060   1.323   1.122   3.438 -0.5841 -2.0243  2.8244
 1043THY    CP326061   1.450   0.874   3.509 -0.7820  1.0239 -0.5679
 1043THY    HP526062   1.501   0.951   3.568 -1.3425  1.1097 -0.1836
 1043THY    HP626063   1.439   0.783   3.569  0.3839  0.4611 -1.1792
 1043THY    HP726064   1.507   0.858   3.417  0.6762 -1.4576  0.6684
 1043THY    CA326065   1.221   0.999   3.678 -0.4491 -0.6496 -0.4441
 1043THY    HA326066   1.303   1.069   3.665  1.1024 -2.1637  0.6982
 1043THY    CA426067   1.127   1.014   3.778  0.6023 -0.1243 -0.0875
 1043THY    HA426068   1.140   1.098   3.846  0.3955  2.2261 -2.7753
 1043THY    CA526069   1.027   0.923   3.802 -0.3376  0.4449  0.3179
 1043THY    CM126070   0.921   0.942   3.907 -0.9101 -0.4821 -0.6927
 1043THY    HM126071   0.928   0.869   3.989  1.2334 -0.6898 -1.0126
 1043THY    HM226072   0.928   1.044   3.944 -1.1434  0.4317 -2.9862
 1043THY    HM326073   0.819   0.941   3.865 -1.1248  1.4048 -0.3048
 1043THY    CA626074   1.021   0.815   3.710 -0.1128 -1.0522 -1.0761
 1043THY    HA626075   0.944   0.742   3.734 -1.0066  0.6561  1.6738
 1044THY      O26076   0.736   3.325   3.374 -0.3491 -0.4384 -0.2438
 1044THY     HO26077   0.780   3.266   3.437 -2.7866 -0.7257  1.2979
 1044THY    CA126078   0.834   3.421   3.340 -0.3379  0.3299 -0.1035
 1044THY    CA226079   0.805   3.548   3.287 -0.2462 -0.3476 -0.4606
 1044THY    CP126080   0.659   3.592   3.260 -1.0126 -0.2387  0.6826
 1044THY    HP126081   0.618   3.505   3.206 -0.9892 -0.8533  1.6298
 1044THY    CP226082   0.574   3.621   3.383 -0.1482  0.0740  0.2441
 1044THY    HP226083   0.479   3.671   3.363  0.3594  0.7318 -0.6037
 1044THY    HP326084   0.553   3.526   3.434 -1.8202  0.7272  0.8408
 1044THY    HP426085   0.626   3.678   3.462 -1.1588  0.7803  0.4127
 1044THY    CP326086   0.656   3.708   3.165 -0.7590 -0.8455  0.0473
 1044THY    HP526087   0.555   3.731   3.130 -0.6104 -1.4782 -0.8232
 1044THY    HP626088   0.698   3.797   3.215  0.5220 -0.6813 -1.2431
 1044THY    HP726089   0.720   3.714   3.076 -1.1791  1.9089 -0.1623
 1044THY    CA326090   0.917   3.634   3.251  0.1304  0.7930 -0.0292
 1044THY    HA326091   0.898   3.733   3.211  3.3783  2.5717  2.3333
 1044THY    CA426092   1.044   3.595   3.278  0.2507 -0.0303  1.0410
 1044THY    HA426093   1.126   3.661   3.251  0.3804 -0.1834  1.0548
 1044THY    CA526094   1.063   3.472   3.343  0.0493  0.6273  0.2160
 1044THY    CM126095   1.203   3.442   3.370 -0.2900  0.4399  0.2677
 1044THY    HM126096   1.270   3.470   3.287  2.0663 -3.1375  0.7515
 1044THY    HM226097   1.252   3.477   3.461 -1.0314  1.2402  0.3765
 1044THY    HM326098   1.212   3.333   3.372 -3.6852  0.0227 -0.5990
 1044THY    CA626099   0.962   3.385   3.368 -0.0030 -0.2844  0.5506
 1044THY    HA626100   0.976   3.289   3.418 -1.2006  0.5960  2.7003
 1045THY      O26101   5.667   4.377   1.188 -0.0303 -0.2666 -0.0631
 1045THY     HO26102   5.649   4.372   1.092 -0.3293  0.6233 -0.0591
 1045THY    CA126103   5.546   4.361   1.246 -0.7489  0.1028  0.3653
 1045THY    CA226104   5.517   4.422   1.375 -0.3273  0.3747 -0.5410
 1045THY    CP126105   5.626   4.499   1.448  0.0230 -0.0951 -0.4062
 1045THY    HP126106   5.697   4.535   1.372 -1.9542  0.9267 -1.8550
 1045THY    CP226107   5.573   4.634   1.519  0.0517 -0.0393 -0.1448
 1045THY    HP226108   5.545   4.707   1.442 -1.6193  1.0219  1.3846
 1045THY    HP326109   5.484   4.614   1.580  0.0162  0.2100 -0.1139
 1045THY    HP426110   5.656   4.684   1.572 -1.1563  0.5233  1.2906
 1045THY    CP326111   5.700   4.414   1.555  0.5752  0.6649  0.1705
 1045THY    HP526112   5.763   4.476   1.621 -1.7877  0.8394  2.4580
 1045THY    HP626113   5.624   4.374   1.622  1.5599  1.0582  1.5828
 1045THY    HP726114   5.753   4.327   1.516  0.1340  0.8985 -0.9580
 1045THY    CA326115   5.391   4.393   1.435 -0.7238  0.3332 -0.0750
 1045THY    HA326116   5.359   4.427   1.532 -1.5737 -1.2616  0.2411
 1045THY    CA426117   5.291   4.318   1.368  0.4517  0.1807 -0.0763
 1045THY    HA426118   5.196   4.300   1.417  0.1520  1.5997 -0.0648
 1045THY    CA526119   5.322   4.269   1.243 -0.6883  0.5060  0.0384
 1045THY    CM126120   5.218   4.194   1.171 -0.1024  0.1280 -0.0102
 1045THY    HM126121   5.129   4.254   1.147 -0.6790  0.1798  2.0742
 1045THY    HM226122   5.254   4.151   1.077 -2.1250  0.3348 -0.9402
 1045THY    HM326123   5.181   4.108   1.228  0.9308 -0.2444  0.1219
 1045THY    CA626124   5.441   4.292   1.178 -0.0605  0.0409  0.2794
 1045THY    HA626125   5.449   4.256   1.076  1.2185 -0.2250  0.4555
 1046THY      O26126   9.353   6.875   3.871  0.1151  0.0799  0.1362
 1046THY     HO26127   9.441   6.884   3.830 -0.4746  0.1784 -1.1444
 1046THY    CA126128   9.274   6.969   3.816 -0.4951  0.5525 -0.0789
 1046THY    CA226129   9.140   6.963   3.831 -0.0973  0.4587 -0.1095
 1046THY    CP126130   9.071   6.841   3.901  0.1571  0.4460 -0.0729
 1046THY    HP126131   9.148   6.763   3.895  1.2972  1.5455 -0.3966
 1046THY    CP226132   9.023   6.868   4.037 -0.3175 -0.4488 -0.0748
 1046THY    HP226133   8.957   6.954   4.051  0.6598  0.1771  0.8038
 1046THY    HP326134   8.991   6.782   4.097 -1.5566  1.7982  2.7104
 1046THY    HP426135   9.111   6.906   4.091  0.8568 -2.1924 -0.6649
 1046THY    CP326136   8.946   6.782   3.828  0.2095  0.2638  0.5979
 1046THY    HP526137   8.856   6.844   3.834  0.1499  0.0720  1.9901
 1046THY    HP626138   8.970   6.762   3.723  0.3362  0.9126  0.5005
 1046THY    HP726139   8.915   6.686   3.871  3.3850 -1.7607 -1.2447
 1046THY    CA326140   9.066   7.071   3.776 -0.0471 -0.4394  0.3732
 1046THY    HA326141   8.958   7.066   3.779  0.0220 -2.0640  1.4546
 1046THY    CA426142   9.123   7.175   3.716  0.1936 -0.3694 -0.6449
 1046THY    HA426143   9.059   7.255   3.680  1.2533 -0.2276 -2.3236
 1046THY    CA526144   9.259   7.172   3.692 -0.1013 -0.6530  0.0829
 1046THY    CM126145   9.310   7.275   3.595 -0.4173  0.0269  0.2037
 1046THY    HM126146   9.366   7.220   3.518 -0.0160 -1.4410  1.4878
 1046THY    HM226147   9.229   7.328   3.544 -0.3428 -1.1064 -1.1706
 1046THY    HM326148   9.372   7.352   3.642 -0.4544  0.0569  0.2028
 1046THY    CA626149   9.334   7.067   3.744  0.3474 -0.3871  0.6826
 1046THY    HA626150   9.440   7.061   3.723  0.2998 -1.6590  0.7530
 1047THY      O26151   0.684   6.946   2.319 -0.0473  0.5435  0.0913
 1047THY     HO26152   0.601   6.997   2.319  0.2834  1.0895 -0.6953
 1047THY    CA126153   0.779   7.036   2.290  0.3777 -0.9150  0.0141
 1047THY    CA226154   0.902   6.992   2.253  0.0437 -0.1680 -0.4816
 1047THY    CP126155   0.941   6.845   2.262  0.5415  0.4874  0.7457
 1047THY    HP126156   0.852   6.791   2.295 -0.6773  1.4159 -0.8685
 1047THY    CP226157   0.957   6.795   2.119 -0.4545  0.6979 -0.4772
 1047THY    HP226158   1.042   6.843   2.069 -0.4177 -1.0096 -2.1622
 1047THY    HP326159   0.959   6.686   2.130 -2.4441  0.8667  2.8185
 1047THY    HP426160   0.868   6.824   2.063 -0.0999 -0.8182 -1.9052
 1047THY    CP326161   1.059   6.808   2.357  0.1351  0.0376  0.3796
 1047THY    HP526162   1.088   6.706   2.327 -0.1400  0.4666 -1.4515
 1047THY    HP626163   1.142   6.877   2.343  1.3632 -1.8329 -2.8936
 1047THY    HP726164   1.019   6.818   2.458  0.4619  2.5302  0.3011
 1047THY    CA326165   0.995   7.092   2.209  0.3241 -0.7944  0.0895
 1047THY    HA326166   1.092   7.063   2.168  0.2310 -0.2015 -0.5741
 1047THY    CA426167   0.960   7.225   2.207  0.0858 -0.4386 -0.4062
 1047THY    HA426168   1.034   7.296   2.171  0.1888 -1.0076 -1.3724
 1047THY    CA526169   0.830   7.262   2.246 -0.8140 -0.9060  0.1842
 1047THY    CM126170   0.784   7.406   2.229 -0.5963 -0.3120 -0.1896
 1047THY    HM126171   0.836   7.490   2.276 -0.8433 -0.3252  0.1073
 1047THY    HM226172   0.791   7.445   2.126  1.8165  2.1519  0.7798
 1047THY    HM326173   0.680   7.413   2.262 -0.3147  2.1199  0.3577
 1047THY    CA626174   0.744   7.168   2.288  0.0770 -0.0414 -0.2247
 1047THY    HA626175   0.640   7.191   2.308 -0.0847 -2.2154  1.9280
 1048THY      O26176   8.735   7.871   4.347 -0.4497 -0.5518  0.1102
 1048THY     HO26177   8.821   7.911   4.324 -0.3851 -0.6435  0.1877
 1048THY    CA126178   8.735   7.855   4.477  1.1254 -0.8783 -1.2246
 1048THY    CA226179   8.636   7.777   4.543  0.2624 -0.4316  1.2160
 1048THY    CP126180   8.516   7.712   4.464 -0.2293 -0.3839 -0.3149
 1048THY    HP126181   8.556   7.669   4.372 -0.5794 -1.8642  0.2014
 1048THY    CP226182   8.460   7.581   4.539 -0.1733  0.4631  0.9915
 1048THY    HP226183   8.396   7.519   4.476  0.9895  1.7903 -1.6506
 1048THY    HP326184   8.544   7.512   4.551  0.3287  0.8946  0.0529
 1048THY    HP426185   8.410   7.604   4.634 -0.3963  1.5470  0.6239
 1048THY    CP326186   8.409   7.811   4.432 -0.1501  0.1039 -0.0318
 1048THY    HP526187   8.356   7.841   4.523  0.2480  1.9601 -0.3702
 1048THY    HP626188   8.459   7.901   4.394  0.3965  0.3155  1.1418
 1048THY    HP726189   8.341   7.777   4.353  0.4991 -0.9471 -0.1520
 1048THY    CA326190   8.641   7.784   4.686  0.2195  0.2704 -0.0097
 1048THY    HA326191   8.555   7.745   4.740  0.3294  1.2424  0.9142
 1048THY    CA426192   8.749   7.842   4.760  0.3081 -0.4300  0.7473
 1048THY    HA426193   8.756   7.839   4.868 -0.0273  0.1895  0.7909
 1048THY    CA526194   8.847   7.919   4.688  0.1677  0.5611 -0.3707
 1048THY    CM126195   8.957   7.991   4.765 -0.0019 -0.2704  0.5287
 1048THY    HM126196   9.049   8.016   4.711  0.9617 -3.5365  0.4147
 1048THY    HM226197   8.919   8.084   4.808  1.5449  0.9164 -0.5508
 1048THY    HM326198   8.973   7.940   4.861 -0.2656  1.8362  1.7399
 1048THY    CA626199   8.837   7.916   4.550  0.2761 -0.7968 -0.0821
 1048THY    HA626200   8.907   7.962   4.481 -1.4801 -0.4700 -1.7300
 1049THY      O26201   6.120   0.803   4.800  0.4519  0.2500 -0.6479
 1049THY     HO26202   6.128   0.787   4.704 -2.3937 -2.5395 -0.5576
 1049THY    CA126203   6.152   0.686   4.872 -0.3106  0.0682 -0.1413
 1049THY    CA226204   6.171   0.691   5.011 -0.6759  0.3141 -0.1496
 1049THY    CP126205   6.179   0.825   5.083  0.8718 -0.1113 -0.4288
 1049THY    HP126206   6.165   0.913   5.019 -0.7523  0.3060  0.4347
 1049THY    CP226207   6.080   0.830   5.202 -0.1518  0.5139 -0.3177
 1049THY    HP226208   6.084   0.736   5.259 -3.3323 -0.6737 -1.7796
 1049THY    HP326209   6.085   0.922   5.260 -1.1197  0.6863 -0.4955
 1049THY    HP426210   5.980   0.823   5.159 -1.7785  2.6849  2.7471
 1049THY    CP326211   6.320   0.850   5.147 -0.3362 -0.0392 -0.0946
 1049THY    HP526212   6.394   0.846   5.066  1.5083 -2.2222  1.5518
 1049THY    HP626213   6.318   0.954   5.184 -2.3637 -0.1022  0.0780
 1049THY    HP726214   6.353   0.775   5.220  2.6313 -1.1012 -2.3408
 1049THY    CA326215   6.194   0.571   5.083 -0.5792 -0.0565  0.6445
 1049THY    HA326216   6.222   0.575   5.188  0.5321 -0.6238  0.3836
 1049THY    CA426217   6.183   0.443   5.017 -1.3164 -0.7049 -0.3829
 1049THY    HA426218   6.198   0.355   5.080  3.9762  2.1534  3.1324
 1049THY    CA526219   6.164   0.440   4.875 -0.0151  0.8205 -0.5736
 1049THY    CM126220   6.166   0.308   4.810  0.0972 -0.3373  0.4772
 1049THY    HM126221   6.232   0.304   4.724 -0.3854 -0.2477  0.0976
 1049THY    HM226222   6.197   0.226   4.877  2.5675 -1.2628 -1.6331
 1049THY    HM326223   6.061   0.297   4.779  0.2704  1.6993 -1.0105
 1049THY    CA626224   6.151   0.558   4.803 -0.1009 -0.3947  0.0503
 1049THY    HA626225   6.111   0.552   4.703  1.8314 -1.1393 -0.7264
 1050THY      O26226   8.461   2.065   2.473 -0.1821  0.1953 -0.4795
 1050THY     HO26227   8.444   2.146   2.524  0.6416 -0.8070  1.4891
 1050THY    CA126228   8.520   1.991   2.563  0.0491 -0.3566  0.4163
 1050THY    CA226229   8.551   1.859   2.544 -0.4119  0.3901  0.1311
 1050THY    CP126230   8.539   1.793   2.409 -1.1953  0.5292  0.1795
 1050THY    HP126231   8.447   1.823   2.358 -1.3813 -0.3293 -0.0160
 1050THY    CP226232   8.650   1.834   2.312 -0.2551  0.9758 -0.7296
 1050THY    HP226233   8.748   1.813   2.358  1.0623  1.3046 -3.2329
 1050THY    HP326234   8.636   1.778   2.219  0.9791 -0.9053  0.1334
 1050THY    HP426235   8.645   1.940   2.286  0.1430  1.3696  0.6970
 1050THY    CP326236   8.529   1.641   2.404 -0.3040 -0.5471 -0.2982
 1050THY    HP526237   8.609   1.601   2.468 -1.0847  1.1557  1.8816
 1050THY    HP626238   8.432   1.615   2.448 -0.4738  1.7968  0.8842
 1050THY    HP726239   8.533   1.609   2.299  1.9977  0.9754 -0.7463
 1050THY    CA326240   8.614   1.791   2.655  0.4530  0.4016 -0.0799
 1050THY    HA326241   8.648   1.687   2.651 -0.5418  0.0824 -0.5248
 1050THY    CA426242   8.642   1.854   2.771 -0.1266 -0.5737  0.0125
 1050THY    HA426243   8.700   1.811   2.852  0.3041  0.4703  0.2858
 1050THY    CA526244   8.607   1.992   2.781 -0.5524 -0.1051 -0.4151
 1050THY    CM126245   8.640   2.064   2.915  0.0630 -0.5850 -0.1680
 1050THY    HM126246   8.745   2.095   2.913 -0.8834  3.4572  2.5877
 1050THY    HM226247   8.586   2.156   2.936  1.1920 -0.0459  0.4299
 1050THY    HM326248   8.623   2.009   3.009 -1.6613  2.3303  1.3540
 1050THY    CA626249   8.548   2.062   2.679  0.4090 -0.5760  0.1192
 1050THY    HA626250   8.518   2.164   2.699  3.3784  0.4021  0.0197
 1051THY      O26251   7.736   6.314   5.273  0.0872  0.2301  0.4249
 1051THY     HO26252   7.737   6.366   5.191  1.2428  0.1814  0.3830
 1051THY    CA126253   7.659   6.210   5.263 -0.5171  0.7103  0.1640
 1051THY    CA226254   7.591   6.159   5.374  0.6726 -0.6969 -0.4503
 1051THY    CP126255   7.609   6.199   5.522 -0.5019 -0.8846  0.3417
 1051THY    HP126256   7.667   6.292   5.532 -1.8765  0.2356 -1.4238
 1051THY    CP226257   7.477   6.237   5.579 -0.2495  0.1724 -0.4074
 1051THY    HP226258   7.433   6.150   5.629 -2.5858  1.3104 -0.3005
 1051THY    HP326259   7.488   6.317   5.654 -1.9655 -1.1095  1.3035
 1051THY    HP426260   7.410   6.269   5.498  0.6567 -1.3359 -1.8098
 1051THY    CP326261   7.686   6.089   5.600 -0.0508  0.5300 -0.2495
 1051THY    HP526262   7.787   6.073   5.559 -0.3361  0.5301 -0.9705
 1051THY    HP626263   7.691   6.108   5.708  0.2857  0.3412 -0.2318
 1051THY    HP726264   7.640   5.990   5.597  0.7957  0.1358 -2.6900
 1051THY    CA326265   7.493   6.059   5.352  0.9479 -0.2636  0.1160
 1051THY    HA326266   7.439   6.018   5.437  0.5973  1.3395  0.6961
 1051THY    CA426267   7.476   6.003   5.224 -0.1300  0.6240 -0.4180
 1051THY    HA426268   7.390   5.937   5.212 -0.1460 -0.1152  2.7390
 1051THY    CA526269   7.548   6.060   5.115  0.2277 -0.8154  0.0334
 1051THY    CM126270   7.523   6.021   4.968 -0.1346  0.6465  0.4756
 1051THY    HM126271   7.611   5.974   4.923  0.4586  0.3261  1.9103
 1051THY    HM226272   7.446   5.943   4.963  1.1808 -0.6928  0.4974
 1051THY    HM326273   7.495   6.108   4.906  0.6936  0.5690 -0.0251
 1051THY    CA626274   7.643   6.158   5.133 -0.1582 -0.9263  0.6590
 1051THY    HA626275   7.693   6.201   5.047  2.2800  0.4054  2.5954
 1052THY      O26276   2.864   5.668   6.159 -0.2770  0.3835  0.1048
 1052THY     HO26277   2.930   5.725   6.204  3.2961 -0.9753 -2.9414
 1052THY    CA126278   2.950   5.580   6.104 -0.1091 -0.0585  0.0608
 1052THY    CA226279   2.926   5.444   6.115  0.3134  0.2897 -0.1338
 1052THY    CP126280   2.788   5.388   6.173 -0.0958  0.6576  0.2047
 1052THY    HP126281   2.725   5.470   6.211 -2.3510 -0.5048 -0.8051
 1052THY    CP226282   2.704   5.312   6.066  0.5317  0.1428  0.3515
 1052THY    HP226283   2.758   5.238   6.005  0.0155 -1.8159  2.1350
 1052THY    HP326284   2.611   5.263   6.099  0.0886 -2.1962 -3.7230
 1052THY    HP426285   2.675   5.386   5.991  2.6723  0.3591 -0.3218
 1052THY    CP326286   2.818   5.291   6.286  0.7789  0.2878 -0.5205
 1052THY    HP526287   2.874   5.201   6.259 -0.8215 -0.8441 -0.2497
 1052THY    HP626288   2.875   5.344   6.363 -1.3506  0.5706  0.9349
 1052THY    HP726289   2.724   5.259   6.332 -0.2201  0.3560 -2.3972
 1052THY    CA326290   3.030   5.363   6.072  0.8026 -0.2166  0.6758
 1052THY    HA326291   3.020   5.256   6.090  1.3020 -0.3747  0.0529
 1052THY    CA426292   3.159   5.411   6.036  0.1181  0.8457  0.1465
 1052THY    HA426293   3.239   5.342   6.014 -0.1098  0.4158  0.6413
 1052THY    CA526294   3.178   5.548   6.028 -0.0435  0.8363  0.1847
 1052THY    CM126295   3.306   5.605   5.990  0.0681 -0.1442 -0.6517
 1052THY    HM126296   3.361   5.617   6.083 -0.7429 -0.7399 -0.0828
 1052THY    HM226297   3.357   5.539   5.919  1.4075 -0.4434  0.5670
 1052THY    HM326298   3.289   5.707   5.951 -1.5109 -0.0231  0.2532
 1052THY    CA626299   3.069   5.630   6.057 -0.1384  0.4440  0.3091
 1052THY    HA626300   3.083   5.738   6.052 -2.7607  0.8496  0.3654
 1053THY      O26301   2.889   7.639   3.477  0.1656 -0.2654 -0.0750
 1053THY     HO26302   2.798   7.660   3.505  0.5877  0.1883  1.0195
 1053THY    CA126303   2.913   7.741   3.391 -0.1305  0.0380 -0.2638
 1053THY    CA226304   3.044   7.783   3.361  0.3482 -0.3286 -0.2840
 1053THY    CP126305   3.160   7.709   3.423 -0.2245  0.2592 -0.0319
 1053THY    HP126306   3.137   7.648   3.511 -1.3810 -1.5679 -1.5091
 1053THY    CP226307   3.225   7.617   3.320  0.1112  0.3766 -0.1939
 1053THY    HP226308   3.283   7.680   3.251 -1.9175  1.2302 -1.2048
 1053THY    HP326309   3.296   7.550   3.369  1.5418  2.4215  0.6545
 1053THY    HP426310   3.151   7.556   3.266 -1.4862 -0.4811  2.7457
 1053THY    CP326311   3.249   7.807   3.483  0.0486 -0.1920  0.0196
 1053THY    HP526312   3.193   7.879   3.545 -0.4203 -0.4338 -0.1190
 1053THY    HP626313   3.325   7.763   3.548  1.3012  2.4851  0.4928
 1053THY    HP726314   3.312   7.859   3.410  2.7203 -1.1865  1.4879
 1053THY    CA326315   3.067   7.886   3.270 -0.1781  0.2677  0.3372
 1053THY    HA326316   3.165   7.928   3.249 -1.0407  1.9766 -0.3669
 1053THY    CA426317   2.952   7.951   3.219 -0.1408  0.0462 -0.5266
 1053THY    HA426318   2.963   8.034   3.150  0.8171 -0.0760 -0.5261
 1053THY    CA526319   2.823   7.898   3.235 -0.2040  0.0507 -0.4613
 1053THY    CM126320   2.698   7.967   3.175 -0.4239  0.1036  0.1373
 1053THY    HM126321   2.627   7.894   3.133 -1.3391  0.6521  0.6995
 1053THY    HM226322   2.656   8.027   3.256  2.6681 -1.1811  2.9377
 1053THY    HM326323   2.731   8.033   3.094 -0.5823 -0.9544 -0.8293
 1053THY    CA626324   2.804   7.789   3.325  0.2213 -0.4642 -0.4403
 1053THY    HA626325   2.698   7.768   3.337 -0.6520  2.7682 -1.2424
 1054THY      O26326   9.394   0.702   7.773 -0.1913  0.5717  0.3283
 1054THY     HO26327   9.330   0.668   7.838 -1.9489  1.5122 -0.8101
 1054THY    CA126328   9.338   0.816   7.723  0.0614  0.2721 -0.0366
 1054THY    CA226329   9.337   0.842   7.588  0.5902  0.0525 -0.1756
 1054THY    CP126330   9.424   0.756   7.492  0.0443 -0.1299 -0.3912
 1054THY    HP126331   9.524   0.742   7.534  0.2724  0.6786 -0.6489
 1054THY    CP226332   9.364   0.611   7.467 -0.3492  0.5391 -0.2993
 1054THY    HP226333   9.344   0.560   7.562 -0.7676  1.6361  0.2172
 1054THY    HP326334   9.270   0.618   7.410 -0.0550  0.2545 -0.8350
 1054THY    HP426335   9.436   0.553   7.408  3.0788  0.9808  3.1071
 1054THY    CP326336   9.459   0.814   7.351 -0.7287  0.0593 -0.1237
 1054THY    HP526337   9.368   0.830   7.292  0.7366  1.1870 -2.2134
 1054THY    HP626338   9.505   0.913   7.362  1.3934 -1.1253  3.0953
 1054THY    HP726339   9.518   0.747   7.289  0.2601  0.2720  0.5733
 1054THY    CA326340   9.263   0.953   7.539 -0.0856 -0.4326 -0.1583
 1054THY    HA326341   9.254   0.975   7.433 -2.9760 -1.7754 -0.2929
 1054THY    CA426342   9.202   1.048   7.629  0.0387  0.6933 -0.3378
 1054THY    HA426343   9.167   1.146   7.598 -1.2652  0.4580  0.2848
 1054THY    CA526344   9.212   1.017   7.761  0.0336 -0.3024 -1.1743
 1054THY    CM126345   9.139   1.111   7.867 -0.4264 -0.4853  0.1633
 1054THY    HM126346   9.031   1.091   7.871 -0.1386 -2.8465 -1.5885
 1054THY    HM226347   9.177   1.094   7.969 -0.1018 -2.7448 -0.2923
 1054THY    HM326348   9.160   1.216   7.842 -1.6346  0.2437  1.9713
 1054THY    CA626349   9.272   0.898   7.811 -0.0156 -0.3680 -0.2120
 1054THY    HA626350   9.273   0.879   7.918  0.1164 -1.3752 -0.3832
 1055THY      O26351   8.702   7.587   7.106 -0.4076  0.0370 -0.2582
 1055THY     HO26352   8.776   7.641   7.073  1.3616 -2.8098 -1.2542
 1055THY    CA126353   8.723   7.571   7.235  0.3182 -0.6590  0.1400
 1055THY    CA226354   8.631   7.530   7.331  0.2360  0.0912 -0.0948
 1055THY    CP126355   8.494   7.494   7.292  0.0532  0.6274  0.1132
 1055THY    HP126356   8.470   7.515   7.187  1.1954 -1.4788 -0.6239
 1055THY    CP226357   8.483   7.342   7.303  0.0407 -0.5643 -0.2498
 1055THY    HP226358   8.391   7.312   7.252 -1.2282 -1.9378  2.6195
 1055THY    HP326359   8.564   7.286   7.254  0.1555 -0.3278 -0.3281
 1055THY    HP426360   8.471   7.316   7.409  1.8284 -0.3604  0.0447
 1055THY    CP326361   8.386   7.555   7.375 -0.2445 -0.6183  0.4395
 1055THY    HP526362   8.400   7.659   7.344  1.0794 -1.8407 -3.6831
 1055THY    HP626363   8.287   7.526   7.336 -0.1854 -1.0035  0.5654
 1055THY    HP726364   8.389   7.533   7.482  1.7891 -0.5191  0.4384
 1055THY    CA326365   8.677   7.527   7.470  0.6961 -0.7716  0.3132
 1055THY    HA326366   8.613   7.492   7.550 -1.5875  1.7598 -0.2705
 1055THY    CA426367   8.806   7.570   7.505  0.3923 -0.5342  0.1747
 1055THY    HA426368   8.827   7.574   7.612  0.2765  1.9685  0.1568
 1055THY    CA526369   8.897   7.606   7.409 -0.3432 -0.2958  0.5163
 1055THY    CM126370   9.035   7.625   7.436  0.8992  0.1161 -0.6768
 1055THY    HM126371   9.065   7.638   7.541 -1.1491  1.6652 -0.2186
 1055THY    HM226372   9.096   7.536   7.417  1.4255  0.1385  0.7614
 1055THY    HM326373   9.076   7.712   7.384  0.0033  0.6558 -0.5089
 1055THY    CA626374   8.858   7.604   7.275  0.6022  0.2756  0.0322
 1055THY    HA626375   8.923   7.649   7.200 -0.8499  2.3739 -0.0724
 1056THY      O26376   8.620   1.950   6.803 -0.2880  0.0121  0.1035
 1056THY     HO26377   8.611   1.906   6.890 -3.8319  0.5889  0.1860
 1056THY    CA126378   8.489   1.963   6.773 -0.2061 -0.0543  0.3876
 1056THY    CA226379   8.438   1.895   6.659  0.0408  0.6449  0.4998
 1056THY    CP126380   8.519   1.795   6.579 -0.2969  0.5638  0.0183
 1056THY    HP126381   8.599   1.756   6.642  0.5090  1.3143 -0.5029
 1056THY    CP226382   8.434   1.679   6.530 -0.2756  0.2144  0.1869
 1056THY    HP226383   8.367   1.633   6.604 -1.5951 -0.9304 -1.6272
 1056THY    HP326384   8.369   1.694   6.443 -2.2200  1.1227  1.7128
 1056THY    HP426385   8.502   1.597   6.503  0.3868  0.9007 -0.2424
 1056THY    CP326386   8.590   1.860   6.456 -0.0456  0.0862  0.1301
 1056THY    HP526387   8.677   1.922   6.483 -0.6703  0.4749  1.3295
 1056THY    HP626388   8.624   1.774   6.397  1.0853  1.0455 -0.6603
 1056THY    HP726389   8.531   1.917   6.383  0.2793  0.1180 -0.1111
 1056THY    CA326390   8.310   1.928   6.618  0.1633  0.1580 -0.1408
 1056THY    HA326391   8.270   1.875   6.532  1.4675  0.9626 -1.2935
 1056THY    CA426392   8.242   2.025   6.681  0.6446  0.0127  0.3302
 1056THY    HA426393   8.148   2.069   6.647  1.0410  1.2293  0.7312
 1056THY    CA526394   8.291   2.094   6.791  0.2045 -0.4072  0.2737
 1056THY    CM126395   8.217   2.203   6.864 -0.0177 -0.0604 -0.2160
 1056THY    HM126396   8.224   2.177   6.970 -0.0166  1.8219  0.2884
 1056THY    HM226397   8.253   2.303   6.836 -1.7441  0.8614  0.6651
 1056THY    HM326398   8.108   2.208   6.846  0.2789  0.0424 -2.2326
 1056THY    CA626399   8.414   2.062   6.840 -0.4719  0.0198  0.9136
 1056THY    HA626400   8.460   2.123   6.917 -0.0832  0.5759  0.2518
 1057THY      O26401   6.116   0.384   6.015 -0.0893  0.1734  0.3473
 1057THY     HO26402   6.030   0.429   6.020  0.3739  1.3333 -1.2832
 1057THY    CA126403   6.085   0.273   5.952 -0.3055 -0.0664 -0.3783
 1057THY    CA226404   6.164   0.161   5.945 -0.1758 -0.7209  0.3835
 1057THY    CP126405   6.304   0.160   6.022  0.5990 -0.3462 -0.5859
 1057THY    HP126406   6.328   0.263   6.052  1.8349 -0.1766 -2.0100
 1057THY    CP226407   6.295   0.067   6.137 -0.5351 -0.2191 -0.0689
 1057THY    HP226408   6.385   0.082   6.197 -1.0073  0.8561  0.3909
 1057THY    HP326409   6.210   0.105   6.194 -0.6709 -1.4490  0.5781
 1057THY    HP426410   6.278  -0.040   6.118  1.8369 -0.9915  1.6914
 1057THY    CP326411   6.424   0.135   5.925  0.3293  0.2340  0.1649
 1057THY    HP526412   6.411   0.192   5.833  1.5477  0.0225 -0.1569
 1057THY    HP626413   6.523   0.151   5.969  1.9039 -0.3835 -2.9052
 1057THY    HP726414   6.421   0.029   5.894 -0.2652  0.0744  0.7315
 1057THY    CA326415   6.132   0.065   5.851  0.2414  0.7288 -0.4486
 1057THY    HA326416   6.198  -0.019   5.834 -0.4103 -0.2236  1.4035
 1057THY    CA426417   6.016   0.079   5.776  0.4067 -0.4023  0.2036
 1057THY    HA426418   5.993   0.004   5.701  1.8604 -0.0990 -0.5869
 1057THY    CA526419   5.930   0.190   5.791 -0.1249 -0.9171 -0.2010
 1057THY    CM126420   5.812   0.199   5.698  0.3845  0.0109 -0.0654
 1057THY    HM126421   5.823   0.138   5.607 -1.8977 -2.0089  0.9102
 1057THY    HM226422   5.734   0.153   5.759  0.3771  0.8002  0.5322
 1057THY    HM326423   5.780   0.301   5.675  1.0691  0.6215  1.5556
 1057THY    CA626424   5.963   0.283   5.878 -0.1871 -0.1262 -0.5493
 1057THY    HA626425   5.912   0.379   5.879 -1.1761 -0.6400  0.1108
 1058THY      O26426   3.748   7.774   5.968 -0.3727 -0.5131 -0.1492
 1058THY     HO26427   3.669   7.722   5.991 -1.1800  0.6502 -0.1430
 1058THY    CA126428   3.842   7.761   6.061  0.1465  0.3029  0.6738
 1058THY    CA226429   3.977   7.760   6.022 -0.2651  0.0261 -0.5683
 1058THY    CP126430   4.019   7.781   5.874 -0.0734 -0.1955  0.4788
 1058THY    HP126431   3.937   7.817   5.810 -0.0127  1.0034  1.0518
 1058THY    CP226432   4.133   7.884   5.857 -0.6000  0.1008  0.2748
 1058THY    HP226433   4.121   7.949   5.770 -1.6188  0.0997  0.4067
 1058THY    HP326434   4.141   7.947   5.947  1.4433  0.2511  0.0225
 1058THY    HP426435   4.230   7.833   5.856  0.4936  1.9807  2.0816
 1058THY    CP326436   4.067   7.645   5.818 -0.0358  1.1016  0.3983
 1058THY    HP526437   4.118   7.668   5.724 -0.4060  1.6133  0.3228
 1058THY    HP626438   4.136   7.597   5.889 -1.7437  0.5235  1.7501
 1058THY    HP726439   3.983   7.576   5.808 -0.4951  1.5632  0.9859
 1058THY    CA326440   4.079   7.735   6.115  0.0133  0.6792 -0.3158
 1058THY    HA326441   4.183   7.723   6.085  0.6868  2.2381  1.2494
 1058THY    CA426442   4.038   7.709   6.241 -0.7809  0.8853 -0.2402
 1058THY    HA426443   4.112   7.688   6.318 -2.1335  0.7323  1.0563
 1058THY    CA526444   3.902   7.712   6.281  1.0770  0.1874  0.3437
 1058THY    CM126445   3.862   7.676   6.422 -0.0847 -0.3757 -0.6069
 1058THY    HM126446   3.942   7.619   6.471 -0.4525 -1.9007 -1.6872
 1058THY    HM226447   3.837   7.770   6.472 -2.9577  0.8082 -3.8571
 1058THY    HM326448   3.781   7.602   6.434  1.3935 -1.7597  1.7398
 1058THY    CA626449   3.800   7.736   6.190 -0.2368 -0.1482  0.2009
 1058THY    HA626450   3.697   7.733   6.224  0.0638  2.0243  1.4644
 1059THY      O26451   9.641   3.909   1.850  0.2133 -0.3456  0.3202
 1059THY     HO26452   9.565   3.918   1.789  0.9352  0.0296 -0.5511
 1059THY    CA126453   9.730   3.998   1.809 -0.1614 -0.1335  0.6809
 1059THY    CA226454   9.833   4.043   1.895  0.2446  0.3979  0.3206
 1059THY    CP126455   9.848   3.978   2.032 -0.0815  0.4028 -0.5493
 1059THY    HP126456   9.757   3.926   2.065 -0.9859  3.0699  1.6075
 1059THY    CP226457   9.967   3.888   2.039  0.4101 -1.1296  0.4708
 1059THY    HP226458   9.998   3.853   2.138  1.4172 -2.4965 -0.3017
 1059THY    HP326459   9.953   3.800   1.976 -1.5579  1.1641 -2.5848
 1059THY    HP426460  10.050   3.952   2.008 -0.3943  1.3688  3.0075
 1059THY    CP326461   9.861   4.088   2.138  0.6238 -0.3281  0.0170
 1059THY    HP526462   9.770   4.095   2.197 -0.5179 -1.2506 -1.5551
 1059THY    HP626463   9.945   4.068   2.205 -0.3968 -1.4677  0.9996
 1059THY    HP726464   9.866   4.188   2.093 -1.4060 -0.2319 -0.0863
 1059THY    CA326465   9.923   4.125   1.833 -0.4529  0.0205 -0.2028
 1059THY    HA326466  10.011   4.155   1.889 -1.5240 -1.3627  2.3533
 1059THY    CA426467   9.908   4.181   1.704  0.9970  0.1320  1.2677
 1059THY    HA426468   9.982   4.244   1.656 -0.4094 -1.1968 -3.1634
 1059THY    CA526469   9.799   4.139   1.622 -0.5510 -0.1958 -0.2086
 1059THY    CM126470   9.784   4.193   1.482  0.8940 -0.3366 -0.6242
 1059THY    HM126471   9.806   4.300   1.476  0.8163 -0.2862 -0.0626
 1059THY    HM226472   9.842   4.135   1.409  1.2604  1.7463 -2.0919
 1059THY    HM326473   9.679   4.178   1.453 -0.1654 -0.0370  2.6749
 1059THY    CA626474   9.703   4.051   1.679  0.0607 -0.4413  0.2953
 1059THY    HA626475   9.609   4.031   1.628  1.3067 -1.1081 -1.8730
 1060THY      O26476   3.150   1.620   4.277 -0.2029 -0.1600  0.1040
 1060THY     HO26477   3.124   1.570   4.357 -0.8006  0.2304  0.1617
 1060THY    CA126478   3.264   1.573   4.216  0.7507  0.2905  0.0715
 1060THY    CA226479   3.308   1.625   4.093  0.2670  0.4061 -0.1284
 1060THY    CP126480   3.229   1.741   4.027  0.7222  0.3575 -0.1529
 1060THY    HP126481   3.126   1.755   4.060  0.0126 -1.0743 -1.6645
 1060THY    CP226482   3.308   1.870   4.057  0.9166  0.0867  0.6160
 1060THY    HP226483   3.256   1.959   4.019 -1.2604  0.2666  3.6127
 1060THY    HP326484   3.319   1.878   4.166 -1.2564 -0.2224  0.9147
 1060THY    HP426485   3.408   1.865   4.013  1.0105 -0.2749  0.8668
 1060THY    CP326486   3.220   1.714   3.880  0.5347  0.1706  0.2704
 1060THY    HP526487   3.310   1.742   3.824  0.6432  0.0717  0.3929
 1060THY    HP626488   3.188   1.609   3.876 -1.3981  0.7118  0.2220
 1060THY    HP726489   3.137   1.773   3.838 -0.6552 -0.9760  0.9220
 1060THY    CA326490   3.425   1.575   4.038 -0.2989 -0.5543 -1.1325
 1060THY    HA326491   3.474   1.613   3.949 -0.4254  4.3562  0.5782
 1060THY    CA426492   3.490   1.469   4.104  0.3791 -0.2257 -0.6486
 1060THY    HA426493   3.577   1.421   4.059 -1.2011 -2.8616 -1.0876
 1060THY    CA526494   3.440   1.415   4.225 -0.5023 -0.0545  0.8157
 1060THY    CM126495   3.505   1.299   4.294 -0.3489  0.4394  0.4358
 1060THY    HM126496   3.611   1.322   4.314  0.2828 -1.6193 -0.2422
 1060THY    HM226497   3.467   1.268   4.392 -0.9705  0.1846  0.1196
 1060THY    HM326498   3.500   1.214   4.225  0.5184  0.6335  0.1184
 1060THY    CA626499   3.326   1.469   4.278  0.0149 -0.7496  0.0828
 1060THY    HA626500   3.280   1.420   4.363 -1.0129  0.9005  0.5163
 1061THY      O26501   3.945   7.191   5.996  0.4381  0.1725 -0.1121
 1061THY     HO26502   3.956   7.183   5.900 -2.2259 -2.3422 -0.3177
 1061THY    CA126503   4.056   7.151   6.057  0.9703  0.1501 -0.1268
 1061THY    CA226504   4.056   7.142   6.196 -1.0062  1.5466 -0.4791
 1061THY    CP126505   3.939   7.209   6.275  0.1538 -0.4783  0.1111
 1061THY    HP126506   3.841   7.196   6.228 -0.2833  1.2874  0.4762
 1061THY    CP226507   3.928   7.148   6.416  0.1808  0.3803  0.0454
 1061THY    HP226508   3.902   7.042   6.406  1.7479 -0.0697  0.4810
 1061THY    HP326509   4.010   7.160   6.486 -1.0350  2.6922  1.1849
 1061THY    HP426510   3.839   7.185   6.469  0.5389 -0.2852  1.1190
 1061THY    CP326511   3.961   7.356   6.279  0.4854 -0.1036 -0.3499
 1061THY    HP526512   4.040   7.386   6.348 -0.5050  1.1688  0.2664
 1061THY    HP626513   4.000   7.390   6.182 -0.2509 -1.2553 -1.0808
 1061THY    HP726514   3.871   7.414   6.301  1.4630  0.2787  3.1267
 1061THY    CA326515   4.176   7.092   6.260  0.5422 -0.2518 -0.0914
 1061THY    HA326516   4.191   7.095   6.367 -0.3215 -0.3209  0.0348
 1061THY    CA426517   4.287   7.071   6.175 -0.8122 -0.7043 -0.3157
 1061THY    HA426518   4.383   7.052   6.222  0.1812  1.3818 -1.3646
 1061THY    CA526519   4.288   7.098   6.040  1.1397 -0.1663 -0.5191
 1061THY    CM126520   4.413   7.098   5.958 -0.4766 -0.3820 -0.1081
 1061THY    HM126521   4.413   7.097   5.848  1.0165 -1.5056 -0.1255
 1061THY    HM226522   4.483   7.176   5.989 -1.4390  0.2226  0.6064
 1061THY    HM326523   4.452   7.000   5.988 -0.2346 -0.7402 -1.5047
 1061THY    CA626524   4.170   7.143   5.983 -0.0573  0.2862 -0.1716
 1061THY    HA626525   4.174   7.146   5.874  4.7513 -1.5185 -0.2850
 1062THY      O26526   4.834   0.462   1.971  0.3658 -0.5387  0.0168
 1062THY     HO26527   4.791   0.455   2.058 -1.0185  0.3369 -0.5702
 1062THY    CA126528   4.759   0.401   1.881  0.2316  0.7539  0.6672
 1062THY    CA226529   4.806   0.359   1.759 -1.5534 -0.3135 -0.1016
 1062THY    CP126530   4.955   0.383   1.713  0.7565  0.2042  0.4465
 1062THY    HP126531   4.990   0.475   1.761  0.5474 -0.1065  1.2115
 1062THY    CP226532   5.038   0.272   1.782  0.1405 -1.0231 -0.1281
 1062THY    HP226533   5.011   0.276   1.889  0.1452  1.9316 -0.1642
 1062THY    HP326534   5.017   0.171   1.746 -0.0822 -0.2362 -2.3555
 1062THY    HP426535   5.145   0.297   1.787 -0.5314  2.0674  1.0201
 1062THY    CP326536   4.983   0.386   1.563  0.1354 -0.3412  1.0077
 1062THY    HP526537   4.976   0.288   1.515 -0.6372 -0.1783  0.7759
 1062THY    HP626538   4.901   0.445   1.521  0.4871 -0.2300  0.4659
 1062THY    HP726539   5.077   0.437   1.535 -1.7505  3.4445  0.9419
 1062THY    CA326540   4.725   0.277   1.682  0.6844  0.5013 -0.2628
 1062THY    HA326541   4.757   0.224   1.593 -2.4963 -2.2164 -0.0165
 1062THY    CA426542   4.597   0.238   1.726 -0.8615  0.6083 -0.3621
 1062THY    HA426543   4.536   0.174   1.662  0.1275 -0.3165 -0.3982
 1062THY    CA526544   4.546   0.297   1.842 -0.3563 -0.7310  0.1464
 1062THY    CM126545   4.412   0.271   1.889  0.8342  0.0310 -0.2220
 1062THY    HM126546   4.423   0.210   1.979  3.3833 -0.0330 -0.5216
 1062THY    HM226547   4.349   0.359   1.905  1.0714  0.3689 -1.0701
 1062THY    HM326548   4.357   0.217   1.811  0.9115  0.3312 -0.4865
 1062THY    CA626549   4.629   0.381   1.921  0.5875 -0.5175 -0.0316
 1062THY    HA626550   4.593   0.424   2.015  1.4405  0.4781 -0.1526
 1063THY      O26551   2.601   1.906   3.844  0.0933  0.1357 -0.3632
 1063THY     HO26552   2.629   1.927   3.754  1.5487  0.5355  0.1578
 1063THY    CA126553   2.685   1.815   3.893 -0.3971 -0.4615  0.3961
 1063THY    CA226554   2.709   1.793   4.022  0.0360  0.7336 -0.6068
 1063THY    CP126555   2.643   1.864   4.135  0.3194 -0.1497  0.1123
 1063THY    HP126556   2.574   1.936   4.090  1.7384  1.5385  0.4987
 1063THY    CP226557   2.568   1.773   4.234  0.5085 -0.0154 -0.6648
 1063THY    HP226558   2.526   1.847   4.304 -1.6661 -2.7391  1.1043
 1063THY    HP326559   2.478   1.729   4.189  0.6960 -1.5448  0.4214
 1063THY    HP426560   2.617   1.691   4.287  0.4923 -1.0078 -2.1322
 1063THY    CP326561   2.756   1.931   4.213 -0.0012 -0.2457  0.4381
 1063THY    HP526562   2.821   2.000   4.157 -1.8321  2.6590  1.6793
 1063THY    HP626563   2.697   1.990   4.284 -2.0094  1.3091 -2.3078
 1063THY    HP726564   2.817   1.849   4.254  0.2766 -0.9446 -1.2778
 1063THY    CA326565   2.806   1.699   4.047 -0.3042  0.1992 -0.8470
 1063THY    HA326566   2.823   1.670   4.150 -0.7830  0.7830 -0.6008
 1063THY    CA426567   2.889   1.632   3.955 -0.2046 -0.4149 -0.1057
 1063THY    HA426568   2.969   1.563   3.980  0.6722  1.2617  1.9638
 1063THY    CA526569   2.861   1.672   3.816  0.4171  0.5317 -0.2340
 1063THY    CM126570   2.942   1.604   3.701  0.6927  0.2497  0.0196
 1063THY    HM126571   3.043   1.574   3.730 -0.1161 -0.9403  1.7700
 1063THY    HM226572   2.872   1.525   3.671 -0.1263  0.9844 -0.0572
 1063THY    HM326573   2.950   1.677   3.619  2.6737  2.4857  2.0644
 1063THY    CA626574   2.758   1.762   3.789  0.1568 -0.0122  0.7555
 1063THY    HA626575   2.742   1.791   3.685  1.3375 -0.0632  0.5389
 1064THY      O26576   7.788   4.202   8.617 -0.6040  0.1707  0.3375
 1064THY     HO26577   7.814   4.264   8.546  0.2941 -3.7953 -3.2176
 1064THY    CA126578   7.668   4.146   8.581 -0.1752 -0.7657  0.2510
 1064THY    CA226579   7.593   4.078   8.679 -0.6995 -0.3331  0.1838
 1064THY    CP126580   7.642   4.088   8.825 -0.0301 -0.1928 -0.6188
 1064THY    HP126581   7.750   4.069   8.819 -0.2230 -1.1431 -1.4886
 1064THY    CP226582   7.616   4.229   8.896  0.3549 -0.2023 -0.2381
 1064THY    HP226583   7.666   4.302   8.831  0.1828 -1.3388 -1.7099
 1064THY    HP326584   7.507   4.237   8.896  0.3338 -0.2993 -1.2354
 1064THY    HP426585   7.658   4.232   8.997 -0.3915 -1.1402  0.1134
 1064THY    CP326586   7.598   3.978   8.923  0.1902 -0.2678 -0.4740
 1064THY    HP526587   7.491   3.994   8.939  0.6632  0.3978  2.4923
 1064THY    HP626588   7.609   3.877   8.881  0.3438  0.2967 -1.8696
 1064THY    HP726589   7.651   3.978   9.019  0.7439  0.5740 -0.7618
 1064THY    CA326590   7.484   4.000   8.633  0.5285  0.7333 -0.1569
 1064THY    HA326591   7.419   3.949   8.702  0.9904 -0.3406 -0.4842
 1064THY    CA426592   7.458   3.993   8.499 -0.2663 -0.2214 -0.6371
 1064THY    HA426593   7.386   3.920   8.465 -1.6158 -0.4141  2.3172
 1064THY    CA526594   7.526   4.070   8.411 -0.0306  0.0327  0.3169
 1064THY    CM126595   7.514   4.062   8.263 -0.3996 -0.6280  0.1167
 1064THY    HM126596   7.608   4.027   8.220 -1.2832 -3.0707 -0.0110
 1064THY    HM226597   7.444   3.981   8.236  0.3057 -1.4882  0.8168
 1064THY    HM326598   7.483   4.157   8.219  0.9059 -1.0753 -1.8796
 1064THY    CA626599   7.633   4.152   8.450 -0.6114  0.4847  0.3024
 1064THY    HA626600   7.690   4.203   8.373  0.1350 -1.4880 -0.5225
 1065THY      O26601   2.997   4.029   1.880  0.0165 -0.1906  0.1147
 1065THY     HO26602   2.943   4.070   1.950 -1.6769 -0.0262 -1.1984
 1065THY    CA126603   2.922   4.070   1.775  0.3614  0.3893 -0.0730
 1065THY    CA226604   2.970   4.080   1.643 -0.4852 -0.2754 -0.1028
 1065THY    CP126605   3.116   4.050   1.617 -0.4207  0.3448  0.0212
 1065THY    HP126606   3.164   4.079   1.711  0.4380  1.5875 -0.7680
 1065THY    CP226607   3.121   3.900   1.594  0.0560 -0.7270  0.3044
 1065THY    HP226608   3.225   3.867   1.576  0.2939  0.0689  0.1689
 1065THY    HP326609   3.085   3.844   1.681  2.8874 -0.6717  1.6267
 1065THY    HP426610   3.064   3.877   1.503  0.9434  0.4427 -0.5926
 1065THY    CP326611   3.173   4.128   1.500 -0.6031 -0.9206 -0.0387
 1065THY    HP526612   3.150   4.077   1.406 -1.7611 -0.3290 -0.1061
 1065THY    HP626613   3.134   4.231   1.502 -0.1021 -0.7232 -0.3228
 1065THY    HP726614   3.282   4.132   1.504 -0.6715  1.0764  1.4893
 1065THY    CA326615   2.880   4.110   1.540  0.9655 -0.7982 -0.0404
 1065THY    HA326616   2.921   4.105   1.439  0.7948 -2.7938 -0.0582
 1065THY    CA426617   2.743   4.127   1.567 -0.0845 -0.1264 -0.0748
 1065THY    HA426618   2.670   4.135   1.487  0.0955 -2.8802 -0.6134
 1065THY    CA526619   2.705   4.125   1.700  0.3610 -0.0093 -0.2787
 1065THY    CM126620   2.554   4.144   1.719 -0.2755  0.5019  0.2876
 1065THY    HM126621   2.509   4.230   1.669  0.6611  0.1773 -1.1794
 1065THY    HM226622   2.506   4.058   1.671 -0.0296  0.8220 -0.5501
 1065THY    HM326623   2.523   4.157   1.823  2.5827  0.2620  1.2651
 1065THY    CA626624   2.793   4.106   1.807  0.4766  0.0104  0.2149
 1065THY    HA626625   2.762   4.085   1.909  0.1444 -0.8777 -0.0659
 1066THY      O26626   5.566   7.028   8.352 -0.3575  0.3383 -0.4445
 1066THY     HO26627   5.652   6.988   8.375 -1.1112 -0.7466  0.6270
 1066THY    CA126628   5.468   6.931   8.391  0.1350 -0.4187  0.0154
 1066THY    CA226629   5.340   6.932   8.331  0.9239  0.4116  0.0731
 1066THY    CP126630   5.302   7.050   8.237  0.8364 -0.0414  0.5040
 1066THY    HP126631   5.339   7.148   8.271  0.9107 -0.4016  1.4837
 1066THY    CP226632   5.343   7.019   8.096 -0.8724 -0.2333  0.2645
 1066THY    HP226633   5.318   7.096   8.023 -3.6698 -1.0836  0.1892
 1066THY    HP326634   5.452   7.021   8.101 -0.8698  1.4282 -0.0622
 1066THY    HP426635   5.291   6.926   8.069 -0.3416 -0.4127 -0.1678
 1066THY    CP326636   5.152   7.073   8.236 -0.9420 -0.2418 -0.1888
 1066THY    HP526637   5.135   7.163   8.175  1.2312  1.4050  1.4525
 1066THY    HP626638   5.099   6.989   8.190 -1.0448  0.8920 -2.2471
 1066THY    HP726639   5.112   7.096   8.336  0.4463 -0.3761  0.4239
 1066THY    CA326640   5.257   6.816   8.357  0.2355 -0.2038  0.2849
 1066THY    HA326641   5.157   6.812   8.313  0.6711 -0.2830 -0.7426
 1066THY    CA426642   5.308   6.715   8.443  0.2787 -0.4756  0.0879
 1066THY    HA426643   5.241   6.631   8.458 -0.8386  0.3001 -0.4174
 1066THY    CA526644   5.433   6.721   8.504 -0.2805 -0.2759  0.1883
 1066THY    CM126645   5.479   6.613   8.597 -0.1779 -0.4952 -0.6106
 1066THY    HM126646   5.563   6.650   8.657 -0.3464 -1.9017  0.5416
 1066THY    HM226647   5.395   6.580   8.659 -0.0087  0.6727  0.2836
 1066THY    HM326648   5.507   6.522   8.543 -0.1366  0.4216 -2.2008
 1066THY    CA626649   5.508   6.837   8.480 -0.5357 -0.0501  0.4602
 1066THY    HA626650   5.601   6.848   8.535 -1.0633  1.3245  1.1120
 1067THY      O26651   5.220   7.825   8.470  0.7894  0.1239 -0.4295
 1067THY     HO26652   5.161   7.783   8.406 -0.5262  0.1783  0.7115
 1067THY    CA126653   5.328   7.744   8.491 -0.6639  1.0471 -0.0672
 1067THY    CA226654   5.439   7.779   8.569  0.3310  0.0522 -0.3398
 1067THY    CP126655   5.443   7.921   8.637  0.7578  0.0078 -0.4480
 1067THY    HP126656   5.362   7.980   8.591 -3.9785 -0.9304  5.4325
 1067THY    CP226657   5.426   7.914   8.786  0.4191  0.4303 -0.0481
 1067THY    HP226658   5.323   7.878   8.797  0.2360  1.3812  1.6102
 1067THY    HP326659   5.506   7.847   8.819  0.0462  0.4402  0.9107
 1067THY    HP426660   5.434   8.016   8.824  1.2922  0.6290 -0.7361
 1067THY    CP326661   5.577   8.005   8.613 -0.3237  0.6090  0.2385
 1067THY    HP526662   5.656   7.932   8.637  1.8469  2.8493  0.3519
 1067THY    HP626663   5.594   8.022   8.506  1.1722 -0.2638  0.2984
 1067THY    HP726664   5.582   8.092   8.679  0.3638  0.5424  0.2848
 1067THY    CA326665   5.544   7.687   8.585 -0.1147  0.5235  0.0511
 1067THY    HA326666   5.632   7.713   8.643  0.3857 -0.3344 -0.2963
 1067THY    CA426667   5.538   7.558   8.540  0.0399 -0.4892 -0.1085
 1067THY    HA426668   5.620   7.488   8.552  0.3659 -0.3686 -1.4981
 1067THY    CA526669   5.420   7.522   8.470 -0.1611  0.1751  0.7706
 1067THY    CM126670   5.406   7.377   8.413 -0.1665 -0.4304  0.2079
 1067THY    HM126671   5.450   7.304   8.481  1.7405 -0.2833 -0.7855
 1067THY    HM226672   5.306   7.344   8.383 -0.1344 -0.5613  0.2447
 1067THY    HM326673   5.458   7.366   8.317 -0.6397 -1.0116  0.0137
 1067THY    CA626674   5.327   7.618   8.437 -0.1038 -0.5146  0.2871
 1067THY    HA626675   5.262   7.595   8.353  0.3261 -0.0408 -0.1855
 1068THY      O26676   2.710   7.367   8.973 -0.3139  0.0491  0.6446
 1068THY     HO26677   2.778   7.336   8.910 -1.6030 -1.3008 -0.1613
 1068THY    CA126678   2.609   7.368   8.888 -0.2290 -1.1698 -0.2866
 1068THY    CA226679   2.482   7.427   8.917 -0.2677 -0.5271  0.5392
 1068THY    CP126680   2.462   7.483   9.055 -0.6665  0.9279  0.0813
 1068THY    HP126681   2.542   7.554   9.080  0.5083  0.0883 -1.1343
 1068THY    CP226682   2.330   7.554   9.069  0.7886 -0.1371  0.4031
 1068THY    HP226683   2.309   7.573   9.175 -0.5680  0.9052 -0.0250
 1068THY    HP326684   2.324   7.647   9.012 -0.9770  0.2107  1.0832
 1068THY    HP426685   2.254   7.483   9.036  0.4566  0.0782  0.7021
 1068THY    CP326686   2.466   7.369   9.162  0.4052 -0.3738  0.4603
 1068THY    HP526687   2.377   7.305   9.158  1.3974 -1.7571 -0.5476
 1068THY    HP626688   2.550   7.301   9.145  1.3782  0.4647  1.7402
 1068THY    HP726689   2.489   7.407   9.262  1.9714 -1.9664  0.7647
 1068THY    CA326690   2.383   7.428   8.811 -0.5720  1.1217  1.2160
 1068THY    HA326691   2.285   7.474   8.820 -0.1992  2.7769 -1.8708
 1068THY    CA426692   2.414   7.367   8.687 -0.3386  0.0918 -0.1531
 1068THY    HA426693   2.336   7.358   8.612 -0.2692  0.0558 -0.2207
 1068THY    CA526694   2.542   7.316   8.670  0.3470 -0.1438  0.1006
 1068THY    CM126695   2.558   7.238   8.533 -0.2582 -0.1976 -0.4886
 1068THY    HM126696   2.533   7.297   8.444  0.4686  0.2466 -0.4011
 1068THY    HM226697   2.663   7.210   8.519 -0.0438  0.7814 -0.9385
 1068THY    HM326698   2.497   7.147   8.540 -0.0360 -0.3590 -0.6335
 1068THY    CA626699   2.640   7.315   8.763  0.0307 -0.2221 -0.1712
 1068THY    HA626700   2.731   7.260   8.742 -0.3802 -1.0246  0.1192
 1069THY      O26701   6.563   7.587   7.239 -0.2120 -0.2765  0.6175
 1069THY     HO26702   6.543   7.619   7.328  2.4501  1.6494  0.6447
 1069THY    CA126703   6.491   7.474   7.215 -0.2915  0.3213 -0.7726
 1069THY    CA226704   6.422   7.447   7.096  0.7220  0.1159  0.5879
 1069THY    CP126705   6.427   7.550   6.982 -0.3887 -0.4321  0.2943
 1069THY    HP126706   6.438   7.655   7.011  0.6801 -0.0847 -1.2476
 1069THY    CP226707   6.542   7.514   6.885 -0.5107 -0.3250  1.1972
 1069THY    HP226708   6.539   7.413   6.844  1.9895 -0.9435  2.3173
 1069THY    HP326709   6.561   7.588   6.807  3.6491 -1.1234  1.1956
 1069THY    HP426710   6.633   7.532   6.945  0.2408 -2.5222  0.8072
 1069THY    CP326711   6.291   7.544   6.899 -0.6352 -0.3754  0.2687
 1069THY    HP526712   6.199   7.566   6.955 -0.6224 -1.5566  0.7814
 1069THY    HP626713   6.280   7.628   6.829  1.4581  1.0347  1.5135
 1069THY    HP726714   6.281   7.447   6.850  0.7634 -1.4851  2.0700
 1069THY    CA326715   6.378   7.313   7.077 -0.1503  0.4650  0.1050
 1069THY    HA326716   6.324   7.290   6.986 -0.1782  1.1153 -0.0443
 1069THY    CA426717   6.387   7.215   7.181 -0.6813  0.1233 -0.3223
 1069THY    HA426718   6.355   7.113   7.165 -2.5228  0.8555 -1.6483
 1069THY    CA526719   6.451   7.252   7.304 -0.5448  0.1107 -0.0828
 1069THY    CM126720   6.480   7.150   7.415  0.0312  0.0819 -0.6782
 1069THY    HM126721   6.575   7.097   7.404 -0.6547 -1.4547  0.4325
 1069THY    HM226722   6.483   7.195   7.514  2.0168 -1.4804  0.0438
 1069THY    HM326723   6.404   7.070   7.411 -0.3036  0.3564  0.0184
 1069THY    CA626724   6.497   7.381   7.319 -0.1281 -0.7184  0.3131
 1069THY    HA626725   6.555   7.404   7.407 -0.1632 -1.9997  0.6817
 1070THY      O26726   5.735   1.022   0.187  0.6391 -0.3878 -0.1926
 1070THY     HO26727   5.814   1.077   0.201  0.3623  0.2658 -1.0929
 1070THY    CA126728   5.706   0.975   0.311  0.1467 -0.5469  0.1038
 1070THY    CA226729   5.598   0.889   0.320 -0.3296 -0.1780 -0.5587
 1070THY    CP126730   5.520   0.838   0.206  0.2818  1.3929  0.2796
 1070THY    HP126731   5.579   0.857   0.115  1.3927  1.3993  0.9902
 1070THY    CP226732   5.519   0.681   0.207  0.6035 -0.2542 -0.4340
 1070THY    HP226733   5.442   0.650   0.279  1.4258 -0.8001  0.2356
 1070THY    HP326734   5.486   0.656   0.106 -0.0466  1.0912 -0.5778
 1070THY    HP426735   5.616   0.639   0.235 -1.0381 -2.7311  2.0428
 1070THY    CP326736   5.377   0.905   0.202  0.0767 -0.3270  0.2823
 1070THY    HP526737   5.375   1.012   0.179 -0.7381 -0.2417  0.7108
 1070THY    HP626738   5.315   0.849   0.131 -0.2666 -0.8122  0.9603
 1070THY    HP726739   5.324   0.885   0.295  1.6709 -1.7836  0.9386
 1070THY    CA326740   5.558   0.845   0.452  0.3690 -0.6621 -0.2530
 1070THY    HA326741   5.477   0.775   0.466 -0.4056  0.5310  1.6752
 1070THY    CA426742   5.643   0.883   0.563  0.2175  0.5776 -0.1983
 1070THY    HA426743   5.632   0.851   0.666  1.3608  1.4189  0.2153
 1070THY    CA526744   5.763   0.959   0.542  0.3669  0.0534  0.1665
 1070THY    CM126745   5.848   1.004   0.658  0.4190  1.3374  0.5938
 1070THY    HM126746   5.863   1.113   0.656 -1.1483  1.6169  1.8688
 1070THY    HM226747   5.815   0.982   0.760  3.0546  2.2072  1.7382
 1070THY    HM326748   5.946   0.955   0.661  0.4515  1.4241  0.9425
 1070THY    CA626749   5.783   1.024   0.423 -0.3745  0.7054 -0.3353
 1070THY    HA626750   5.862   1.096   0.404  0.4933 -0.2783 -0.5716
 1071THY      O26751   2.654   5.252   9.349 -0.3213  0.0899  0.5205
 1071THY     HO26752   2.722   5.192   9.383 -0.5670  0.7902  2.3707
 1071THY    CA126753   2.574   5.270   9.450  0.1444  0.2059  0.4795
 1071THY    CA226754   2.463   5.353   9.436  0.0196 -0.7105 -0.6972
 1071THY    CP126755   2.439   5.431   9.301 -0.6842 -0.3247  0.7543
 1071THY    HP126756   2.523   5.437   9.231 -0.6809 -0.7893  0.7181
 1071THY    CP226757   2.329   5.360   9.219 -0.3733  0.0500 -0.2481
 1071THY    HP226758   2.288   5.431   9.147 -0.3221  0.9205  0.5553
 1071THY    HP326759   2.363   5.270   9.166 -0.4749 -0.8270  1.1212
 1071THY    HP426760   2.248   5.330   9.287 -0.5730 -1.0806 -0.9443
 1071THY    CP326761   2.406   5.577   9.337  0.2229 -0.4354  0.2253
 1071THY    HP526762   2.401   5.635   9.244  0.5158  3.0570  2.1901
 1071THY    HP626763   2.313   5.575   9.394  0.5925 -2.1434  0.8439
 1071THY    HP726764   2.477   5.609   9.414  0.5495  0.3110 -0.3712
 1071THY    CA326765   2.376   5.373   9.548 -0.0657  0.4171  0.0051
 1071THY    HA326766   2.296   5.446   9.539  0.3100  0.7743 -0.5731
 1071THY    CA426767   2.416   5.322   9.674 -0.4205  0.2890 -0.1234
 1071THY    HA426768   2.370   5.360   9.765 -0.6307 -0.3431  0.0389
 1071THY    CA526769   2.522   5.226   9.684  0.0703 -0.2426  0.9719
 1071THY    CM126770   2.569   5.165   9.813 -0.2097 -0.4857  0.0224
 1071THY    HM126771   2.484   5.156   9.882 -1.0287  0.8375 -0.7694
 1071THY    HM226772   2.610   5.063   9.810  0.2648 -0.3042  0.1070
 1071THY    HM326773   2.639   5.237   9.858 -0.9740  0.6986 -0.6416
 1071THY    CA626774   2.599   5.202   9.569  0.2484  0.5088  0.1947
 1071THY    HA626775   2.684   5.136   9.578  1.3711  1.3833 -2.7292
 1072THY      O26776   4.025   0.470   6.581  0.0015 -0.2722 -1.0812
 1072THY     HO26777   3.994   0.464   6.673  0.0122 -1.2525 -1.1339
 1072THY    CA126778   4.143   0.541   6.599 -0.5207  0.3273 -0.3751
 1072THY    CA226779   4.235   0.561   6.490  0.3233  0.6163  0.1546
 1072THY    CP126780   4.216   0.472   6.366  0.3238 -0.4989  1.1388
 1072THY    HP126781   4.173   0.374   6.387  0.0358 -0.8748 -0.9856
 1072THY    CP226782   4.120   0.545   6.264  0.0985 -0.3334 -0.9828
 1072THY    HP226783   4.017   0.544   6.302  0.1734  0.2622 -0.7515
 1072THY    HP326784   4.158   0.648   6.261 -1.5491  0.2822 -1.2876
 1072THY    HP426785   4.133   0.507   6.162  2.2233 -0.2637 -0.7803
 1072THY    CP326786   4.358   0.438   6.304 -0.5663 -0.1881 -0.7300
 1072THY    HP526787   4.412   0.529   6.274 -1.9752  0.5315 -1.1945
 1072THY    HP626788   4.422   0.398   6.384  1.6546  0.8470 -1.8888
 1072THY    HP726789   4.355   0.372   6.217  0.0033 -0.3406 -0.6357
 1072THY    CA326790   4.341   0.651   6.514 -0.2867 -0.2436  0.1160
 1072THY    HA326791   4.414   0.674   6.437  1.5134 -0.5639  1.6573
 1072THY    CA426792   4.346   0.721   6.642  0.1337 -0.2008 -0.0991
 1072THY    HA426793   4.422   0.797   6.658 -0.7827  1.1109 -1.6459
 1072THY    CA526794   4.254   0.692   6.746  0.2055 -0.4548  0.5150
 1072THY    CM126795   4.259   0.762   6.885  0.0500  0.0993  0.0955
 1072THY    HM126796   4.163   0.747   6.935 -0.3793 -2.6341 -1.3615
 1072THY    HM226797   4.337   0.717   6.947 -0.1225  0.1611  0.3549
 1072THY    HM326798   4.281   0.868   6.868 -1.7700  0.3089 -1.2641
 1072THY    CA626799   4.155   0.612   6.718 -0.2536  0.2374 -0.1526
 1072THY    HA626800   4.080   0.602   6.797  0.8687 -0.8680  0.8106
 1073THY      O26801   0.825   2.706   0.496 -0.1140  0.2876  0.2355
 1073THY     HO26802   0.773   2.667   0.569 -1.7299  0.6291 -0.6695
 1073THY    CA126803   0.899   2.610   0.452  0.5645  0.3836 -0.2326
 1073THY    CA226804   0.968   2.617   0.333  0.5134  0.2771  0.1285
 1073THY    CP126805   0.963   2.740   0.238 -0.1988  0.0059 -0.2855
 1073THY    HP126806   0.955   2.815   0.318  3.7489 -0.6568  0.9598
 1073THY    CP226807   1.099   2.778   0.177 -0.0867  0.5835  0.2154
 1073THY    HP226808   1.157   2.791   0.269 -1.1802 -1.3659  1.2471
 1073THY    HP326809   1.142   2.697   0.117  0.7896  1.4691 -0.3770
 1073THY    HP426810   1.094   2.875   0.127  2.2962  0.6767  0.0312
 1073THY    CP326811   0.844   2.726   0.148  0.2268 -0.6546 -0.6537
 1073THY    HP526812   0.759   2.704   0.213 -0.9162  2.3771 -0.9863
 1073THY    HP626813   0.823   2.819   0.094 -4.4841 -0.4590  1.1017
 1073THY    HP726814   0.863   2.648   0.073  1.4650  0.6504 -1.7542
 1073THY    CA326815   1.039   2.501   0.283 -0.5173  0.2364 -0.1358
 1073THY    HA326816   1.099   2.497   0.192  1.5461  1.6065  1.0709
 1073THY    CA426817   1.048   2.387   0.366  0.0757  0.1637  0.4843
 1073THY    HA426818   1.111   2.300   0.348 -0.6302 -0.3360  0.4011
 1073THY    CA526819   0.983   2.386   0.490  0.5363 -0.3209 -0.4971
 1073THY    CM126820   0.980   2.257   0.575  0.0250 -0.4266 -1.0172
 1073THY    HM126821   0.882   2.208   0.584  0.4731 -1.2892 -0.7589
 1073THY    HM226822   1.047   2.183   0.530 -2.4770 -3.0319 -0.7475
 1073THY    HM326823   1.004   2.282   0.679 -2.3600 -1.0270 -0.2603
 1073THY    CA626824   0.901   2.495   0.527 -0.0586 -0.3318 -0.2211
 1073THY    HA626825   0.853   2.499   0.625 -1.0636  1.7293 -0.7315
 1074THY      O26826   9.722   3.374   2.139 -0.0331  0.0691 -0.1131
 1074THY     HO26827   9.730   3.373   2.236  2.4232 -1.4209 -0.2234
 1074THY    CA126828   9.594   3.397   2.110  0.2345 -0.1279  0.0514
 1074THY    CA226829   9.542   3.382   1.978 -0.4730 -1.2245 -0.1728
 1074THY    CP126830   9.637   3.359   1.861  0.2156 -0.6817  0.2670
 1074THY    HP126831   9.719   3.295   1.894  0.2074 -0.8922 -0.1103
 1074THY    CP226832   9.576   3.268   1.745  0.7244 -0.9089  0.0495
 1074THY    HP226833   9.527   3.185   1.796 -0.3183 -0.9935 -1.0379
 1074THY    HP326834   9.500   3.318   1.683 -0.1368 -2.2811 -0.0414
 1074THY    HP426835   9.647   3.230   1.671 -0.1632 -0.4196 -1.0917
 1074THY    CP326836   9.691   3.484   1.791 -0.6108  0.9724 -0.3197
 1074THY    HP526837   9.604   3.547   1.770 -1.3873  0.4285  1.0395
 1074THY    HP626838   9.760   3.532   1.861 -1.1965  0.4132  0.6673
 1074THY    HP726839   9.740   3.456   1.697 -0.5139  0.0715 -0.0191
 1074THY    CA326840   9.400   3.392   1.955 -0.0094 -0.6882 -0.6037
 1074THY    HA326841   9.354   3.379   1.858  0.3386 -0.1240 -0.8530
 1074THY    CA426842   9.319   3.411   2.067 -0.4025  0.1517 -0.0613
 1074THY    HA426843   9.212   3.421   2.058 -0.3841  1.2728  0.7662
 1074THY    CA526844   9.372   3.432   2.195 -0.4718 -0.4437  0.7442
 1074THY    CM126845   9.286   3.439   2.313 -0.1140 -0.2925 -0.6095
 1074THY    HM126846   9.176   3.436   2.311 -0.3144 -0.2220  2.9096
 1074THY    HM226847   9.319   3.348   2.365  1.1708 -1.2619 -2.9739
 1074THY    HM326848   9.319   3.527   2.369  0.6799  0.7546 -2.6336
 1074THY    CA626849   9.513   3.430   2.216 -0.3136  0.1691 -0.7452
 1074THY    HA626850   9.549   3.433   2.319 -1.1603 -0.7462 -0.4005
 1075THY      O26851   5.848   5.691   2.709 -0.1425 -0.4701 -0.0764
 1075THY     HO26852   5.912   5.672   2.638  1.6477  2.1736  0.6821
 1075THY    CA126853   5.859   5.826   2.719  1.1163 -0.4378 -0.2440
 1075THY    CA226854   5.741   5.899   2.751  1.5650 -0.4136 -0.3566
 1075THY    CP126855   5.609   5.820   2.783  0.2490  0.3205 -0.4753
 1075THY    HP126856   5.631   5.716   2.809 -0.0872  1.0880  3.5051
 1075THY    CP226857   5.527   5.864   2.912 -0.4624 -0.5265 -0.2120
 1075THY    HP226858   5.506   5.972   2.911 -1.3932 -0.6740  1.4914
 1075THY    HP326859   5.430   5.815   2.916 -0.6945 -0.0101  0.6478
 1075THY    HP426860   5.591   5.843   2.998 -1.9748  1.7098  1.5648
 1075THY    CP326861   5.519   5.828   2.667  0.6096  0.2563  0.4080
 1075THY    HP526862   5.483   5.931   2.654  2.1295  0.8333  0.5476
 1075THY    HP626863   5.568   5.815   2.569  1.1311 -0.1118  0.7141
 1075THY    HP726864   5.434   5.761   2.681 -0.3418  1.4863  0.6906
 1075THY    CA326865   5.742   6.041   2.754 -0.1868 -0.3585  0.1931
 1075THY    HA326866   5.648   6.089   2.778 -0.0455 -0.3819  0.8121
 1075THY    CA426867   5.859   6.107   2.712 -0.1297 -0.5983 -0.2706
 1075THY    HA426868   5.857   6.216   2.711 -0.9184 -0.6036  0.0912
 1075THY    CA526869   5.976   6.033   2.679 -0.5238  0.1547  0.2938
 1075THY    CM126870   6.097   6.106   2.628  1.2962  0.7258 -0.2081
 1075THY    HM126871   6.076   6.213   2.623 -0.1426  0.4894  0.3162
 1075THY    HM226872   6.183   6.083   2.692  1.0417  2.7570  0.9547
 1075THY    HM326873   6.123   6.072   2.527 -0.8810 -0.3890 -0.4635
 1075THY    CA626874   5.976   5.895   2.686 -0.4501 -0.0775  0.2125
 1075THY    HA626875   6.061   5.840   2.646 -0.1465 -0.0470  0.8063
 1076THY      O26876   1.335   8.600   7.141  0.3685 -0.7496  0.4045
 1076THY     HO26877   1.257   8.659   7.142  0.5842 -0.4145 -1.0589
 1076THY    CA126878   1.448   8.675   7.160  0.8142  0.1172  0.5946
 1076THY    CA226879   1.560   8.636   7.246  0.0737 -0.3566 -0.0985
 1076THY    CP126880   1.555   8.503   7.316 -0.1682  0.8252 -0.7578
 1076THY    HP126881   1.502   8.429   7.254 -1.2308 -0.4979  1.5937
 1076THY    CP226882   1.699   8.436   7.334  0.6019 -0.5474 -0.7116
 1076THY    HP226883   1.693   8.336   7.378  0.4289 -1.0183 -1.7661
 1076THY    HP326884   1.744   8.417   7.236  0.2308 -2.0102 -0.6293
 1076THY    HP426885   1.763   8.508   7.386 -1.1465  1.4219 -1.1326
 1076THY    CP326886   1.476   8.483   7.438  0.1674  0.0617 -0.0292
 1076THY    HP526887   1.447   8.377   7.442 -3.1122  0.8577  0.2506
 1076THY    HP626888   1.546   8.517   7.515  0.9134 -0.6804 -0.3600
 1076THY    HP726889   1.389   8.550   7.439  0.7054  0.9317 -2.9084
 1076THY    CA326890   1.665   8.725   7.265 -0.7393  0.5331 -0.2228
 1076THY    HA326891   1.749   8.703   7.332  0.0639  0.9342 -1.0731
 1076THY    CA426892   1.663   8.845   7.202 -0.1236 -0.4171  0.3170
 1076THY    HA426893   1.743   8.914   7.229 -1.2158  2.0553 -2.2862
 1076THY    CA526894   1.560   8.879   7.108  0.1332  0.2207  0.1440
 1076THY    CM126895   1.569   8.994   7.028  0.1059 -0.0447  0.6341
 1076THY    HM126896   1.573   9.084   7.089  0.8675  1.1222 -1.0501
 1076THY    HM226897   1.664   8.980   6.975  0.3713  2.7065  0.2520
 1076THY    HM326898   1.495   9.011   6.949  1.6131  1.4220 -0.5584
 1076THY    CA626899   1.447   8.798   7.101  0.2303  0.1635  0.7490
 1076THY    HA626900   1.370   8.826   7.030  3.1179  0.7216 -2.3866
 1077THY      O26901   5.578   1.583   3.618 -0.1710  0.3158 -0.0142
 1077THY     HO26902   5.572   1.618   3.527  0.8434 -2.0619 -1.0690
 1077THY    CA126903   5.492   1.486   3.628 -0.8844  1.0500  0.5585
 1077THY    CA226904   5.472   1.405   3.745 -0.6566  0.2663  0.3922
 1077THY    CP126905   5.553   1.424   3.870  0.3085 -0.9759  0.7858
 1077THY    HP126906   5.633   1.496   3.848  0.7245 -2.3291 -2.8370
 1077THY    CP226907   5.460   1.477   3.985  0.6053  0.7340  0.0503
 1077THY    HP226908   5.397   1.562   3.957 -2.9610 -1.4401  0.8815
 1077THY    HP326909   5.390   1.394   4.001  1.4507 -0.4075 -1.8312
 1077THY    HP426910   5.510   1.506   4.078  1.5800  0.4135 -0.3562
 1077THY    CP326911   5.628   1.293   3.912  0.6296 -0.6067 -0.4314
 1077THY    HP526912   5.677   1.263   3.819 -1.9730  0.4187 -2.2545
 1077THY    HP626913   5.684   1.319   4.003 -0.2423  0.2520 -0.1162
 1077THY    HP726914   5.551   1.218   3.936  1.7690 -1.8840 -0.6800
 1077THY    CA326915   5.370   1.310   3.745 -0.3794  0.2024 -0.1005
 1077THY    HA326916   5.349   1.242   3.827 -0.0534 -2.1517 -1.8584
 1077THY    CA426917   5.298   1.297   3.628  0.3364 -0.6015 -0.3038
 1077THY    HA426918   5.227   1.215   3.636  0.6488 -0.8379  0.0943
 1077THY    CA526919   5.310   1.384   3.526 -0.8447  0.6788  0.0232
 1077THY    CM126920   5.208   1.392   3.405 -0.8516  0.0485 -0.1134
 1077THY    HM126921   5.252   1.373   3.307 -1.8724  1.8570 -0.9824
 1077THY    HM226922   5.128   1.321   3.429 -1.1500  0.7481  1.0437
 1077THY    HM326923   5.161   1.491   3.398 -1.3770 -0.2721 -1.4493
 1077THY    CA626924   5.415   1.471   3.514  0.3116 -0.2684 -0.0693
 1077THY    HA626925   5.430   1.536   3.428  0.0809 -0.8402 -0.5454
 1078THY      O26926   3.258   2.874   4.283  0.3971 -0.2870  0.9161
 1078THY     HO26927   3.186   2.842   4.227  0.4288  0.1036  0.6475
 1078THY    CA126928   3.288   2.998   4.226 -0.3931  0.7712 -0.3331
 1078THY    CA226929   3.365   3.097   4.284  0.5380 -0.0079 -0.5304
 1078THY    CP126930   3.418   3.078   4.424 -0.2794 -0.4509 -0.0818
 1078THY    HP126931   3.473   2.983   4.418  0.6141  0.1325 -1.8974
 1078THY    CP226932   3.531   3.181   4.471  0.0779  0.4367  0.2570
 1078THY    HP226933   3.612   3.185   4.397  0.6054  0.3079  0.8199
 1078THY    HP326934   3.495   3.282   4.489  0.0119  0.4728 -0.0698
 1078THY    HP426935   3.564   3.160   4.573 -1.2195  1.0767  0.8228
 1078THY    CP326936   3.305   3.070   4.530 -0.3256  0.3157 -1.0562
 1078THY    HP526937   3.272   3.171   4.559 -0.5749 -0.3177  1.0112
 1078THY    HP626938   3.207   3.039   4.494 -0.2268 -0.5759 -0.5715
 1078THY    HP726939   3.338   3.013   4.617 -2.7166  0.2545 -0.1183
 1078THY    CA326940   3.391   3.216   4.222 -0.0976 -0.2159  0.0240
 1078THY    HA326941   3.449   3.292   4.271 -0.0550 -0.7178  0.7636
 1078THY    CA426942   3.341   3.234   4.092  0.6525 -1.3287  0.6315
 1078THY    HA426943   3.361   3.324   4.035 -2.4325 -0.2891  1.0120
 1078THY    CA526944   3.263   3.143   4.030 -0.4541  0.3320 -0.2205
 1078THY    CM126945   3.227   3.158   3.889 -0.5995  0.2288  0.8635
 1078THY    HM126946   3.145   3.101   3.844 -0.0660 -1.0761  1.5011
 1078THY    HM226947   3.207   3.265   3.876 -2.6825 -0.3352 -1.4255
 1078THY    HM326948   3.311   3.135   3.823 -0.8484  4.0303 -1.0882
 1078THY    CA626949   3.223   3.026   4.097 -0.0792  0.7205 -0.1482
 1078THY    HA626950   3.157   2.956   4.047  1.7127 -0.4607 -0.9697
 1079THY      O26951   0.005   5.895   3.898  0.6946  0.2155  0.0086
 1079THY     HO26952   0.048   5.808   3.900 -0.5551 -0.4131  2.0201
 1079THY    CA126953  -0.102   5.884   3.816 -0.2753  0.4073  0.0131
 1079THY    CA226954  -0.183   5.994   3.782 -0.2013 -0.1198  0.1838
 1079THY    CP126955  -0.138   6.129   3.840  0.4962  0.1851 -0.3045
 1079THY    HP126956  -0.113   6.111   3.945 -2.7049 -3.7910 -0.0048
 1079THY    CP226957  -0.027   6.198   3.754  0.3213  0.0485  0.0123
 1079THY    HP226958   0.067   6.147   3.774  0.7918  0.2313 -1.6415
 1079THY    HP326959  -0.052   6.198   3.648  0.1898  0.9934  0.0299
 1079THY    HP426960  -0.003   6.300   3.786  1.1922 -1.1085  3.4627
 1079THY    CP326961  -0.257   6.218   3.847 -0.6493 -0.3598  0.1517
 1079THY    HP526962  -0.338   6.170   3.903 -1.6239 -1.8002 -2.3280
 1079THY    HP626963  -0.232   6.304   3.910 -1.1434 -1.7725  2.3710
 1079THY    HP726964  -0.294   6.252   3.749 -0.4141  2.4417  0.9312
 1079THY    CA326965  -0.287   5.981   3.695  0.4610  0.5155  0.5284
 1079THY    HA326966  -0.338   6.068   3.654 -0.3661 -1.5950 -3.5507
 1079THY    CA426967  -0.313   5.851   3.637 -0.2409  0.1261 -0.5095
 1079THY    HA426968  -0.391   5.833   3.563  0.4902 -0.5454 -1.1347
 1079THY    CA526969  -0.226   5.746   3.661 -0.0948 -0.1348  0.3852
 1079THY    CM126970  -0.245   5.608   3.602  0.2789 -0.2070 -0.4463
 1079THY    HM126971  -0.211   5.529   3.670 -1.9554  1.2430  2.5673
 1079THY    HM226972  -0.349   5.599   3.570 -0.0701  3.4754 -0.7128
 1079THY    HM326973  -0.193   5.592   3.507  1.5784 -0.9826  0.3638
 1079THY    CA626974  -0.122   5.763   3.752 -0.0585  0.0804  0.1152
 1079THY    HA626975  -0.053   5.682   3.770 -0.2301 -0.0551  0.1647
 1080THY      O26976   1.541   3.513   4.828 -0.1412 -0.4593  0.6914
 1080THY     HO26977   1.628   3.470   4.840 -0.4979 -1.7234 -1.0225
 1080THY    CA126978   1.462   3.403   4.841  0.1485  0.4888  0.2960
 1080THY    CA226979   1.327   3.419   4.818  0.0150 -0.3840 -0.9910
 1080THY    CP126980   1.263   3.553   4.779 -0.2770 -0.4440 -0.0221
 1080THY    HP126981   1.333   3.631   4.745  1.7415 -1.6027  1.2716
 1080THY    CP226982   1.158   3.533   4.660 -0.3943  0.3047 -0.2566
 1080THY    HP226983   1.063   3.495   4.701 -0.9564  0.3665 -1.4568
 1080THY    HP326984   1.142   3.625   4.604  2.5666  0.2731 -1.3096
 1080THY    HP426985   1.197   3.466   4.583  1.9653  1.4184 -0.1020
 1080THY    CP326986   1.197   3.617   4.902  0.3054 -0.3179 -0.0930
 1080THY    HP526987   1.138   3.704   4.872  0.3198  0.0429  0.8767
 1080THY    HP626988   1.120   3.550   4.944  0.0214  0.9951  1.5985
 1080THY    HP726989   1.271   3.645   4.977 -0.0773  0.3741  0.0368
 1080THY    CA326990   1.246   3.307   4.831 -0.3310  0.6924  0.0024
 1080THY    HA326991   1.140   3.324   4.820  0.1204  3.0280 -1.4666
 1080THY    CA426992   1.303   3.176   4.855 -0.5511 -0.3865  0.5558
 1080THY    HA426993   1.241   3.090   4.876  0.2930 -1.9921 -2.7870
 1080THY    CA526994   1.437   3.168   4.879 -1.0799  0.4632 -0.5587
 1080THY    CM126995   1.498   3.040   4.926  0.3286  0.9185  0.7857
 1080THY    HM126996   1.591   3.024   4.870 -0.3135 -0.9743  0.1996
 1080THY    HM226997   1.533   3.051   5.030  1.9520  2.5565  0.1392
 1080THY    HM326998   1.429   2.958   4.903 -0.4152  1.5757  0.6163
 1080THY    CA626999   1.519   3.280   4.877  0.5802 -0.3659  0.1297
 1080THY    HA627000   1.624   3.269   4.901  1.1662  1.7765 -1.1662
 1081THY      O27001   4.436   1.618   9.513 -0.9674 -0.0917 -0.3317
 1081THY     HO27002   4.481   1.544   9.470 -2.5614 -0.7242 -0.9625
 1081THY    CA127003   4.352   1.673   9.414 -1.2977 -0.2713 -0.6620
 1081THY    CA227004   4.337   1.812   9.402 -0.0058 -0.4692 -0.2151
 1081THY    CP127005   4.411   1.913   9.498  0.2960  0.0713 -0.1696
 1081THY    HP127006   4.500   1.866   9.541  0.3432  0.4280  0.1288
 1081THY    CP227007   4.474   2.020   9.408 -0.2011 -0.5457  0.0313
 1081THY    HP227008   4.521   1.976   9.320 -0.4474 -0.4753 -0.1367
 1081THY    HP327009   4.407   2.103   9.384 -0.7103 -1.0245 -0.2039
 1081THY    HP427010   4.556   2.052   9.473 -0.3228 -1.3044  0.5727
 1081THY    CP327011   4.311   1.985   9.593 -0.4694 -0.2794  0.2945
 1081THY    HP527012   4.370   2.032   9.672  1.8261 -1.9902 -0.3022
 1081THY    HP627013   4.238   2.056   9.551  0.1257  0.6580  0.8113
 1081THY    HP727014   4.250   1.907   9.638 -0.8451 -0.2061 -0.0816
 1081THY    CA327015   4.244   1.856   9.308  0.4038  0.4121  0.3642
 1081THY    HA327016   4.219   1.961   9.294 -0.2899  0.1672 -0.2968
 1081THY    CA427017   4.178   1.759   9.225 -0.2052 -0.4048  0.1765
 1081THY    HA427018   4.109   1.787   9.146 -1.4506  0.2178  1.4388
 1081THY    CA527019   4.197   1.618   9.240 -0.4793 -0.0759  0.6707
 1081THY    CM127020   4.120   1.525   9.146  0.6093 -0.0290 -0.7537
 1081THY    HM127021   4.182   1.491   9.063  1.6428  0.5531 -0.2517
 1081THY    HM227022   4.088   1.439   9.206 -0.7343  0.6649 -0.4441
 1081THY    HM327023   4.029   1.571   9.107 -0.1862  0.4417  1.4921
 1081THY    CA627024   4.289   1.577   9.335  0.9640 -0.5629 -0.0588
 1081THY    HA627025   4.300   1.472   9.358 -3.4760 -1.3415 -0.6860
 1082THY      O27026   3.352   8.635   7.197  0.0988  0.0697 -0.6996
 1082THY     HO27027   3.282   8.612   7.261  1.1319 -0.1086  0.4026
 1082THY    CA127028   3.315   8.757   7.148 -0.3403  0.6564 -0.0748
 1082THY    CA227029   3.406   8.847   7.081  0.0209  0.4555  0.1051
 1082THY    CP127030   3.550   8.799   7.047  0.2593  0.6434  0.0532
 1082THY    HP127031   3.560   8.690   7.051  2.8636  0.8173  0.0918
 1082THY    CP227032   3.596   8.832   6.902  0.0165 -0.4498  0.5147
 1082THY    HP227033   3.523   8.810   6.823  0.0265  0.0456  0.3578
 1082THY    HP327034   3.638   8.934   6.898 -0.7883 -0.1449 -1.6494
 1082THY    HP427035   3.684   8.769   6.887  1.3476  0.5186  3.5609
 1082THY    CP327036   3.661   8.849   7.150 -0.6282  0.0999 -0.7864
 1082THY    HP527037   3.608   8.864   7.245 -1.7768 -1.3426 -1.1659
 1082THY    HP627038   3.731   8.767   7.170  1.0242  1.5990 -0.1400
 1082THY    HP727039   3.712   8.942   7.124 -0.6574  0.7480  1.2743
 1082THY    CA327040   3.353   8.972   7.044 -0.7707  0.4293 -0.8050
 1082THY    HA327041   3.413   9.045   6.992  0.3762 -0.1891 -0.3817
 1082THY    CA427042   3.230   9.010   7.099 -0.5753 -0.2202 -0.0134
 1082THY    HA427043   3.212   9.116   7.088  1.8871  0.3868  1.0671
 1082THY    CA527044   3.155   8.918   7.167 -0.2793 -0.3090  0.0384
 1082THY    CM127045   3.021   8.948   7.224  0.2206 -0.2691 -0.1809
 1082THY    HM127046   2.981   9.036   7.172  2.2980  0.8305 -0.0560
 1082THY    HM227047   2.943   8.872   7.216 -0.0619  0.0731 -0.7347
 1082THY    HM327048   3.018   8.967   7.332 -1.1558 -0.2367 -0.2108
 1082THY    CA627049   3.194   8.790   7.190  0.6787  0.1011  0.4221
 1082THY    HA627050   3.132   8.716   7.239 -0.0634 -0.6799 -1.6262
 1083THY      O27051   3.852   9.577   8.236 -0.3842 -0.5553  0.2775
 1083THY     HO27052   3.940   9.610   8.210 -0.1244 -0.8778  0.7382
 1083THY    CA127053   3.780   9.689   8.270  0.5797  0.0945 -0.8304
 1083THY    CA227054   3.679   9.691   8.369  0.4389  0.1648  0.1701
 1083THY    CP127055   3.633   9.562   8.431  0.2248  0.1945  0.8028
 1083THY    HP127056   3.687   9.476   8.390 -0.1447  0.6874 -0.8113
 1083THY    CP227057   3.637   9.579   8.591  0.1597  0.0476  0.4709
 1083THY    HP227058   3.573   9.661   8.627  0.4149  0.6406 -0.3858
 1083THY    HP327059   3.624   9.488   8.650 -0.9851 -0.3395 -0.3394
 1083THY    HP427060   3.729   9.625   8.630  0.8613  1.0810 -2.2014
 1083THY    CP327061   3.488   9.522   8.379  0.5725 -0.3595 -0.6727
 1083THY    HP527062   3.438   9.454   8.449 -0.1422  1.7570  0.9949
 1083THY    HP627063   3.426   9.613   8.385  1.8854  0.7472 -2.7479
 1083THY    HP727064   3.464   9.497   8.275 -0.7792  0.0142 -0.4697
 1083THY    CA327065   3.603   9.810   8.395  0.3119 -0.1142 -0.0143
 1083THY    HA327066   3.532   9.809   8.477  1.1465  1.1678  0.7599
 1083THY    CA427067   3.645   9.929   8.327  0.0664  0.0774  0.1519
 1083THY    HA427068   3.597  10.024   8.347 -0.4848 -0.1719  0.0499
 1083THY    CA527069   3.758   9.922   8.244 -0.0872 -0.0248  0.5649
 1083THY    CM127070   3.805  10.053   8.182  0.1602  0.0886  0.1260
 1083THY    HM127071   3.841  10.035   8.081  0.0558 -3.3474  0.5850
 1083THY    HM227072   3.728  10.132   8.183  1.6188  1.5766 -0.7187
 1083THY    HM327073   3.887  10.088   8.246  0.3353 -2.0514  1.1765
 1083THY    CA627074   3.813   9.802   8.204  0.1617  0.6199 -0.4257
 1083THY    HA627075   3.886   9.792   8.124  1.6847  0.6684  0.8938
 1084THY      O27076   6.343   4.341   3.982  0.3204 -0.0857 -0.4600
 1084THY     HO27077   6.336   4.435   4.004 -2.1152 -0.3588  0.2624
 1084THY    CA127078   6.242   4.276   4.045  0.1518  0.1873  0.3090
 1084THY    CA227079   6.246   4.137   4.054  0.2183 -0.3783  0.6404
 1084THY    CP127080   6.352   4.051   3.984 -0.7572  0.1242  0.5033
 1084THY    HP127081   6.452   4.096   3.988  0.2603 -1.9872  0.7587
 1084THY    CP227082   6.385   3.909   4.048 -0.2452 -0.1993  0.2794
 1084THY    HP227083   6.477   3.869   4.005 -0.3973 -0.1706 -0.0787
 1084THY    HP327084   6.413   3.919   4.154  1.3469 -0.9146 -0.0534
 1084THY    HP427085   6.301   3.839   4.042 -0.8272  0.5884 -1.3042
 1084THY    CP327086   6.300   4.015   3.840  0.0834 -0.0425 -0.1432
 1084THY    HP527087   6.383   3.982   3.776  0.6063 -2.0465  1.4658
 1084THY    HP627088   6.228   3.932   3.837  0.2696 -0.2282  0.4400
 1084THY    HP727089   6.244   4.096   3.791 -1.0659  0.6787  2.2129
 1084THY    CA327090   6.141   4.075   4.116  1.6957  0.2930  1.0587
 1084THY    HA327091   6.134   3.967   4.109 -0.7273  0.4897 -2.0002
 1084THY    CA427092   6.034   4.152   4.180  0.3828  0.5761 -0.1054
 1084THY    HA427093   5.950   4.103   4.230 -0.1981  1.6494  0.0120
 1084THY    CA527094   6.052   4.289   4.190 -0.1769 -0.1196 -0.1411
 1084THY    CM127095   5.956   4.382   4.262  1.0466 -0.6190  0.8335
 1084THY    HM127096   5.998   4.479   4.289  0.6422 -0.2647  0.2322
 1084THY    HM227097   5.865   4.402   4.203  1.2061  2.0902  1.4035
 1084THY    HM327098   5.927   4.332   4.355 -0.6968  0.8136  1.1111
 1084THY    CA627099   6.146   4.353   4.110 -0.7544 -0.1913  0.4236
 1084THY    HA627100   6.142   4.462   4.107 -1.7065 -0.0459  3.5444
 1085THY      O27101   5.238   9.290   7.339  0.4703  0.5876 -0.0924
 1085THY     HO27102   5.205   9.202   7.314  0.7633  0.0258  1.3787
 1085THY    CA127103   5.143   9.367   7.406 -0.2332  0.1812  0.0679
 1085THY    CA227104   5.172   9.505   7.442  0.1944  0.8050  0.3924
 1085THY    CP127105   5.324   9.559   7.438  0.4816  0.4028 -0.3420
 1085THY    HP127106   5.386   9.488   7.383  0.1658  1.0227 -1.5361
 1085THY    CP227107   5.338   9.688   7.359 -0.2507 -0.0564 -0.4925
 1085THY    HP227108   5.309   9.675   7.254 -0.5026  1.1565 -0.5792
 1085THY    HP327109   5.292   9.767   7.419 -0.6969  0.1004 -1.0308
 1085THY    HP427110   5.441   9.724   7.362 -0.0730 -0.5953  2.3779
 1085THY    CP327111   5.376   9.561   7.579  0.1137  0.5165  0.3292
 1085THY    HP527112   5.470   9.611   7.606  0.0265  0.9502 -0.1459
 1085THY    HP627113   5.295   9.607   7.637 -3.0313 -0.4219 -2.9427
 1085THY    HP727114   5.384   9.459   7.619  0.4875  1.8631  4.1663
 1085THY    CA327115   5.066   9.594   7.485  0.0852  0.1248 -0.6498
 1085THY    HA327116   5.068   9.700   7.510 -0.4999 -0.4190  2.0079
 1085THY    CA427117   4.936   9.534   7.501  0.8029  0.3740  0.2879
 1085THY    HA427118   4.851   9.593   7.532  1.1896 -0.1745  2.5518
 1085THY    CA527119   4.915   9.398   7.475 -0.7966 -0.2079 -0.4048
 1085THY    CM127120   4.775   9.350   7.503 -0.0313 -1.1352 -0.0222
 1085THY    HM127121   4.698   9.426   7.485 -0.8436 -2.0361 -0.4419
 1085THY    HM227122   4.748   9.258   7.449  2.1063 -1.4840 -0.5821
 1085THY    HM327123   4.766   9.333   7.611  0.3347  2.6742  0.7507
 1085THY    CA627124   5.014   9.321   7.423 -0.1502 -0.0129 -0.4506
 1085THY    HA627125   4.986   9.220   7.393  0.3724 -0.6675  1.1665
 1086THY      O27126   1.172   1.741   4.201  0.3701 -0.4247  0.1191
 1086THY     HO27127   1.157   1.725   4.296  2.8741  0.5737  0.7495
 1086THY    CA127128   1.064   1.689   4.137  0.0024  0.2946 -0.5059
 1086THY    CA227129   1.049   1.680   3.992 -0.2514 -0.3694 -0.2752
 1086THY    CP127130   1.144   1.744   3.900 -0.5379  0.7543  0.7914
 1086THY    HP127131   1.217   1.802   3.957 -1.5067  1.6648  1.1351
 1086THY    CP227132   1.216   1.631   3.825  0.4031  0.1830 -0.3763
 1086THY    HP227133   1.269   1.667   3.736 -0.5330  2.3085 -0.1610
 1086THY    HP327134   1.280   1.583   3.899 -1.2666  0.3714  1.2760
 1086THY    HP427135   1.140   1.556   3.800 -1.3322  1.4440  0.8059
 1086THY    CP327136   1.086   1.851   3.813 -0.1837 -0.5725  0.2233
 1086THY    HP527137   1.150   1.873   3.727 -1.0424 -0.4780 -0.4005
 1086THY    HP627138   0.988   1.824   3.772 -1.2473  2.6996  0.3325
 1086THY    HP727139   1.064   1.940   3.874 -2.3127 -1.5123  0.9229
 1086THY    CA327140   0.935   1.608   3.952  0.1917 -0.2346  0.0650
 1086THY    HA327141   0.931   1.596   3.844 -0.1316 -0.1164  0.0651
 1086THY    CA427142   0.841   1.555   4.038 -0.2938  0.3390 -0.0124
 1086THY    HA427143   0.757   1.496   4.001  1.4882 -1.4450 -1.4556
 1086THY    CA527144   0.856   1.579   4.177 -0.2267  1.3750  0.1015
 1086THY    CM127145   0.757   1.512   4.282 -0.3761 -0.1325  0.2353
 1086THY    HM127146   0.820   1.452   4.348 -0.5347 -2.8504 -1.9015
 1086THY    HM227147   0.704   1.592   4.336  0.6331  0.9149 -0.2851
 1086THY    HM327148   0.681   1.442   4.245 -0.9650  0.0005  1.1653
 1086THY    CA627149   0.970   1.639   4.221  0.2912  0.9629 -0.6969
 1086THY    HA627150   0.976   1.652   4.328 -1.0330  1.0661 -0.6119
 1087THY      O27151   5.652   8.480   7.885  0.0836 -0.1968 -0.4703
 1087THY     HO27152   5.621   8.571   7.894 -0.5899 -0.4766  0.1266
 1087THY    CA127153   5.782   8.490   7.848  0.6185 -0.1435  0.4027
 1087THY    CA227154   5.852   8.372   7.803 -0.3605 -0.0034 -0.8544
 1087THY    CP127155   5.773   8.247   7.779 -0.3801  0.0410 -0.0046
 1087THY    HP127156   5.673   8.242   7.823 -0.5415 -1.8198 -0.4760
 1087THY    CP227157   5.750   8.223   7.633 -0.8819 -0.0561  0.2022
 1087THY    HP227158   5.688   8.304   7.594 -3.3677 -2.6760 -1.6263
 1087THY    HP327159   5.848   8.220   7.584  0.3424 -1.2374  2.5553
 1087THY    HP427160   5.703   8.127   7.610 -3.3511  0.4663  2.5693
 1087THY    CP327161   5.853   8.124   7.841  0.3730 -0.1883 -0.0613
 1087THY    HP527162   5.869   8.137   7.948 -1.0102  0.7709  0.0519
 1087THY    HP627163   5.790   8.035   7.826 -1.3702  1.3782 -2.8976
 1087THY    HP727164   5.949   8.098   7.794  1.4099  0.6280  1.5430
 1087THY    CA327165   5.990   8.376   7.769 -0.5802 -0.2192 -0.7000
 1087THY    HA327166   6.042   8.288   7.733 -3.0786 -1.3511 -1.8155
 1087THY    CA427167   6.053   8.505   7.779  0.4469  0.1116  0.4769
 1087THY    HA427168   6.159   8.517   7.759  0.0368  0.6684 -1.7110
 1087THY    CA527169   5.977   8.619   7.799 -0.7980  0.0972  1.1704
 1087THY    CM127170   6.049   8.748   7.773  0.4664 -0.1260  0.0045
 1087THY    HM127171   6.158   8.739   7.789  0.6703  0.8185 -0.7636
 1087THY    HM227172   6.032   8.768   7.667  1.2239  1.8986  0.2262
 1087THY    HM327173   6.008   8.825   7.838  0.4977  0.0470 -0.1825
 1087THY    CA627174   5.844   8.609   7.839 -0.3547 -0.1911  0.9562
 1087THY    HA627175   5.788   8.699   7.860  2.4692  2.0893 -0.5414
 1088THY      O27176   4.424   6.702   6.529 -0.6682  0.4071  0.5734
 1088THY     HO27177   4.420   6.606   6.515 -1.2871  0.5435 -0.2016
 1088THY    CA127178   4.513   6.753   6.444  0.2071  0.4936  0.7555
 1088THY    CA227179   4.576   6.870   6.464  0.9919 -0.3370 -0.3988
 1088THY    CP127180   4.551   6.951   6.598 -0.0743 -0.3279 -0.0369
 1088THY    HP127181   4.474   6.895   6.652 -1.3799 -0.0224 -1.5392
 1088THY    CP227182   4.686   6.954   6.682 -0.0578 -0.3819  0.0783
 1088THY    HP227183   4.666   6.967   6.789 -2.6399 -2.7075 -0.0139
 1088THY    HP327184   4.756   6.874   6.657  1.8412  2.0502 -3.3350
 1088THY    HP427185   4.745   7.038   6.643  1.7309 -2.2838 -1.4977
 1088THY    CP327186   4.500   7.092   6.572 -0.4492  0.1301 -0.8088
 1088THY    HP527187   4.572   7.163   6.532  1.0314 -0.5549  0.5146
 1088THY    HP627188   4.423   7.082   6.495  1.1055  0.0444 -2.3860
 1088THY    HP727189   4.459   7.134   6.665 -1.7664  0.3548 -1.4717
 1088THY    CA327190   4.665   6.920   6.369  0.2923  0.5197 -0.0438
 1088THY    HA327191   4.708   7.020   6.370  1.7518 -0.0875  0.9974
 1088THY    CA427192   4.700   6.838   6.259  0.3868  0.2527 -0.0632
 1088THY    HA427193   4.770   6.867   6.182 -0.0252  0.2447 -0.4427
 1088THY    CA527194   4.647   6.711   6.249 -0.4086  0.2394 -0.1314
 1088THY    CM127195   4.686   6.612   6.135 -0.0404 -0.2618 -0.1498
 1088THY    HM127196   4.626   6.619   6.044  1.6576  0.7226 -1.2365
 1088THY    HM227197   4.788   6.625   6.098  0.8720 -1.6203  1.6695
 1088THY    HM327198   4.686   6.507   6.168  0.2324 -0.7576 -1.6659
 1088THY    CA627199   4.541   6.664   6.333  0.0216 -0.6106 -0.5202
 1088THY    HA627200   4.497   6.565   6.327  1.0778 -1.3975  2.8942
 1089THY      O27201   8.303   9.685   3.655 -0.0141 -0.0887 -0.1445
 1089THY     HO27202   8.255   9.602   3.644  1.6378 -1.2805  1.0266
 1089THY    CA127203   8.393   9.648   3.749 -0.1708 -0.2746 -0.2440
 1089THY    CA227204   8.514   9.725   3.785 -0.2027 -0.0520  0.5947
 1089THY    CP127205   8.574   9.840   3.702  0.4728 -0.0436 -0.4595
 1089THY    HP127206   8.498   9.865   3.627 -0.2836  0.1687  0.3617
 1089THY    CP227207   8.584   9.976   3.785  0.2504  0.1734 -0.1656
 1089THY    HP227208   8.674   9.965   3.847  1.2036  0.9608 -1.3605
 1089THY    HP327209   8.614  10.061   3.723  0.2243  0.1865 -0.1608
 1089THY    HP427210   8.489   9.988   3.837 -0.8683 -1.5883 -1.6516
 1089THY    CP327211   8.710   9.812   3.630 -0.2147 -0.0465 -0.3117
 1089THY    HP527212   8.727   9.707   3.601 -2.9486 -1.4851  2.6607
 1089THY    HP627213   8.716   9.877   3.542  0.5073 -0.6527 -0.7345
 1089THY    HP727214   8.792   9.832   3.699 -2.6833 -0.7324  3.0536
 1089THY    CA327215   8.588   9.679   3.897 -0.0491 -0.6571  0.0813
 1089THY    HA327216   8.676   9.729   3.935 -1.2364  2.2329 -0.7545
 1089THY    CA427217   8.548   9.562   3.967 -0.2719  0.7577  0.4710
 1089THY    HA427218   8.602   9.529   4.056  2.7092  2.2870 -0.6263
 1089THY    CA527219   8.440   9.493   3.920 -0.5693 -0.2042  0.2641
 1089THY    CM127220   8.389   9.378   3.995  0.5011 -0.0965  0.1654
 1089THY    HM127221   8.390   9.284   3.937 -0.4145  1.2442 -2.1644
 1089THY    HM227222   8.400   9.375   4.104 -3.4575 -0.8153  0.6926
 1089THY    HM327223   8.285   9.411   3.989  0.6469  0.5484  1.0598
 1089THY    CA627224   8.367   9.534   3.816  0.6518 -0.0828  0.2073
 1089THY    HA627225   8.271   9.487   3.795  0.1640  0.2743  1.5090
 1090THY      O27226   6.662   9.327   6.251  0.0618 -0.4978 -0.7402
 1090THY     HO27227   6.575   9.329   6.208 -0.0465  1.3641 -0.5181
 1090THY    CA127228   6.686   9.192   6.263 -0.0601  0.5597 -0.0075
 1090THY    CA227229   6.810   9.150   6.305 -0.6180 -0.2789  0.3101
 1090THY    CP127230   6.929   9.245   6.319  0.2957 -0.2172 -0.1349
 1090THY    HP127231   6.897   9.344   6.355 -1.3873 -0.8940  0.3428
 1090THY    CP227232   7.033   9.193   6.419  0.0933 -0.4833 -0.0348
 1090THY    HP227233   7.109   9.268   6.444 -1.1146  0.3219  1.3700
 1090THY    HP327234   6.992   9.163   6.516  0.6101  0.7678  0.5868
 1090THY    HP427235   7.088   9.108   6.376  0.7188  0.7427 -1.7871
 1090THY    CP327236   6.988   9.282   6.187  0.2028 -0.5753 -0.4600
 1090THY    HP527237   7.074   9.349   6.199 -0.1745  0.0735 -1.3070
 1090THY    HP627238   7.028   9.190   6.142  0.4532 -1.0469  0.6769
 1090THY    HP727239   6.904   9.321   6.129 -1.5347 -0.0369  2.2104
 1090THY    CA327240   6.823   9.013   6.336  0.0552 -0.1737  0.7287
 1090THY    HA327241   6.914   8.975   6.381 -0.0542 -0.8934  0.3473
 1090THY    CA427242   6.713   8.928   6.319 -0.3653  0.6665  0.1302
 1090THY    HA427243   6.721   8.821   6.336  0.6630  0.6749 -0.2639
 1090THY    CA527244   6.588   8.966   6.266  0.4876 -0.3796 -0.1997
 1090THY    CM127245   6.475   8.864   6.240 -0.6582  0.0175  0.7369
 1090THY    HM127246   6.498   8.762   6.273 -0.4960 -1.0597 -2.3574
 1090THY    HM227247   6.390   8.900   6.300 -1.0306  0.3111  0.0485
 1090THY    HM327248   6.433   8.856   6.139 -0.7707  0.7400  0.7174
 1090THY    CA627249   6.572   9.106   6.246  0.0806 -0.3516  0.2981
 1090THY    HA627250   6.478   9.147   6.212  0.5729  0.2796 -0.3226
 1091THY      O27251   6.314   7.817   5.628 -0.0934  0.1115 -0.0627
 1091THY     HO27252   6.282   7.766   5.704 -1.1574  1.1634  0.2298
 1091THY    CA127253   6.245   7.928   5.611 -0.0601 -0.0210 -0.4476
 1091THY    CA227254   6.250   7.998   5.488  1.2058 -0.2093 -0.9263
 1091THY    CP127255   6.340   7.950   5.375  0.2962  0.0101  0.6077
 1091THY    HP127256   6.424   7.885   5.401  3.2802  1.9082 -3.3754
 1091THY    CP227257   6.264   7.891   5.252 -0.1761 -0.8123 -0.6423
 1091THY    HP227258   6.325   7.900   5.161 -1.2869 -3.9832 -1.8583
 1091THY    HP327259   6.237   7.786   5.267 -2.1953 -0.1668  0.6759
 1091THY    HP427260   6.177   7.957   5.242 -0.0813  0.1840  3.3079
 1091THY    CP327261   6.431   8.075   5.339  0.4245 -0.0719  0.2174
 1091THY    HP527262   6.466   8.043   5.240 -2.0450 -0.4982 -0.5831
 1091THY    HP627263   6.373   8.167   5.333 -0.3569 -0.4678  1.4441
 1091THY    HP727264   6.510   8.092   5.414  0.4996 -3.4400  1.0666
 1091THY    CA327265   6.170   8.113   5.472 -0.5421 -0.1426 -0.1232
 1091THY    HA327266   6.171   8.178   5.385 -2.9843  0.5618  0.2726
 1091THY    CA427267   6.086   8.151   5.578 -0.2289 -0.2444  0.0256
 1091THY    HA427268   6.018   8.235   5.571  2.8333  2.2895 -1.5148
 1091THY    CA527269   6.091   8.086   5.703 -0.4580  0.0023  0.5086
 1091THY    CM127270   5.993   8.133   5.813  0.2604 -0.2294  0.4294
 1091THY    HM127271   6.014   8.087   5.910 -1.4155 -0.8881  0.5255
 1091THY    HM227272   5.994   8.242   5.819  0.1460 -0.2499  0.8465
 1091THY    HM327273   5.893   8.096   5.785  0.3051  1.5025 -2.3530
 1091THY    CA627274   6.177   7.972   5.726  0.1603 -0.4691  0.2777
 1091THY    HA627275   6.190   7.932   5.826  0.4201  0.3895  0.5965
 1092THY      O27276   3.306   4.094   4.122  0.7019 -0.1710 -0.5784
 1092THY     HO27277   3.375   4.028   4.139  2.0393  1.6142  1.3577
 1092THY    CA127278   3.188   4.040   4.090  0.8323  0.2583  0.6030
 1092THY    CA227279   3.090   4.114   4.026 -0.7149 -0.2586  0.7331
 1092THY    CP127280   3.116   4.258   4.002  0.4016  0.2339  0.7209
 1092THY    HP127281   3.188   4.291   4.078 -0.0627  1.8044  0.5249
 1092THY    CP227282   3.169   4.272   3.861 -0.0038  0.0467 -0.3093
 1092THY    HP227283   3.265   4.224   3.842 -0.1908 -0.5831  0.3067
 1092THY    HP327284   3.090   4.249   3.789 -2.0886  0.0201  1.8643
 1092THY    HP427285   3.200   4.376   3.846 -0.5845  0.2739  0.0300
 1092THY    CP327286   2.992   4.340   4.011 -0.4515  0.2552  0.8456
 1092THY    HP527287   2.927   4.313   4.095 -2.1257  2.5306  0.3844
 1092THY    HP627288   3.018   4.445   4.031 -0.3459  0.0217  1.9986
 1092THY    HP727289   2.933   4.323   3.920  0.0169 -1.6794  0.8568
 1092THY    CA327290   2.979   4.044   3.984  0.8088  0.0198  0.1699
 1092THY    HA327291   2.905   4.095   3.922  0.1335 -0.4182  0.6088
 1092THY    CA427292   2.967   3.908   4.002 -0.1297  0.1141 -0.3116
 1092THY    HA427293   2.879   3.851   3.972 -0.6322  0.7248 -0.0303
 1092THY    CA527294   3.060   3.836   4.080  0.2063 -0.4750  0.0171
 1092THY    CM127295   3.041   3.691   4.116 -0.2559  0.6862 -0.0038
 1092THY    HM127296   3.077   3.659   4.214  0.0449 -0.0736 -0.3551
 1092THY    HM227297   2.936   3.659   4.107  0.3474 -1.8589  1.1047
 1092THY    HM327298   3.093   3.630   4.041 -1.8893  0.6953 -1.2066
 1092THY    CA627299   3.173   3.904   4.119  0.3511  0.4030  0.2719
 1092THY    HA627300   3.242   3.841   4.174 -0.7752 -0.2894  0.9252
 1093THY      O27301   4.397   9.812   3.670 -0.7789  0.1463 -0.9328
 1093THY     HO27302   4.446   9.790   3.751 -0.9663  0.4111 -0.7448
 1093THY    CA127303   4.294   9.886   3.716  0.0852 -0.4260  0.0761
 1093THY    CA227304   4.177   9.892   3.641  0.2936  0.2164  0.3332
 1093THY    CP127305   4.166   9.823   3.509  0.1938  0.5210  0.4352
 1093THY    HP127306   4.264   9.816   3.461 -0.2210 -2.2221 -0.1542
 1093THY    CP227307   4.088   9.684   3.523 -0.8136  0.0131 -0.0547
 1093THY    HP227308   4.137   9.644   3.613 -0.8696  0.0298 -0.0167
 1093THY    HP327309   3.983   9.703   3.548 -0.2653  4.9930 -0.5603
 1093THY    HP427310   4.121   9.611   3.448  0.4302  0.4704  0.0235
 1093THY    CP327311   4.087   9.911   3.407 -0.0924  0.3064  0.7365
 1093THY    HP527312   4.153   9.996   3.385  1.0598 -0.1301  2.3473
 1093THY    HP627313   4.076   9.865   3.308 -0.8448  0.4067  0.7744
 1093THY    HP727314   3.986   9.940   3.437  0.1996  0.6462  1.3998
 1093THY    CA327315   4.065   9.965   3.694  0.2091  0.3022  0.5431
 1093THY    HA327316   3.966   9.962   3.650  0.9338 -0.9845 -1.1366
 1093THY    CA427317   4.073  10.030   3.820  0.2339 -0.0820 -0.2417
 1093THY    HA427318   3.987  10.075   3.869  0.9539 -0.0580  1.0398
 1093THY    CA527319   4.194  10.028   3.882 -0.1440 -0.5337  0.6672
 1093THY    CM127320   4.218  10.114   3.999 -0.3406  0.9952  0.0238
 1093THY    HM127321   4.131  10.179   4.014 -0.8065  0.5158 -0.5639
 1093THY    HM227322   4.250  10.053   4.084  0.8613 -1.7573 -2.2282
 1093THY    HM327323   4.304  10.180   3.983  0.0439  0.2226 -1.2110
 1093THY    CA627324   4.308   9.952   3.835  0.2025 -0.6528 -0.2960
 1093THY    HA627325   4.404   9.958   3.884 -0.3188  0.1576  0.6622
 1094THY      O27326   0.489   6.760   3.307 -0.1562  0.2138 -0.2566
 1094THY     HO27327   0.549   6.740   3.233  2.1747 -0.7155  1.7646
 1094THY    CA127328   0.379   6.681   3.302  0.5137 -0.5082  0.0724
 1094THY    CA227329   0.335   6.622   3.415  0.1386  0.2082 -0.1975
 1094THY    CP127330   0.397   6.647   3.554 -0.1814 -0.1895 -0.1760
 1094THY    HP127331   0.467   6.731   3.548 -2.3185  1.7758  0.7844
 1094THY    CP227332   0.299   6.698   3.653 -0.3882  0.4019 -0.1893
 1094THY    HP227333   0.349   6.713   3.749  2.6533 -0.7799 -1.4521
 1094THY    HP327334   0.234   6.778   3.616 -1.6413 -0.0103  1.0503
 1094THY    HP427335   0.227   6.616   3.664 -0.0590 -0.5885 -3.9488
 1094THY    CP327336   0.451   6.513   3.612  0.0569  0.1849  0.1413
 1094THY    HP527337   0.478   6.451   3.525  0.2071 -0.1421  0.4178
 1094THY    HP627338   0.535   6.550   3.671 -1.7315  1.5734  2.0002
 1094THY    HP727339   0.378   6.464   3.679  0.0126  0.6799  0.4582
 1094THY    CA327340   0.219   6.534   3.408 -0.5156  0.2644 -0.5064
 1094THY    HA327341   0.173   6.480   3.490 -0.3646 -0.3505 -0.8190
 1094THY    CA427342   0.167   6.503   3.281 -0.0222 -0.5451  0.3678
 1094THY    HA427343   0.080   6.439   3.270  0.3611 -0.7276 -2.2371
 1094THY    CA527344   0.214   6.570   3.165 -0.3926 -0.3399 -0.3237
 1094THY    CM127345   0.147   6.539   3.038  0.3433 -0.3033  0.7717
 1094THY    HM127346   0.054   6.483   3.049 -0.0169 -0.0212 -0.6544
 1094THY    HM227347   0.136   6.628   2.974  0.7836 -0.8048 -0.0124
 1094THY    HM327348   0.216   6.469   2.990 -0.0234 -0.8899  1.0888
 1094THY    CA627349   0.319   6.662   3.176 -0.1011 -0.5899  0.0629
 1094THY    HA627350   0.350   6.728   3.096  0.7583 -0.0218  0.8338
 1095THY      O27351   9.819   8.870   2.586  0.2229  0.0320 -0.0884
 1095THY     HO27352   9.795   8.962   2.568  0.2707 -0.0716 -0.7167
 1095THY    CA127353   9.713   8.799   2.534  0.3635  0.2765  0.6497
 1095THY    CA227354   9.720   8.660   2.503  0.3533 -1.3970 -0.1334
 1095THY    CP127355   9.848   8.580   2.519 -0.3749 -0.1032 -0.1306
 1095THY    HP127356   9.923   8.639   2.572 -0.8402  1.3290 -0.9931
 1095THY    CP227357   9.828   8.454   2.598 -0.4752 -0.4360  0.1697
 1095THY    HP227358   9.790   8.373   2.536  1.3373 -0.1067 -1.4709
 1095THY    HP327359   9.922   8.422   2.643  0.0225 -0.3954 -0.8214
 1095THY    HP427360   9.751   8.468   2.676 -0.4702 -0.7420  0.2285
 1095THY    CP327361   9.919   8.552   2.386  0.1210  0.0559  0.7005
 1095THY    HP527362   9.866   8.470   2.337 -0.2335  0.4669  0.3850
 1095THY    HP627363   9.917   8.643   2.325 -1.9127 -0.0366  0.5559
 1095THY    HP727364  10.024   8.530   2.409  0.3990  0.5083 -0.1035
 1095THY    CA327365   9.609   8.591   2.445  0.4140 -0.4947 -0.3869
 1095THY    HA327366   9.619   8.486   2.423  4.5242 -0.3868  0.1896
 1095THY    CA427367   9.488   8.663   2.423 -0.5172  0.8623  0.2832
 1095THY    HA427368   9.400   8.609   2.389  0.1245  0.3724 -0.6382
 1095THY    CA527369   9.486   8.798   2.447  0.0819  0.4959  0.3003
 1095THY    CM127370   9.371   8.867   2.392 -0.4117  0.2406  0.0829
 1095THY    HM127371   9.280   8.826   2.437 -0.1948  1.9710  2.2695
 1095THY    HM227372   9.378   8.975   2.406  2.7960 -0.1048  2.1090
 1095THY    HM327373   9.366   8.854   2.283 -0.1107  3.4959 -0.4070
 1095THY    CA627374   9.601   8.870   2.495  0.2274  0.1639 -0.3142
 1095THY    HA627375   9.588   8.977   2.511 -2.7467 -0.2629  0.6727
 1096THY      O27376   7.973   9.624   5.647  0.1547 -0.4029 -0.1294
 1096THY     HO27377   7.917   9.580   5.582 -0.0743 -1.2499  0.6190
 1096THY    CA127378   7.910   9.734   5.687 -0.7154  0.0721  0.1338
 1096THY    CA227379   7.976   9.836   5.765 -0.5111  0.6682  0.1995
 1096THY    CP127380   8.115   9.814   5.811 -0.0829 -0.0772 -0.3083
 1096THY    HP127381   8.158   9.721   5.772 -1.3515 -0.3938 -0.9819
 1096THY    CP227382   8.219   9.916   5.747 -0.4633 -0.3096 -0.1164
 1096THY    HP227383   8.196   9.930   5.641 -0.0848  0.6974 -0.0775
 1096THY    HP327384   8.219  10.016   5.793  2.6592  0.4002 -1.3932
 1096THY    HP427385   8.319   9.873   5.737  0.1794  1.4438 -1.9398
 1096THY    CP327386   8.129   9.813   5.965 -0.5225 -0.0259 -0.0132
 1096THY    HP527387   8.106   9.914   6.000 -2.0730  0.5077 -2.3262
 1096THY    HP627388   8.054   9.745   6.007 -1.2945 -0.7684 -2.4241
 1096THY    HP727389   8.233   9.792   5.992 -0.9161 -1.6875  0.3029
 1096THY    CA327390   7.893   9.943   5.812  0.6130  0.1668 -0.0976
 1096THY    HA327391   7.929  10.024   5.876 -1.9905  2.4940 -1.3638
 1096THY    CA427392   7.760   9.952   5.765  0.1346 -0.1158  0.2358
 1096THY    HA427393   7.702  10.038   5.797 -1.7835 -0.0922 -2.8655
 1096THY    CA527394   7.708   9.861   5.671 -0.5749  0.2765  0.0076
 1096THY    CM127395   7.567   9.881   5.627 -0.7300 -0.0632  0.5958
 1096THY    HM127396   7.534   9.985   5.632  0.7548  0.5508 -1.2506
 1096THY    HM227397   7.554   9.852   5.522 -3.1930 -1.5834  1.2534
 1096THY    HM327398   7.494   9.823   5.685  0.4340 -0.0515  2.1420
 1096THY    CA627399   7.781   9.744   5.643 -0.2895  0.3364  1.0284
 1096THY    HA627400   7.736   9.661   5.590  1.1538 -0.5479  1.1245
 1097THY      O27401   0.375   1.493   7.736 -0.2340  0.2185 -0.7800
 1097THY     HO27402   0.462   1.450   7.743  0.1510  1.1493  0.3185
 1097THY    CA127403   0.378   1.565   7.620 -0.3079 -0.3626 -0.5484
 1097THY    CA227404   0.367   1.703   7.621  0.0241 -1.1692  0.0982
 1097THY    CP127405   0.332   1.783   7.754 -0.1816 -0.8471  0.2132
 1097THY    HP127406   0.367   1.713   7.831 -2.2218 -1.9188  0.2291
 1097THY    CP227407   0.401   1.924   7.758 -0.5650 -0.2682  0.3368
 1097THY    HP227408   0.388   1.978   7.664 -1.8379 -0.8948  0.1366
 1097THY    HP327409   0.349   1.985   7.832  2.5361  1.5962  1.1919
 1097THY    HP427410   0.508   1.913   7.783 -0.5321 -1.1298 -0.1324
 1097THY    CP327411   0.180   1.793   7.776  0.2288  0.2323  0.0842
 1097THY    HP527412   0.137   1.844   7.688  2.0222 -2.5157 -2.6133
 1097THY    HP627413   0.137   1.693   7.783  0.6427  0.1453  1.8593
 1097THY    HP727414   0.157   1.847   7.868  0.2766  1.4245 -0.5802
 1097THY    CA327415   0.365   1.773   7.495 -0.6567 -0.1999 -0.1172
 1097THY    HA327416   0.348   1.880   7.492  2.7902  0.4465 -1.4439
 1097THY    CA427417   0.404   1.706   7.381 -0.5672  0.1651  0.2580
 1097THY    HA427418   0.407   1.762   7.288 -0.5129 -1.6744 -0.8846
 1097THY    CA527419   0.431   1.572   7.382  0.3897 -0.8209 -0.0081
 1097THY    CM127420   0.466   1.500   7.259 -0.4645 -0.4941 -0.0146
 1097THY    HM127421   0.535   1.418   7.281 -0.1842  0.2067  1.9499
 1097THY    HM227422   0.367   1.463   7.230 -1.0473  1.3731 -0.4924
 1097THY    HM327423   0.509   1.563   7.181  0.2423  1.6404  1.9808
 1097THY    CA627424   0.416   1.500   7.502 -0.2297 -0.4119 -0.7002
 1097THY    HA627425   0.434   1.393   7.506  3.3694  0.1132 -0.0922
 1098THY      O27426   8.345   7.290   4.620  0.5972 -0.4132  0.3151
 1098THY     HO27427   8.319   7.342   4.542 -1.3397 -1.2476  0.3613
 1098THY    CA127428   8.294   7.362   4.727 -0.0394  0.1472 -0.1592
 1098THY    CA227429   8.353   7.363   4.860  0.1259 -0.2281 -0.7282
 1098THY    CP127430   8.476   7.281   4.894  0.1345 -0.6261  1.1385
 1098THY    HP127431   8.540   7.281   4.805 -2.5819  0.2902 -0.9173
 1098THY    CP227432   8.566   7.356   4.986 -0.4593 -0.1622  0.0470
 1098THY    HP227433   8.663   7.305   4.977  1.1023  2.4706  0.5674
 1098THY    HP327434   8.580   7.457   4.946  0.8499 -0.9529 -1.6082
 1098THY    HP427435   8.544   7.361   5.093 -3.3467 -1.4855 -0.3964
 1098THY    CP327436   8.441   7.142   4.955  0.3595  0.0794  0.6207
 1098THY    HP527437   8.402   7.153   5.057 -0.2071 -0.8303  0.5113
 1098THY    HP627438   8.379   7.090   4.882  1.0636  0.6899 -0.4309
 1098THY    HP727439   8.528   7.074   4.953  0.8289  0.6832  0.2377
 1098THY    CA327440   8.284   7.428   4.972 -0.5091 -0.1499  0.6584
 1098THY    HA327441   8.326   7.429   5.072  0.3273 -1.5861  0.3475
 1098THY    CA427442   8.185   7.519   4.936 -0.0572  0.2662 -0.2739
 1098THY    HA427443   8.152   7.595   5.006 -0.3091 -0.2408  0.1626
 1098THY    CA527444   8.138   7.525   4.809  0.7249  0.2085  0.0926
 1098THY    CM127445   8.026   7.629   4.776  0.1949 -0.3594 -0.3776
 1098THY    HM127446   7.946   7.634   4.851 -0.3402  2.9331 -0.9872
 1098THY    HM227447   8.066   7.731   4.776  0.3780 -0.4303  0.1360
 1098THY    HM327448   7.966   7.609   4.686 -0.0596 -2.4923  0.2119
 1098THY    CA627449   8.181   7.442   4.706 -0.2567  0.6165 -0.5242
 1098THY    HA627450   8.125   7.437   4.613  1.3443 -1.0730 -1.4691
 1099THY      O27451   9.155   6.097   3.733  0.1328  0.5146  0.5716
 1099THY     HO27452   9.237   6.142   3.705 -0.4246  2.3810  1.8091
 1099THY    CA127453   9.175   6.007   3.836 -0.1758  0.5681 -0.1935
 1099THY    CA227454   9.066   5.938   3.890 -0.6242  0.4383 -0.2097
 1099THY    CP127455   8.928   5.946   3.828  0.0763  0.2269  0.1094
 1099THY    HP127456   8.910   6.024   3.753 -1.3226 -2.0953 -2.1129
 1099THY    CP227457   8.902   5.808   3.753  0.2513 -0.4222 -0.1328
 1099THY    HP227458   8.802   5.806   3.709 -0.0577  0.8654  0.4404
 1099THY    HP327459   8.968   5.802   3.666 -1.6020  1.3400 -1.7666
 1099THY    HP427460   8.918   5.734   3.833  1.0413  0.8987  0.9749
 1099THY    CP327461   8.825   5.969   3.933  0.6943 -0.1114  0.2028
 1099THY    HP527462   8.725   5.969   3.888  1.0042 -0.8437 -0.5082
 1099THY    HP627463   8.819   5.900   4.018 -1.7398  0.5086  0.6290
 1099THY    HP727464   8.853   6.061   3.985  0.2623 -0.0052  0.2561
 1099THY    CA327465   9.093   5.856   4.003 -0.8585  0.5310 -0.1008
 1099THY    HA327466   9.010   5.803   4.048 -1.4120  1.0103 -0.5525
 1099THY    CA427467   9.224   5.855   4.067 -0.0864 -0.2049  0.1402
 1099THY    HA427468   9.251   5.790   4.150 -0.2987 -0.5730 -0.0728
 1099THY    CA527469   9.322   5.937   4.013  0.4348  0.7647 -0.3331
 1099THY    CM127470   9.458   5.939   4.086  0.7653 -0.8127  0.1748
 1099THY    HM127471   9.509   6.035   4.069 -0.6756 -0.3466 -1.8144
 1099THY    HM227472   9.438   5.926   4.193  0.9934 -0.0364  0.3191
 1099THY    HM327473   9.524   5.854   4.066  1.4173 -0.2400 -0.1477
 1099THY    CA627474   9.302   6.005   3.891  0.5214  0.5656 -0.3062
 1099THY    HA627475   9.375   6.079   3.859 -1.1882  1.2479 -2.9775
 1100THY      O27476   4.222   3.923   4.678  0.2488  0.0034 -0.0341
 1100THY     HO27477   4.268   3.918   4.763  0.5433  3.8132  0.2002
 1100THY    CA127478   4.190   3.795   4.630 -1.0078  0.6246 -0.1792
 1100THY    CA227479   4.110   3.769   4.521 -0.0415 -0.2297 -0.1201
 1100THY    CP127480   4.063   3.875   4.425 -0.2768  0.2527 -0.2165
 1100THY    HP127481   4.087   3.976   4.461 -0.4884 -0.4327  2.0022
 1100THY    CP227482   4.117   3.848   4.277 -0.1514 -0.0845 -0.7635
 1100THY    HP227483   4.042   3.783   4.231 -0.5178 -2.0258  2.2743
 1100THY    HP327484   4.134   3.939   4.218 -1.1795 -1.5309 -3.4202
 1100THY    HP427485   4.209   3.788   4.278  0.6031  1.0236  0.5584
 1100THY    CP327486   3.912   3.883   4.427 -0.0054 -0.7120  0.1257
 1100THY    HP527487   3.879   3.887   4.531 -0.0674 -0.1383  0.0897
 1100THY    HP627488   3.870   3.965   4.368  1.7044 -0.1532 -0.3588
 1100THY    HP727489   3.860   3.797   4.384  0.3591 -0.6137 -0.5154
 1100THY    CA327490   4.082   3.637   4.491 -0.5476  0.6656  0.0169
 1100THY    HA327491   4.036   3.610   4.397  1.2990  0.6074 -0.9050
 1100THY    CA427492   4.144   3.531   4.563 -0.0719 -0.3842  0.7869
 1100THY    HA427493   4.136   3.429   4.527 -1.2149  0.1845 -0.6718
 1100THY    CA527494   4.214   3.558   4.682  0.0291  0.3207  0.2502
 1100THY    CM127495   4.266   3.450   4.770  0.2689 -0.5845  0.5818
 1100THY    HM127496   4.185   3.376   4.778  1.0362 -1.4319  0.7150
 1100THY    HM227497   4.357   3.409   4.725  0.0158  0.6937 -1.1769
 1100THY    HM327498   4.276   3.486   4.873  0.7862  1.8460 -0.2584
 1100THY    CA627499   4.238   3.691   4.709 -0.3089  0.1862 -0.3042
 1100THY    HA627500   4.301   3.710   4.796  0.2498  0.5739 -0.7809
 1101THY      O27501   4.092   6.554   7.530 -0.0153  0.0345  0.0409
 1101THY     HO27502   4.129   6.510   7.608 -0.1304 -0.9022 -0.4245
 1101THY    CA127503   3.977   6.497   7.487  0.7384  0.0161 -0.6634
 1101THY    CA227504   3.901   6.559   7.380 -0.3592  0.1694 -1.0254
 1101THY    CP127505   3.956   6.683   7.310 -0.6330  0.2653  0.9273
 1101THY    HP127506   3.992   6.752   7.388  1.2597  0.1796  0.1765
 1101THY    CP227507   4.064   6.640   7.209  0.2244  0.0346  0.0051
 1101THY    HP227508   4.147   6.590   7.261 -0.3757 -0.2204  0.7427
 1101THY    HP327509   4.022   6.564   7.143 -2.0041 -0.4266  1.8270
 1101THY    HP427510   4.097   6.715   7.136 -0.3427  0.8102  0.5233
 1101THY    CP327511   3.849   6.750   7.229 -0.0533 -0.4395  0.0826
 1101THY    HP527512   3.775   6.789   7.299  0.9378 -1.2795  1.6556
 1101THY    HP627513   3.890   6.836   7.174 -0.5928 -0.9000 -1.0803
 1101THY    HP727514   3.793   6.689   7.156 -1.2136  0.5725  0.0985
 1101THY    CA327515   3.770   6.505   7.370 -0.0257  0.5400 -0.2825
 1101THY    HA327516   3.701   6.548   7.298 -2.0928  0.8464  1.7540
 1101THY    CA427517   3.725   6.401   7.459 -0.0096 -0.9604  0.0984
 1101THY    HA427518   3.620   6.375   7.451 -0.8321  2.0581 -0.1946
 1101THY    CA527519   3.816   6.334   7.543 -0.1918 -0.3263 -0.2219
 1101THY    CM127520   3.783   6.210   7.624  0.4651 -0.1686  0.4718
 1101THY    HM127521   3.797   6.229   7.731 -1.3100  0.0092  0.6963
 1101THY    HM227522   3.684   6.174   7.595  0.9221 -1.9160  0.9344
 1101THY    HM327523   3.854   6.130   7.598  1.2325  0.4429  0.6578
 1101THY    CA627524   3.943   6.384   7.550  0.4222  0.3308 -0.3054
 1101THY    HA627525   4.006   6.328   7.618 -0.9922 -2.7453 -1.3051
 1102THY      O27526   6.038   1.414   5.688 -0.0731 -0.0704  0.1024
 1102THY     HO27527   5.992   1.331   5.709  2.1533 -0.9715  1.7899
 1102THY    CA127528   6.155   1.374   5.631  0.1992  0.9892  0.5679
 1102THY    CA227529   6.272   1.452   5.623 -0.6559 -0.4464 -0.1754
 1102THY    CP127530   6.262   1.597   5.676 -0.1506 -0.1237  0.5462
 1102THY    HP127531   6.155   1.620   5.691  0.1626 -0.0234  3.1529
 1102THY    CP227532   6.350   1.620   5.796  0.3697 -0.4529 -0.2158
 1102THY    HP227533   6.316   1.563   5.883 -1.2076  2.7083  1.3971
 1102THY    HP327534   6.452   1.585   5.780  0.4109 -1.0578  1.2238
 1102THY    HP427535   6.340   1.726   5.822  0.1360 -0.1383 -1.5060
 1102THY    CP327536   6.318   1.705   5.567  0.0106  0.0215  0.0844
 1102THY    HP527537   6.275   1.705   5.466  3.4892 -0.2111 -1.5734
 1102THY    HP627538   6.298   1.807   5.601 -0.5879  0.1919 -0.7601
 1102THY    HP727539   6.427   1.706   5.553  0.0450  1.4340  0.3123
 1102THY    CA327540   6.392   1.392   5.583 -0.1912  0.4916 -0.1055
 1102THY    HA327541   6.481   1.450   5.559 -0.5514  0.0595 -2.8958
 1102THY    CA427542   6.390   1.249   5.567 -0.7779  0.9595  0.6161
 1102THY    HA427543   6.487   1.203   5.552 -0.7853  0.3180  2.3183
 1102THY    CA527544   6.272   1.173   5.570 -0.4641  0.3110 -0.1780
 1102THY    CM127545   6.274   1.023   5.535  0.7125 -0.9872 -0.8518
 1102THY    HM127546   6.172   0.996   5.503 -0.0903  0.7617  0.1474
 1102THY    HM227547   6.342   1.004   5.451  1.6546  0.4179 -0.4350
 1102THY    HM327548   6.307   0.959   5.618 -1.5222 -3.5350 -1.7578
 1102THY    CA627549   6.157   1.239   5.594  0.0204 -0.3416  0.4656
 1102THY    HA627550   6.066   1.185   5.572 -1.1830  2.0550 -0.8798
 1103THY      O27551   6.092   9.450   3.686  0.7096  0.4671 -0.0180
 1103THY     HO27552   6.096   9.533   3.738 -2.3423  0.5202  0.2818
 1103THY    CA127553   6.219   9.426   3.649 -0.6920  0.5819 -0.6348
 1103THY    CA227554   6.272   9.295   3.622  0.5780  0.5025  0.5109
 1103THY    CP127555   6.176   9.171   3.648 -0.6524  0.3595  0.1610
 1103THY    HP127556   6.078   9.204   3.683 -1.1450  0.9005 -1.6215
 1103THY    CP227557   6.133   9.094   3.517  0.4363  0.2223  1.0507
 1103THY    HP227558   6.077   9.003   3.537 -3.3050  2.8890  4.0433
 1103THY    HP327559   6.078   9.155   3.444  0.8537 -1.0077 -0.3482
 1103THY    HP427560   6.221   9.068   3.455 -1.4455  0.9990 -2.2056
 1103THY    CP327561   6.248   9.071   3.738  0.3188  0.2883 -0.4543
 1103THY    HP527562   6.308   9.128   3.810  0.9562 -3.6626  2.4710
 1103THY    HP627563   6.171   9.006   3.782  0.4032  1.1092  0.9609
 1103THY    HP727564   6.319   9.016   3.675  1.3783  0.6139  0.4429
 1103THY    CA327565   6.410   9.280   3.573  0.6441 -0.0545  0.3262
 1103THY    HA327566   6.446   9.183   3.540 -0.5776 -0.5048  0.2686
 1103THY    CA427567   6.490   9.395   3.561 -0.0404  0.7240  0.0205
 1103THY    HA427568   6.591   9.373   3.526  1.1508  1.7658  2.5544
 1103THY    CA527569   6.434   9.520   3.601  0.0296  0.0656  0.3709
 1103THY    CM127570   6.515   9.643   3.601  0.3290  0.5206  0.5889
 1103THY    HM127571   6.621   9.618   3.615 -0.3744 -2.1638  1.8400
 1103THY    HM227572   6.500   9.692   3.504  1.6062  0.4062  0.3180
 1103THY    HM327573   6.479   9.715   3.675 -0.0506 -0.8623  1.8060
 1103THY    CA627574   6.303   9.536   3.630  0.4955  0.2329 -0.5691
 1103THY    HA627575   6.267   9.638   3.646 -1.0430 -0.1735 -1.1770
 1104THY      O27576   8.655   1.073   9.713  0.6584 -0.6194 -0.6785
 1104THY     HO27577   8.574   1.031   9.746  1.6552 -1.1740  1.1825
 1104THY    CA127578   8.693   1.162   9.808 -0.0626 -0.3599 -0.0843
 1104THY    CA227579   8.817   1.172   9.869  0.2185 -0.2267 -0.0452
 1104THY    CP127580   8.919   1.068   9.828 -0.3897  0.4614 -0.1350
 1104THY    HP127581   8.872   0.979   9.784  1.3097 -0.4829 -0.1541
 1104THY    CP227582   9.013   1.121   9.713 -0.2802  0.0009 -0.6704
 1104THY    HP227583   9.059   1.218   9.736  0.6104  0.2292 -3.1377
 1104THY    HP327584   9.095   1.049   9.698 -0.4035  0.2668 -2.9490
 1104THY    HP427585   8.952   1.127   9.623 -2.0746  2.3416  0.5704
 1104THY    CP327586   9.011   1.014   9.940 -0.0262  0.0642 -0.3669
 1104THY    HP527587   8.963   1.006  10.038  2.2290  1.6677  0.9577
 1104THY    HP627588   9.044   0.911   9.923  1.8124  0.2150  1.8010
 1104THY    HP727589   9.102   1.073   9.952 -0.4728  0.4156  1.8244
 1104THY    CA327590   8.843   1.281   9.962 -0.4060  0.1682  0.1699
 1104THY    HA327591   8.938   1.284  10.014 -0.3392  0.3698  0.0384
 1104THY    CA427592   8.747   1.379   9.982  0.1867  0.0553 -0.8798
 1104THY    HA427593   8.770   1.456  10.054 -2.2759  0.4024 -0.3594
 1104THY    CA527594   8.623   1.370   9.918  0.3615  0.5403  0.5056
 1104THY    CM127595   8.518   1.477   9.928 -0.2119 -0.1624 -0.6227
 1104THY    HM127596   8.497   1.540   9.841 -3.5903  0.6972  0.6507
 1104THY    HM227597   8.426   1.426   9.960 -0.1606 -0.0081 -0.2292
 1104THY    HM327598   8.545   1.545  10.009  1.3217 -2.5216  1.0008
 1104THY    CA627599   8.602   1.261   9.823  0.0512 -0.7862  0.1328
 1104THY    HA627600   8.519   1.250   9.754  0.6808  1.3018 -1.0606
 1105THY      O27601   1.980   5.070   8.082  0.1425 -0.7730 -0.1603
 1105THY     HO27602   1.941   5.014   8.152 -0.8096 -0.3387 -0.3255
 1105THY    CA127603   2.041   5.172   8.159  0.5895 -0.3360 -0.1142
 1105THY    CA227604   2.146   5.253   8.099 -0.4365 -0.4092  0.3219
 1105THY    CP127605   2.170   5.264   7.949 -0.3524 -0.4192  0.8201
 1105THY    HP127606   2.109   5.189   7.897 -0.7877  0.9908 -0.8059
 1105THY    CP227607   2.113   5.397   7.900  0.7493 -0.3568  0.7577
 1105THY    HP227608   2.163   5.491   7.925 -3.0573  2.9720 -2.6556
 1105THY    HP327609   2.102   5.383   7.792 -1.9054  0.7416  0.8178
 1105THY    HP427610   2.007   5.391   7.927  0.0067 -1.3426 -2.0235
 1105THY    CP327611   2.314   5.254   7.905  0.5017  0.1017  0.3819
 1105THY    HP527612   2.314   5.275   7.797  3.0053 -0.1925  0.2626
 1105THY    HP627613   2.375   5.329   7.958 -0.8428  0.5533  1.3273
 1105THY    HP727614   2.357   5.154   7.914  1.8857  0.6582  0.2279
 1105THY    CA327615   2.222   5.333   8.189  0.1558  0.1913 -0.2913
 1105THY    HA327616   2.295   5.405   8.153  0.6082  0.4740  1.0972
 1105THY    CA427617   2.195   5.317   8.326  0.5888 -0.3070  0.5595
 1105THY    HA427618   2.255   5.375   8.395  0.5698 -0.8544  1.0393
 1105THY    CA527619   2.096   5.230   8.378 -0.2291 -0.9564 -0.2943
 1105THY    CM127620   2.090   5.215   8.525 -0.0365 -0.3133 -0.8045
 1105THY    HM127621   2.027   5.289   8.575 -0.0176 -0.2118 -0.9290
 1105THY    HM227622   2.041   5.122   8.556  2.3773 -1.3618  0.1170
 1105THY    HM327623   2.183   5.226   8.582 -0.8991 -0.9920  0.7944
 1105THY    CA627624   2.005   5.163   8.297  0.6341  0.1981 -0.2293
 1105THY    HA627625   1.933   5.094   8.341  0.1312  0.8347 -0.0289
 1106THY      O27626   8.122   7.661   6.210  0.7512  0.5006 -0.7225
 1106THY     HO27627   8.178   7.712   6.270 -3.5394  0.6754  3.8472
 1106THY    CA127628   8.000   7.728   6.207 -0.3555 -0.1600 -0.0899
 1106THY    CA227629   7.885   7.678   6.146 -0.4088 -0.1393  0.2043
 1106THY    CP127630   7.892   7.549   6.074 -0.4404 -0.0616  0.0738
 1106THY    HP127631   7.995   7.533   6.042  0.0835  1.6548  0.7754
 1106THY    CP227632   7.864   7.430   6.166  0.3395 -0.0842  0.5435
 1106THY    HP227633   7.755   7.415   6.170  0.4231 -0.6096  0.8566
 1106THY    HP327634   7.915   7.345   6.118  1.0311  0.4203  0.3675
 1106THY    HP427635   7.910   7.428   6.265  0.8238 -0.9944  0.3157
 1106THY    CP327636   7.802   7.532   5.951 -0.2785  0.3699 -0.3471
 1106THY    HP527637   7.816   7.434   5.905 -0.4972  0.2237 -0.1006
 1106THY    HP627638   7.698   7.544   5.983 -0.0188  1.7671  0.0540
 1106THY    HP727639   7.822   7.611   5.877  1.2895  1.4740  1.1807
 1106THY    CA327640   7.774   7.756   6.144  0.3527 -0.3993  0.0147
 1106THY    HA327641   7.680   7.729   6.097  0.1752 -0.3125  0.3126
 1106THY    CA427642   7.775   7.883   6.210  0.3970 -1.0930 -0.7864
 1106THY    HA427643   7.685   7.942   6.217  0.8255 -0.6429  3.0821
 1106THY    CA527644   7.887   7.929   6.270  0.1257 -0.5599 -0.8191
 1106THY    CM127645   7.887   8.059   6.341  0.0415 -0.2118 -0.5420
 1106THY    HM127646   7.790   8.109   6.349  0.5240  0.7238 -0.3863
 1106THY    HM227647   7.924   8.060   6.444 -0.3241 -0.3988 -0.4102
 1106THY    HM327648   7.952   8.130   6.288 -0.0340  1.4796  1.4816
 1106THY    CA627649   8.000   7.848   6.268 -0.5280 -0.7914  0.0472
 1106THY    HA627650   8.086   7.881   6.326  0.7752 -0.5381 -1.9284
 1107THY      O27651   8.599   9.322   8.955  0.0019  0.1904  0.2616
 1107THY     HO27652   8.617   9.371   9.037 -0.8384  0.0196  0.5605
 1107THY    CA127653   8.714   9.262   8.927 -0.1247 -0.4463  0.1939
 1107THY    CA227654   8.712   9.129   8.883 -0.5080  0.6307  0.2439
 1107THY    CP127655   8.579   9.051   8.872 -0.1640 -0.9217  0.0736
 1107THY    HP127656   8.493   9.115   8.889 -0.5815 -1.9022  1.9165
 1107THY    CP227657   8.561   9.008   8.727 -0.2572  0.0462 -0.4169
 1107THY    HP227658   8.555   9.101   8.669  3.0230  0.6387  0.0209
 1107THY    HP327659   8.653   8.965   8.687  0.5460  1.3029  0.0203
 1107THY    HP427660   8.480   8.935   8.716 -1.1979  0.6412  1.9676
 1107THY    CP327661   8.575   8.935   8.985 -0.0689  0.3098  0.3616
 1107THY    HP527662   8.473   8.897   8.984  0.8326 -2.3390  1.3264
 1107THY    HP627663   8.659   8.865   8.971 -0.5948 -0.2753  0.1076
 1107THY    HP727664   8.589   8.977   9.086  3.5030 -2.3776  1.1807
 1107THY    CA327665   8.841   9.064   8.860  0.0927  0.3060 -0.1625
 1107THY    HA327666   8.847   8.956   8.848 -0.8129  0.2250  0.0564
 1107THY    CA427667   8.958   9.140   8.860  0.8134 -0.5974  0.0219
 1107THY    HA427668   9.055   9.094   8.844 -0.4829 -3.8646  0.8621
 1107THY    CA527669   8.951   9.275   8.900 -0.2423  0.1752  1.1718
 1107THY    CM127670   9.081   9.346   8.907  0.4529  0.2093  0.7480
 1107THY    HM127671   9.147   9.337   8.820 -0.3134  2.4239 -0.1351
 1107THY    HM227672   9.060   9.451   8.928 -3.0468 -0.1623 -0.1913
 1107THY    HM327673   9.145   9.308   8.987  1.4944  3.0933  1.3798
 1107THY    CA627674   8.833   9.333   8.936 -0.3906  0.7385  0.2251
 1107THY    HA627675   8.842   9.438   8.961  0.0682  0.6870  0.2864
 1108THY      O27676   7.539   4.659   4.033 -0.6824 -0.4378 -0.6437
 1108THY     HO27677   7.567   4.587   3.974  1.5717  0.7215 -1.0812
 1108THY    CA127678   7.628   4.765   4.014  0.4612  0.1295 -0.6159
 1108THY    CA227679   7.596   4.900   4.051 -0.4878  0.1545  0.2804
 1108THY    CP127680   7.469   4.932   4.132  0.1969 -0.6013 -0.6495
 1108THY    HP127681   7.417   4.838   4.150 -2.0688  0.0252 -3.2153
 1108THY    CP227682   7.499   4.998   4.271  0.4791  0.1683 -1.0415
 1108THY    HP227683   7.591   4.953   4.309 -0.2648  0.7318  1.6262
 1108THY    HP327684   7.502   5.107   4.279 -2.9297  0.4150 -1.4398
 1108THY    HP427685   7.425   4.963   4.344 -0.6817  0.5951 -1.9876
 1108THY    CP327686   7.376   5.022   4.059 -0.0274 -0.1477 -0.2895
 1108THY    HP527687   7.420   5.116   4.025 -1.1410  0.3775 -0.3176
 1108THY    HP627688   7.337   4.979   3.965 -0.8971  0.6344 -0.2965
 1108THY    HP727689   7.299   5.052   4.130  0.9989  1.3693  0.2088
 1108THY    CA327690   7.700   4.995   4.022 -0.2523 -0.3404 -0.4735
 1108THY    HA327691   7.693   5.097   4.057  1.4072 -0.6634  0.9657
 1108THY    CA427692   7.814   4.956   3.949 -0.4601 -0.4628 -0.0649
 1108THY    HA427693   7.894   5.027   3.931  2.0858 -3.4564 -1.8659
 1108THY    CA527694   7.831   4.827   3.910 -0.1996  0.0506 -0.0245
 1108THY    CM127695   7.949   4.777   3.833 -0.1476 -0.7273 -0.6013
 1108THY    HM127696   7.926   4.773   3.726  0.4272 -1.3255 -0.7083
 1108THY    HM227697   8.026   4.855   3.833 -1.6979  0.8803  0.4753
 1108THY    HM327698   7.984   4.680   3.869 -1.1290 -0.9435 -0.1751
 1108THY    CA627699   7.742   4.724   3.950 -0.2182 -1.2145 -0.3038
 1108THY    HA627700   7.761   4.619   3.930 -2.0504 -1.3750 -1.5031
 1109THY      O27701   8.661   0.389   4.381 -0.2208  0.2956  0.0986
 1109THY     HO27702   8.691   0.297   4.397 -0.6122  0.6386  3.8851
 1109THY    CA127703   8.532   0.385   4.413 -0.6382 -0.1333 -0.1549
 1109THY    CA227704   8.458   0.503   4.420 -0.7411  0.0671 -0.3328
 1109THY    CP127705   8.525   0.638   4.405  0.2254 -0.1699  0.3333
 1109THY    HP127706   8.634   0.642   4.415  0.0514 -0.1496  2.9360
 1109THY    CP227707   8.486   0.706   4.278  0.2138  0.0337 -0.1066
 1109THY    HP227708   8.379   0.690   4.259  0.2074 -0.1457  0.0772
 1109THY    HP327709   8.508   0.814   4.281  0.8250 -0.0713 -0.5234
 1109THY    HP427710   8.542   0.663   4.194  0.8973  0.8252 -0.0750
 1109THY    CP327711   8.482   0.734   4.521  0.2584 -0.0039  0.5074
 1109THY    HP527712   8.376   0.759   4.527  0.4027  0.7264  0.0976
 1109THY    HP627713   8.510   0.690   4.617 -0.8199 -0.5149  0.6073
 1109THY    HP727714   8.539   0.825   4.501 -0.4864  0.0168 -1.8348
 1109THY    CA327715   8.326   0.490   4.470 -0.3385  0.0635 -0.5730
 1109THY    HA327716   8.265   0.575   4.497 -0.2763 -0.7607  2.5279
 1109THY    CA427717   8.260   0.365   4.497 -0.1006 -0.8634  0.0119
 1109THY    HA427718   8.154   0.358   4.522  0.3647 -0.1784  2.4532
 1109THY    CA527719   8.343   0.256   4.490  0.0208 -0.0842 -0.3746
 1109THY    CM127720   8.287   0.125   4.536 -0.0765 -0.0296 -0.2138
 1109THY    HM127721   8.331   0.090   4.630 -1.3766 -0.7173  0.1462
 1109THY    HM227722   8.179   0.137   4.549 -0.0335  0.4136 -0.2557
 1109THY    HM327723   8.314   0.050   4.460  0.0483  0.6395 -0.8426
 1109THY    CA627724   8.476   0.264   4.452  0.0916  0.2088 -0.4569
 1109THY    HA627725   8.532   0.172   4.441  1.5024  0.8961  0.5782
 1110THY      O27726   9.679   2.605   0.188  0.3007  0.1794  0.3656
 1110THY     HO27727   9.759   2.642   0.144 -0.9906  0.5516 -1.8366
 1110THY    CA127728   9.633   2.698   0.268 -0.4880 -0.6025 -0.6951
 1110THY    CA227729   9.500   2.695   0.317  0.0606 -0.6750  0.2313
 1110THY    CP127730   9.405   2.586   0.274  0.4138  0.8093 -0.4163
 1110THY    HP127731   9.454   2.521   0.200  1.6268 -0.5058  1.4665
 1110THY    CP227732   9.375   2.494   0.390 -0.2953 -0.0599 -0.2071
 1110THY    HP227733   9.309   2.548   0.459  0.6254  1.0228 -0.1543
 1110THY    HP327734   9.336   2.400   0.349  1.1254 -0.7550 -0.0140
 1110THY    HP427735   9.459   2.467   0.455 -0.7924 -0.1802  0.4030
 1110THY    CP327736   9.274   2.647   0.211 -0.0348  0.3193 -0.4650
 1110THY    HP527737   9.203   2.695   0.279  0.1634 -0.5380  0.3678
 1110THY    HP627738   9.303   2.709   0.126 -0.0463 -0.1492 -0.8175
 1110THY    HP727739   9.218   2.562   0.169  0.6837 -0.9506  1.0307
 1110THY    CA327740   9.461   2.799   0.403  0.1744  0.1223  0.3736
 1110THY    HA327741   9.362   2.805   0.449 -0.1897  0.5742 -0.4546
 1110THY    CA427742   9.551   2.899   0.437  0.3884  0.4876 -0.9093
 1110THY    HA427743   9.525   2.977   0.508 -1.0144 -0.2048 -0.6369
 1110THY    CA527744   9.684   2.900   0.394  0.6685 -0.3978  0.7127
 1110THY    CM127745   9.784   3.008   0.429  0.6015  0.9623 -0.4534
 1110THY    HM127746   9.877   2.998   0.372  0.4038  0.8404 -0.7575
 1110THY    HM227747   9.750   3.110   0.404 -3.6214 -0.4158 -1.1568
 1110THY    HM327748   9.806   2.999   0.536 -0.7185 -2.5733 -0.3552
 1110THY    CA627749   9.721   2.797   0.307  0.2958 -0.2883  0.1100
 1110THY    HA627750   9.824   2.807   0.273 -0.0642  0.3817 -0.8339
 1111THY      O27751   8.045   9.643   5.352  0.0188  0.2206  0.4199
 1111THY     HO27752   8.102   9.564   5.350  1.2183  0.9090  3.2579
 1111THY    CA127753   8.128   9.747   5.364 -1.1873  0.7810 -0.1335
 1111THY    CA227754   8.074   9.875   5.360  0.9225  0.3644  0.2832
 1111THY    CP127755   7.928   9.896   5.343 -0.2077 -0.3000 -0.2372
 1111THY    HP127756   7.879   9.813   5.395  0.2338  0.0090  0.6929
 1111THY    CP227757   7.856  10.013   5.412  0.1256  0.2395 -0.3462
 1111THY    HP227758   7.873  10.020   5.520  0.9351  1.2062 -0.5169
 1111THY    HP327759   7.866  10.108   5.359 -2.2725  1.4009  1.0861
 1111THY    HP427760   7.748   9.999   5.420 -0.0543  2.2029  1.5705
 1111THY    CP327761   7.898   9.916   5.195 -0.6106 -0.4030 -0.2281
 1111THY    HP527762   7.947  10.011   5.171 -2.4554  0.5581 -0.3170
 1111THY    HP627763   7.932   9.828   5.138  2.7925 -0.1652  1.1987
 1111THY    HP727764   7.789   9.919   5.184 -0.6995 -1.1814  0.3393
 1111THY    CA327765   8.164   9.986   5.355  0.1941 -0.2370 -0.2516
 1111THY    HA327766   8.122  10.084   5.336 -0.2167 -0.7482 -2.2067
 1111THY    CA427767   8.302   9.961   5.372  1.3032  0.3243 -0.2806
 1111THY    HA427768   8.380  10.038   5.371  1.4800  0.1867 -2.9296
 1111THY    CA527769   8.349   9.831   5.387  0.0630 -0.5537  0.3428
 1111THY    CM127770   8.495   9.812   5.420  0.1624 -0.4356  0.0261
 1111THY    HM127771   8.521   9.895   5.486  0.1835  0.4966 -1.1241
 1111THY    HM227772   8.519   9.713   5.463  1.2732 -1.2005 -2.1886
 1111THY    HM327773   8.555   9.803   5.329  0.8604 -0.4848  0.4864
 1111THY    CA627774   8.261   9.723   5.383  0.0067 -1.0600 -0.1415
 1111THY    HA627775   8.301   9.622   5.390 -2.0636 -1.9077  0.0877
 1112THY      O27776   8.712   4.755   2.234  0.0345 -0.1357  0.6683
 1112THY     HO27777   8.796   4.740   2.281  0.3244  1.1414  0.5895
 1112THY    CA127778   8.616   4.761   2.329  0.1472  0.4020  0.3684
 1112THY    CA227779   8.495   4.826   2.302 -0.1308 -0.2714 -0.5717
 1112THY    CP127780   8.487   4.910   2.172  0.1803  0.6369 -0.2084
 1112THY    HP127781   8.581   4.896   2.117  1.2954  1.1065  1.4992
 1112THY    CP227782   8.381   4.854   2.077  0.7663  0.1374  0.4881
 1112THY    HP227783   8.290   4.831   2.133  1.1311 -2.0468  0.2869
 1112THY    HP327784   8.359   4.916   1.990  1.1930 -0.5481 -0.1179
 1112THY    HP427785   8.417   4.761   2.031 -0.7219 -0.5580  0.6802
 1112THY    CP327786   8.464   5.063   2.207 -0.2247 -0.8990  0.2812
 1112THY    HP527787   8.434   5.117   2.117 -0.4817 -1.2332  0.1651
 1112THY    HP627788   8.380   5.088   2.273  0.5844  1.4018  0.5403
 1112THY    HP727789   8.559   5.103   2.245 -1.0789  0.4373  1.1301
 1112THY    CA327790   8.391   4.826   2.404  0.4610 -0.4180 -0.6680
 1112THY    HA327791   8.295   4.874   2.388 -0.5061 -1.4359  1.5989
 1112THY    CA427792   8.412   4.746   2.515  0.6684  0.2213 -0.3022
 1112THY    HA427793   8.333   4.738   2.589  0.8722  2.4431  0.2415
 1112THY    CA527794   8.532   4.680   2.543 -0.6502  0.1283 -0.6184
 1112THY    CM127795   8.555   4.605   2.676  0.4135 -0.0146  0.8449
 1112THY    HM127796   8.662   4.594   2.700  1.1246  2.1701 -0.9494
 1112THY    HM227797   8.512   4.658   2.762 -0.9327  2.1495 -1.0375
 1112THY    HM327798   8.506   4.507   2.666  2.2881 -0.8060 -1.5511
 1112THY    CA627799   8.632   4.687   2.448  0.2192 -0.2883 -0.0426
 1112THY    HA627800   8.721   4.626   2.462  1.5250  1.4224 -0.4990
 1113THY      O27801   9.127   0.024   2.541  0.0861 -0.3861  0.1259
 1113THY     HO27802   9.151   0.006   2.634  0.4778 -0.8515 -0.0598
 1113THY    CA127803   8.994   0.047   2.525  0.2039  0.3543 -0.4817
 1113THY    CA227804   8.937   0.022   2.402  0.4830 -0.2497 -0.9563
 1113THY    CP127805   9.020  -0.007   2.276 -0.0173 -0.3668  0.1205
 1113THY    HP127806   9.127   0.008   2.299  0.5794 -2.0015 -1.3334
 1113THY    CP227807   8.997  -0.149   2.237  0.1194  0.1899  0.1949
 1113THY    HP227808   8.903  -0.163   2.183 -0.0977 -2.3843  1.0641
 1113THY    HP327809   9.084  -0.179   2.176  1.1808  0.8415  1.3382
 1113THY    HP427810   8.992  -0.217   2.323 -0.3860  1.0406  0.8415
 1113THY    CP327811   8.987   0.089   2.156  0.6575  0.4575 -0.8560
 1113THY    HP527812   8.880   0.100   2.135  0.7620  1.2453 -0.9852
 1113THY    HP627813   9.023   0.184   2.195 -0.2035 -0.2145  1.7698
 1113THY    HP727814   9.040   0.062   2.064  0.6533  1.7030 -1.2347
 1113THY    CA327815   8.798   0.041   2.385 -0.2260 -0.2170  0.0043
 1113THY    HA327816   8.747   0.041   2.289 -0.3963  1.9291  0.0591
 1113THY    CA427817   8.722   0.068   2.503  0.1346  0.5738  0.7809
 1113THY    HA427818   8.617   0.090   2.487  0.4633  1.3908 -0.4150
 1113THY    CA527819   8.781   0.085   2.628  0.0006 -0.0047  1.1856
 1113THY    CM127820   8.692   0.116   2.749 -0.4440 -0.6321  0.0872
 1113THY    HM127821   8.748   0.148   2.837 -0.2649  1.4893 -0.7273
 1113THY    HM227822   8.621   0.193   2.715  1.4042 -0.0590 -2.8884
 1113THY    HM327823   8.627   0.028   2.759 -1.0956 -0.0668  0.8741
 1113THY    CA627824   8.916   0.071   2.637  0.3524 -0.3350  0.0657
 1113THY    HA627825   8.964   0.061   2.734  0.0677 -1.0915  0.1364
 1114THY      O27826   4.665   1.699   3.657  0.1070  0.9419 -0.6509
 1114THY     HO27827   4.708   1.769   3.709  2.6258 -0.2963 -0.9403
 1114THY    CA127828   4.532   1.691   3.685 -0.7043  0.1773 -0.0237
 1114THY    CA227829   4.447   1.796   3.687  0.2817 -0.1447  0.0356
 1114THY    CP127830   4.491   1.940   3.663  0.3264 -0.6691 -0.0091
 1114THY    HP127831   4.597   1.936   3.635  0.4008  2.2302 -0.5129
 1114THY    CP227832   4.410   1.994   3.540 -0.1500  0.9726  0.0953
 1114THY    HP227833   4.425   2.102   3.525 -0.5421  1.0829  0.4488
 1114THY    HP327834   4.436   1.944   3.446  1.2759  0.6772  0.6225
 1114THY    HP427835   4.304   1.974   3.560 -0.5889  1.6358 -1.4343
 1114THY    CP327836   4.473   2.038   3.779  0.2013  0.1387 -0.0622
 1114THY    HP527837   4.488   2.142   3.749  1.6749 -0.1762 -0.4983
 1114THY    HP627838   4.367   2.031   3.807 -0.0807  2.1123 -0.4989
 1114THY    HP727839   4.534   2.004   3.863 -0.4243 -1.0415 -0.0656
 1114THY    CA327840   4.308   1.770   3.696 -0.2313  0.6333 -0.2820
 1114THY    HA327841   4.226   1.842   3.689 -1.6171 -0.9044 -0.6961
 1114THY    CA427842   4.262   1.644   3.702  0.3095  0.0333 -0.0086
 1114THY    HA427843   4.156   1.624   3.691  0.1223  1.0629 -0.1464
 1114THY    CA527844   4.344   1.539   3.725 -0.6269  0.5589  0.1330
 1114THY    CM127845   4.290   1.407   3.759 -0.0337 -0.7705  0.3135
 1114THY    HM127846   4.370   1.334   3.778 -2.4900 -2.9752  3.1087
 1114THY    HM227847   4.229   1.406   3.850 -0.3276 -0.9405  0.1122
 1114THY    HM327848   4.227   1.372   3.677 -2.7854 -0.5732  2.2328
 1114THY    CA627849   4.484   1.564   3.714 -0.2188 -0.5124  0.3826
 1114THY    HA627850   4.548   1.477   3.721  0.1005 -0.1665  2.0627
 1115THY      O27851   4.375   3.624   3.757 -0.1983 -0.9608 -0.4869
 1115THY     HO27852   4.402   3.618   3.851 -0.1096 -1.5252 -0.5422
 1115THY    CA127853   4.421   3.511   3.703  0.1828 -0.1641 -0.2755
 1115THY    CA227854   4.408   3.485   3.562  0.9322  0.7673 -0.1607
 1115THY    CP127855   4.332   3.586   3.474  0.3914  0.2320 -0.0133
 1115THY    HP127856   4.251   3.622   3.539 -0.5635 -1.3406 -0.2851
 1115THY    CP227857   4.431   3.695   3.430 -0.0496 -0.6044  0.5113
 1115THY    HP227858   4.494   3.723   3.515  0.1633  0.2661  0.0792
 1115THY    HP327859   4.506   3.659   3.359  0.5368  0.6221  0.4822
 1115THY    HP427860   4.378   3.788   3.407 -1.3956 -1.2047  1.1299
 1115THY    CP327861   4.268   3.521   3.348  0.0826  0.1265 -0.8385
 1115THY    HP527862   4.210   3.432   3.375 -2.2017  1.6092 -0.6873
 1115THY    HP627863   4.193   3.585   3.302 -0.4774 -0.4686 -0.7746
 1115THY    HP727864   4.344   3.494   3.273  0.3003 -0.3206 -0.4664
 1115THY    CA327865   4.447   3.355   3.513 -0.2070 -0.0654  0.2198
 1115THY    HA327866   4.447   3.345   3.405  1.2321 -2.0087  0.3594
 1115THY    CA427867   4.503   3.265   3.605 -0.2874 -0.3217 -0.0567
 1115THY    HA427868   4.536   3.167   3.572 -0.3277 -0.6751  0.9147
 1115THY    CA527869   4.514   3.292   3.740  0.4222  0.2146 -0.8932
 1115THY    CM127870   4.582   3.197   3.832  0.0527 -0.3974 -0.1328
 1115THY    HM127871   4.576   3.233   3.935 -4.1864  1.2800 -0.7552
 1115THY    HM227872   4.538   3.097   3.837 -0.3374 -0.3024 -1.3380
 1115THY    HM327873   4.687   3.188   3.803  0.3467 -0.5323  0.9400
 1115THY    CA627874   4.477   3.420   3.790 -0.7989 -0.3698 -0.5432
 1115THY    HA627875   4.494   3.439   3.895 -2.0097 -1.2676 -0.1621
 1116THY      O27876   7.463   8.403   5.404  0.8254 -0.6129  0.1488
 1116THY     HO27877   7.411   8.407   5.486 -1.4950  1.9632 -1.2480
 1116THY    CA127878   7.373   8.347   5.316  0.1557 -0.0465  0.0774
 1116THY    CA227879   7.413   8.313   5.188 -0.2253  0.5920  1.1466
 1116THY    CP127880   7.559   8.327   5.143 -0.7691 -0.3495  0.0088
 1116THY    HP127881   7.615   8.396   5.206  1.4353 -1.4631 -0.6115
 1116THY    CP227882   7.622   8.193   5.173 -0.6013 -0.3591  0.1572
 1116THY    HP227883   7.614   8.171   5.280  0.4841  0.0242  0.3350
 1116THY    HP327884   7.587   8.106   5.117 -1.7337 -0.8008  1.5326
 1116THY    HP427885   7.727   8.208   5.145 -0.9247  1.1174 -0.3920
 1116THY    CP327886   7.569   8.367   4.991 -0.0536 -0.5289 -0.4956
 1116THY    HP527887   7.492   8.442   4.971  0.9532  1.1207  1.4425
 1116THY    HP627888   7.668   8.414   4.994 -0.9006  1.5408  4.5603
 1116THY    HP727889   7.562   8.277   4.929 -1.2497  0.3508 -1.6797
 1116THY    CA327890   7.309   8.267   5.102 -0.0816 -0.8427 -0.0017
 1116THY    HA327891   7.336   8.227   5.005  1.4189 -0.8162  0.3847
 1116THY    CA427892   7.174   8.264   5.152  0.8556 -0.2342  0.3281
 1116THY    HA427893   7.096   8.235   5.083 -0.0138  0.2771  1.0766
 1116THY    CA527894   7.144   8.303   5.281  0.4933 -0.7427  0.1187
 1116THY    CM127895   7.002   8.302   5.333 -0.1901 -0.1938  0.1577
 1116THY    HM127896   6.963   8.200   5.324 -1.0094 -0.0687  1.9310
 1116THY    HM227897   6.976   8.357   5.424 -0.0636  3.0910 -1.5987
 1116THY    HM327898   6.946   8.356   5.255 -0.0897 -1.3424 -0.7363
 1116THY    CA627899   7.244   8.359   5.361 -0.3196  0.4788  0.3057
 1116THY    HA627900   7.219   8.410   5.454  2.4897  2.9057 -0.1103
 1117THY      O27901   3.331   2.083   9.764 -0.3796 -0.7540 -0.1219
 1117THY     HO27902   3.296   2.170   9.737  0.6944 -0.5524 -0.9702
 1117THY    CA127903   3.232   1.998   9.752  0.8736  0.4110 -0.1477
 1117THY    CA227904   3.212   1.876   9.823 -0.3517  0.9064 -0.2497
 1117THY    CP127905   3.323   1.832   9.923 -0.3251  0.2772 -0.4087
 1117THY    HP127906   3.389   1.918   9.937 -0.8907  0.5799  0.4794
 1117THY    CP227907   3.268   1.785  10.064  0.0622 -0.0591  0.1317
 1117THY    HP227908   3.351   1.778  10.136 -0.8396  0.1670  1.2197
 1117THY    HP327909   3.196   1.852  10.112 -0.7356  0.8942 -2.2252
 1117THY    HP427910   3.226   1.685  10.051  1.3035 -0.5877  0.0820
 1117THY    CP327911   3.405   1.720   9.862 -0.0813  0.8733  0.5183
 1117THY    HP527912   3.353   1.636   9.815  2.2885 -0.1568 -0.4013
 1117THY    HP627913   3.468   1.763   9.784 -2.5472  1.3528 -1.3259
 1117THY    HP727914   3.462   1.674   9.944 -0.8130 -2.8062 -0.8554
 1117THY    CA327915   3.093   1.800   9.811  0.7772  0.1449  0.1827
 1117THY    HA327916   3.081   1.707   9.866  1.4557 -0.9029 -1.3505
 1117THY    CA427917   2.993   1.845   9.713  0.0531 -0.7731 -0.5180
 1117THY    HA427918   2.901   1.791   9.694 -0.6357 -0.2191  1.1190
 1117THY    CA527919   3.014   1.969   9.648 -0.0912 -0.2787 -0.1041
 1117THY    CM127920   2.912   2.023   9.547 -0.2441 -0.1651 -0.1128
 1117THY    HM127921   2.957   2.040   9.448  0.6302 -0.5475  0.1988
 1117THY    HM227922   2.822   1.961   9.539  0.5096 -1.4136  0.7552
 1117THY    HM327923   2.872   2.122   9.570  2.3060  1.5243 -2.2949
 1117THY    CA627924   3.131   2.046   9.666 -0.1565  0.3952 -0.4922
 1117THY    HA627925   3.151   2.134   9.605  1.0192  0.2992 -0.2563
 1118THY      O27926   8.441   7.676   6.757 -0.1495 -0.2371 -0.4806
 1118THY     HO27927   8.476   7.586   6.744  3.6929  0.7047  1.6867
 1118THY    CA127928   8.554   7.748   6.727  0.0227  0.4821 -0.3991
 1118THY    CA227929   8.577   7.880   6.772  0.0544 -0.0107  0.1816
 1118THY    CP127930   8.465   7.943   6.861 -0.8849  0.3249  0.2182
 1118THY    HP127931   8.366   7.922   6.820  0.3065  2.2127 -4.2858
 1118THY    CP227932   8.470   7.879   7.000  0.5820 -0.7061  0.4199
 1118THY    HP227933   8.397   7.928   7.065  0.6484 -0.5976  0.4133
 1118THY    HP327934   8.442   7.773   6.997 -2.5996 -0.0404  2.1763
 1118THY    HP427935   8.574   7.875   7.035  1.3390 -1.7278 -1.7822
 1118THY    CP327936   8.478   8.089   6.878 -0.2848 -0.1260 -0.2270
 1118THY    HP527937   8.390   8.144   6.913  0.0224  0.6173 -0.5944
 1118THY    HP627938   8.562   8.109   6.945 -0.1747 -0.5959 -0.2212
 1118THY    HP727939   8.493   8.133   6.778  0.5248 -0.0572 -0.0770
 1118THY    CA327940   8.701   7.944   6.758 -0.8594 -0.2307 -0.3427
 1118THY    HA327941   8.727   8.043   6.793  1.3170 -0.7346 -0.3615
 1118THY    CA427942   8.806   7.872   6.703 -0.8526 -0.6980 -0.2291
 1118THY    HA427943   8.901   7.920   6.684 -0.9828 -0.1967  0.3697
 1118THY    CA527944   8.786   7.744   6.645  0.8471  0.0738 -0.6378
 1118THY    CM127945   8.899   7.656   6.591 -0.5694  0.0260  0.3123
 1118THY    HM127946   8.858   7.574   6.531  1.9396  0.7900 -2.6973
 1118THY    HM227947   8.951   7.721   6.520 -1.3143 -0.8613 -1.0896
 1118THY    HM327948   8.969   7.614   6.664 -1.3464 -1.1489  0.4268
 1118THY    CA627949   8.657   7.682   6.660  0.1445 -0.0198 -0.2688
 1118THY    HA627950   8.647   7.578   6.633 -2.3382  0.3462 -1.0121
 1119THY      O27951   6.115   8.289   3.267  0.0991 -0.0271  0.7674
 1119THY     HO27952   6.081   8.326   3.184  0.8400 -0.0246  0.4529
 1119THY    CA127953   6.164   8.172   3.226  0.3977 -0.0422 -0.2442
 1119THY    CA227954   6.195   8.069   3.324  0.1136 -0.5437  0.6652
 1119THY    CP127955   6.165   8.098   3.473  0.0124 -0.2816 -0.0341
 1119THY    HP127956   6.078   8.161   3.494  0.3008  0.2216 -0.3325
 1119THY    CP227957   6.147   7.987   3.562  0.1270  0.9257  0.4884
 1119THY    HP227958   6.234   7.922   3.558  0.1902  1.0681 -0.5158
 1119THY    HP327959   6.139   8.017   3.668 -0.7639  0.6185  0.5203
 1119THY    HP427960   6.063   7.925   3.529  1.1622 -0.4450  0.3708
 1119THY    CP327961   6.276   8.185   3.538 -0.3447  0.2205  1.0126
 1119THY    HP527962   6.374   8.136   3.540 -0.7748 -0.7494 -0.0080
 1119THY    HP627963   6.288   8.276   3.478 -1.3757 -1.0853 -1.3579
 1119THY    HP727964   6.258   8.205   3.644 -0.8958  1.6224  0.6799
 1119THY    CA327965   6.265   7.959   3.272 -0.3904 -0.0549 -0.4452
 1119THY    HA327966   6.307   7.876   3.328  2.2346  1.8110  0.5673
 1119THY    CA427967   6.266   7.932   3.134 -0.6838 -0.2494 -0.0374
 1119THY    HA427968   6.298   7.836   3.095  1.1923  0.2852  0.0835
 1119THY    CA527969   6.230   8.031   3.043  1.4509  0.3118  0.2464
 1119THY    CM127970   6.229   8.001   2.897 -0.1873 -0.4689  0.0186
 1119THY    HM127971   6.316   7.945   2.860  1.0923  2.0546 -1.0141
 1119THY    HM227972   6.139   7.942   2.874 -0.2055 -0.9456  1.2206
 1119THY    HM327973   6.226   8.089   2.833  0.8484 -1.0189 -0.8042
 1119THY    CA627974   6.188   8.152   3.092  0.7829  0.3342  0.3030
 1119THY    HA627975   6.168   8.230   3.019  1.1208  0.8041  0.7050
 1120THY      O27976   8.222   9.310   9.774 -0.4586  0.5801  0.0615
 1120THY     HO27977   8.189   9.220   9.765  0.8777  0.1230 -0.4776
 1120THY    CA127978   8.302   9.316   9.882 -0.2615  0.5857  0.1056
 1120THY    CA227979   8.347   9.437   9.935 -0.6400 -0.1858  0.3151
 1120THY    CP127980   8.326   9.567   9.856 -0.4761 -0.5293  0.4730
 1120THY    HP127981   8.258   9.551   9.771 -1.3561  0.3097  0.9925
 1120THY    CP227982   8.254   9.665   9.951  0.0804 -0.9101  0.6085
 1120THY    HP227983   8.295   9.663  10.052 -0.1034 -0.0805  0.7078
 1120THY    HP327984   8.261   9.764   9.905 -1.6115 -0.6557  0.8458
 1120THY    HP427985   8.145   9.662   9.964 -0.1415  2.4538  0.3397
 1120THY    CP327986   8.457   9.644   9.808 -0.7576  0.2304  0.2606
 1120THY    HP527987   8.513   9.577   9.742  0.4483  0.0391  1.4275
 1120THY    HP627988   8.431   9.737   9.755 -3.0900  0.0451  0.9680
 1120THY    HP727989   8.520   9.667   9.895  0.0635 -1.7594  0.2432
 1120THY    CA327990   8.430   9.437  10.049 -0.9640  0.3716 -0.4927
 1120THY    HA327991   8.486   9.522  10.086  0.6915 -0.3310 -1.3082
 1120THY    CA427992   8.461   9.315  10.113  0.6757  0.3728  0.5613
 1120THY    HA427993   8.525   9.320  10.200  1.2060 -0.4349  0.2264
 1120THY    CA527994   8.407   9.187  10.064 -0.2801 -0.1044 -0.1269
 1120THY    CM127995   8.464   9.060  10.113  0.4152  0.1097 -0.3133
 1120THY    HM127996   8.477   9.054  10.222 -2.8122 -1.2434  0.1057
 1120THY    HM227997   8.394   8.978  10.094  1.1112 -0.9980  1.5688
 1120THY    HM327998   8.562   9.049  10.065  0.4899 -0.5461 -0.0251
 1120THY    CA627999   8.326   9.192   9.950 -0.5359 -0.4072 -0.1096
 1120THY    HA628000   8.297   9.103   9.893 -1.3731  0.8096 -1.6628
 1121THY      O28001   7.470   2.539   1.672 -0.3851 -0.3414 -0.0314
 1121THY     HO28002   7.410   2.594   1.619  1.2194 -0.0926 -1.7325
 1121THY    CA128003   7.560   2.620   1.724  1.0458  0.0190 -0.0254
 1121THY    CA228004   7.646   2.574   1.828  0.4168  0.1774  0.1573
 1121THY    CP128005   7.625   2.437   1.891  0.8203 -0.4435 -0.6302
 1121THY    HP128006   7.552   2.372   1.841  0.3617 -0.4385  0.0237
 1121THY    CP228007   7.753   2.364   1.876 -0.2091  0.4996  0.1646
 1121THY    HP228008   7.808   2.370   1.781  2.5811 -2.1407  1.4759
 1121THY    HP328009   7.835   2.381   1.947 -0.7925  0.2389  0.9153
 1121THY    HP428010   7.758   2.256   1.891  0.8298  0.4907 -0.1740
 1121THY    CP328011   7.588   2.444   2.042 -0.2377 -0.3006  0.0102
 1121THY    HP528012   7.589   2.340   2.078 -0.0879 -1.7833 -3.8264
 1121THY    HP628013   7.656   2.496   2.111 -1.8989 -0.3113  1.7320
 1121THY    HP728014   7.489   2.490   2.052 -0.4010 -0.2237 -1.6159
 1121THY    CA328015   7.729   2.671   1.886 -0.2455  0.1908  0.2334
 1121THY    HA328016   7.783   2.639   1.975  0.6918 -1.1019 -0.7704
 1121THY    CA428017   7.732   2.797   1.827  0.1452 -0.1840 -0.7833
 1121THY    HA428018   7.802   2.864   1.875 -0.2125  0.5460 -1.2616
 1121THY    CA528019   7.658   2.835   1.712  0.4097 -0.2839 -0.4035
 1121THY    CM128020   7.665   2.976   1.664 -0.5822  0.1853  0.3937
 1121THY    HM128021   7.694   2.979   1.559 -0.9453  0.3134  0.2943
 1121THY    HM228022   7.572   3.032   1.682 -0.0912  0.7296  1.3582
 1121THY    HM328023   7.733   3.045   1.716 -0.3124 -0.6732  1.2218
 1121THY    CA628024   7.559   2.746   1.671  0.0210 -0.9873  0.6584
 1121THY    HA628025   7.488   2.782   1.597 -0.4417 -0.1188  1.4944
 1122THY      O28026   4.932   8.326   3.774 -0.6289  0.2569 -0.1557
 1122THY     HO28027   4.847   8.320   3.727 -1.7716  2.0954  1.4814
 1122THY    CA128028   4.902   8.335   3.906  0.2166 -0.5896  0.4680
 1122THY    CA228029   4.984   8.277   4.003 -0.5234 -0.1350 -0.7420
 1122THY    CP128030   5.127   8.229   3.966 -0.6183  0.5689 -0.6192
 1122THY    HP128031   5.155   8.274   3.870  0.9591  1.1126  0.0616
 1122THY    CP228032   5.234   8.277   4.077  0.4731  1.0103 -0.1351
 1122THY    HP228033   5.216   8.385   4.088  1.0457  1.1979 -1.0322
 1122THY    HP328034   5.241   8.231   4.176  0.7924 -1.4789 -1.2509
 1122THY    HP428035   5.334   8.262   4.035 -0.7180  2.2129 -3.7442
 1122THY    CP328036   5.124   8.070   3.953  0.4409 -0.5495  0.1693
 1122THY    HP528037   5.062   8.042   3.867 -2.4570  0.0462  1.9447
 1122THY    HP628038   5.223   8.023   3.953 -0.2725 -2.1324  0.2466
 1122THY    HP728039   5.079   8.033   4.046 -0.3746  1.1031  0.4602
 1122THY    CA328040   4.939   8.278   4.136 -0.5900  0.3508  0.2403
 1122THY    HA328041   5.004   8.239   4.213 -1.3581  0.3341  0.8876
 1122THY    CA428042   4.822   8.340   4.172 -0.2978 -0.5909 -0.1277
 1122THY    HA428043   4.793   8.351   4.276 -0.4244  0.4417 -0.2685
 1122THY    CA528044   4.743   8.405   4.078 -0.6117 -0.6458  0.4853
 1122THY    CM128045   4.617   8.464   4.122 -0.1438 -0.2800  0.0404
 1122THY    HM128046   4.600   8.497   4.225 -1.9494  0.1098 -0.3477
 1122THY    HM228047   4.599   8.547   4.053  0.2538 -1.2888 -1.3207
 1122THY    HM328048   4.530   8.401   4.101  0.0556 -0.8842  0.9634
 1122THY    CA628049   4.785   8.397   3.947  1.2370  0.1901  0.9936
 1122THY    HA628050   4.723   8.434   3.865  1.8973  0.4882  0.6262
 1123THY      O28051   9.318   7.867   5.834 -0.0355  0.0863 -0.0908
 1123THY     HO28052   9.268   7.951   5.835 -0.6811 -0.2740 -0.7556
 1123THY    CA128053   9.230   7.760   5.849  0.1073  0.2280  0.4853
 1123THY    CA228054   9.265   7.626   5.855 -0.8765 -0.2034  0.2349
 1123THY    CP128055   9.411   7.584   5.862 -0.1864  0.4322  0.2280
 1123THY    HP128056   9.479   7.666   5.833  0.6040 -0.3200 -0.1015
 1123THY    CP228057   9.451   7.582   6.010  0.1588  0.2573 -0.8680
 1123THY    HP228058   9.560   7.575   6.021  0.1224  1.1674  0.3096
 1123THY    HP328059   9.420   7.674   6.061  0.1461  0.0047 -0.4131
 1123THY    HP428060   9.410   7.496   6.066  1.0156  0.2402 -0.2373
 1123THY    CP328061   9.456   7.450   5.799 -0.4247 -0.1974 -0.3958
 1123THY    HP528062   9.447   7.448   5.689 -0.7498  0.3856 -0.3861
 1123THY    HP628063   9.556   7.420   5.833 -0.3381  1.3314  0.7982
 1123THY    HP728064   9.390   7.367   5.826  0.6430 -0.7263  0.6599
 1123THY    CA328065   9.163   7.531   5.864  0.2212  0.7310  0.3984
 1123THY    HA328066   9.192   7.427   5.875 -3.5147 -0.4240  0.5244
 1123THY    CA428067   9.035   7.569   5.877 -0.4870  0.8184 -0.4616
 1123THY    HA428068   8.963   7.490   5.897 -1.7306  2.1299  0.4163
 1123THY    CA528069   8.992   7.703   5.863  0.2477  0.2063 -0.1527
 1123THY    CM128070   8.845   7.726   5.862  0.2957  0.0528 -0.4323
 1123THY    HM128071   8.815   7.786   5.775 -1.9423  1.1164  0.9850
 1123THY    HM228072   8.791   7.631   5.868 -0.5534  0.3139 -2.8955
 1123THY    HM328073   8.818   7.791   5.946 -0.4925  0.0734 -0.6874
 1123THY    CA628074   9.092   7.796   5.852  0.2982 -0.0223  0.3136
 1123THY    HA628075   9.063   7.899   5.837  1.5858  0.2065 -0.7911
 1124THY      O28076   3.612   8.398   1.387 -0.1371  0.4633  0.5313
 1124THY     HO28077   3.585   8.490   1.396 -1.8033 -0.0850  1.5513
 1124THY    CA128078   3.493   8.340   1.404  0.7099 -0.3910  0.2065
 1124THY    CA228079   3.472   8.198   1.382 -0.8256 -0.1599 -0.6173
 1124THY    CP128080   3.581   8.105   1.327 -0.5279  0.1428  0.2637
 1124THY    HP128081   3.683   8.132   1.359 -0.8822  1.8621  0.0750
 1124THY    CP228082   3.561   7.953   1.360 -0.3738 -0.5652 -0.1998
 1124THY    HP228083   3.647   7.885   1.351  0.6830  0.9636 -2.3530
 1124THY    HP328084   3.528   7.952   1.465 -1.4617  0.1451 -0.5197
 1124THY    HP428085   3.471   7.910   1.316 -3.1296  1.3526  3.1340
 1124THY    CP328086   3.591   8.116   1.171  0.7362 -0.1448 -0.3909
 1124THY    HP528087   3.624   8.220   1.160  1.6058 -0.1598  1.6569
 1124THY    HP628088   3.663   8.042   1.135 -0.4805 -2.2687  1.3150
 1124THY    HP728089   3.488   8.095   1.138  0.4966 -4.0162  2.1777
 1124THY    CA328090   3.343   8.146   1.405  0.0256 -0.1956 -0.3372
 1124THY    HA328091   3.301   8.047   1.389 -2.9885  0.5888  1.8797
 1124THY    CA428092   3.234   8.234   1.448 -0.2116  0.1715 -0.1302
 1124THY    HA428093   3.130   8.203   1.457 -0.7974  1.8510 -0.7086
 1124THY    CA528094   3.267   8.368   1.475  0.2251  0.3339  0.3733
 1124THY    CM128095   3.165   8.454   1.538 -0.4550  0.6588 -0.3464
 1124THY    HM128096   3.207   8.553   1.558  0.9048 -0.0118  0.2300
 1124THY    HM228097   3.091   8.472   1.459 -2.6658 -1.9183  0.9316
 1124THY    HM328098   3.129   8.420   1.635  0.4504  0.6713  0.0041
 1124THY    CA628099   3.391   8.421   1.448 -0.5587  0.8168 -0.5011
 1124THY    HA628100   3.412   8.527   1.464  0.8251  0.7115 -1.5012
 1125THY      O28101   9.379   6.220   6.780  0.3219  0.4990  0.4437
 1125THY     HO28102   9.475   6.204   6.780  0.6043  1.9786 -1.5677
 1125THY    CA128103   9.351   6.225   6.914  0.2043  0.1254  0.3049
 1125THY    CA228104   9.214   6.220   6.953 -0.9708 -0.3037  0.6921
 1125THY    CP128105   9.097   6.235   6.848 -0.2523  0.4789 -0.4947
 1125THY    HP128106   9.128   6.285   6.755 -3.7818  1.3412 -1.3335
 1125THY    CP228107   9.022   6.101   6.821  0.6358 -0.3026  0.2888
 1125THY    HP228108   8.928   6.105   6.764  0.8003 -0.9981 -0.0319
 1125THY    HP328109   9.088   6.024   6.779 -0.0226 -0.3705 -0.6422
 1125THY    HP428110   8.988   6.069   6.920 -1.1676  1.2632  0.2428
 1125THY    CP328111   8.992   6.328   6.897  1.0628 -0.2274  0.2047
 1125THY    HP528112   8.936   6.277   6.977  2.3557 -0.7950  0.7694
 1125THY    HP628113   9.030   6.423   6.934 -1.4700  0.4966  1.1515
 1125THY    HP728114   8.928   6.347   6.810  1.4360 -1.2361 -0.3129
 1125THY    CA328115   9.181   6.209   7.081 -0.7007  0.8792 -0.1943
 1125THY    HA328116   9.080   6.204   7.122 -0.8692  0.0753 -0.6871
 1125THY    CA428117   9.286   6.222   7.170 -0.5340  0.1004 -0.2381
 1125THY    HA428118   9.262   6.206   7.275  1.2498  1.8872  0.5023
 1125THY    CA528119   9.422   6.226   7.140 -0.0840  0.1491  0.0817
 1125THY    CM128120   9.525   6.220   7.248  0.8085 -0.3530 -0.0444
 1125THY    HM128121   9.506   6.297   7.324 -1.4711  0.3626 -1.2193
 1125THY    HM228122   9.544   6.116   7.274  1.1219 -0.4471 -0.6365
 1125THY    HM328123   9.626   6.236   7.209  0.5940 -0.8198 -0.8075
 1125THY    CA628124   9.454   6.238   7.006  0.5697  0.0222 -0.1003
 1125THY    HA628125   9.559   6.251   6.982  1.1181 -1.1592  1.4388
 1126THY      O28126   1.397   1.991   3.446  0.1512 -0.1050 -0.6066
 1126THY     HO28127   1.381   1.990   3.350 -1.7197  0.4431 -0.3237
 1126THY    CA128128   1.494   2.075   3.478 -0.3798 -0.3682 -0.3696
 1126THY    CA228129   1.523   2.099   3.614  0.4609 -0.3052  0.4560
 1126THY    CP128130   1.434   2.028   3.716 -0.0121 -0.3339 -0.3022
 1126THY    HP128131   1.351   1.982   3.662  0.9525 -2.4935 -0.0414
 1126THY    CP228132   1.505   1.917   3.803 -0.9932  0.0068  0.6959
 1126THY    HP228133   1.552   1.845   3.735  0.2316  2.1593 -0.8754
 1126THY    HP328134   1.570   1.957   3.882 -0.7773  0.8037  0.1282
 1126THY    HP428135   1.427   1.864   3.859 -1.0451  0.7071  1.3032
 1126THY    CP328136   1.376   2.117   3.823 -0.7622  0.1822  0.2437
 1126THY    HP528137   1.467   2.160   3.867  0.0092  0.7985 -1.8427
 1126THY    HP628138   1.318   2.193   3.770 -2.8210 -0.6313  1.2003
 1126THY    HP728139   1.326   2.053   3.897  0.5454  0.1797  1.1668
 1126THY    CA328140   1.641   2.169   3.646  0.0577 -0.3753 -0.7222
 1126THY    HA328141   1.670   2.172   3.751 -0.3952 -2.6582 -0.4823
 1126THY    CA428142   1.706   2.239   3.545 -0.0016  0.3962  0.3917
 1126THY    HA428143   1.780   2.312   3.578  0.6635 -0.4150  0.7190
 1126THY    CA528144   1.669   2.226   3.411  0.5267 -0.5522  0.2889
 1126THY    CM128145   1.728   2.314   3.302  0.8355  0.1132 -0.0443
 1126THY    HM128146   1.664   2.348   3.220  2.2058 -2.1244 -2.1506
 1126THY    HM228147   1.784   2.398   3.343  1.3948  1.0651 -2.5724
 1126THY    HM328148   1.808   2.257   3.255 -0.2474 -0.7582 -0.8795
 1126THY    CA628149   1.567   2.137   3.374 -0.6112  0.1155  0.5447
 1126THY    HA628150   1.544   2.116   3.270  3.1578  0.3932 -0.4966
 1127THY      O28151   8.136   8.452   4.421 -0.0239  0.1594 -0.4458
 1127THY     HO28152   8.065   8.516   4.442 -0.4691 -0.5999  0.4312
 1127THY    CA128153   8.196   8.420   4.536 -0.2182 -0.0804  0.6890
 1127THY    CA228154   8.312   8.340   4.537  0.1549 -0.6595 -0.2139
 1127THY    CP128155   8.390   8.320   4.411  1.0095  0.0544 -0.1753
 1127THY    HP128156   8.318   8.271   4.344  0.0320  0.4964  0.5332
 1127THY    CP228157   8.435   8.448   4.346 -0.2077 -0.4927 -0.7014
 1127THY    HP228158   8.472   8.517   4.423 -1.1666 -0.5605 -0.1680
 1127THY    HP328159   8.516   8.421   4.277  1.2408 -0.8906  1.0725
 1127THY    HP428160   8.350   8.490   4.291  0.0421 -1.9039 -2.2429
 1127THY    CP328161   8.491   8.207   4.437 -0.2604  0.6750  0.4562
 1127THY    HP528162   8.439   8.129   4.494  0.9187 -0.0953  0.5049
 1127THY    HP628163   8.536   8.172   4.343 -1.2298  0.0863  0.1905
 1127THY    HP728164   8.574   8.246   4.496 -0.6620  0.2012  1.3440
 1127THY    CA328165   8.357   8.306   4.663  0.2995  0.6318 -0.8358
 1127THY    HA328166   8.450   8.253   4.682 -0.5937 -0.0716  1.9684
 1127THY    CA428167   8.277   8.329   4.776 -0.3712 -0.2229  0.5373
 1127THY    HA428168   8.315   8.294   4.871 -0.3135  0.5363  0.7994
 1127THY    CA528169   8.163   8.403   4.767  0.0650 -1.1431 -0.5160
 1127THY    CM128170   8.085   8.426   4.896  0.0224  0.1530 -0.4951
 1127THY    HM128171   7.998   8.361   4.910 -1.1615  1.8837  0.5549
 1127THY    HM228172   8.149   8.394   4.979  1.2776  1.3380 -0.9639
 1127THY    HM328173   8.056   8.531   4.907 -0.1697  0.1262 -0.7188
 1127THY    CA628174   8.122   8.454   4.646  0.7426 -0.4841 -0.1598
 1127THY    HA628175   8.030   8.512   4.641  0.0988 -1.4627  0.0512
 1128THY      O28176   5.305   4.446   4.173  0.3206 -0.2308 -0.3853
 1128THY     HO28177   5.264   4.389   4.240  2.5209 -0.9191  0.4539
 1128THY    CA128178   5.315   4.571   4.217  0.5361 -0.4055  0.3921
 1128THY    CA228179   5.340   4.685   4.133  0.2358  0.7247  0.5322
 1128THY    CP128180   5.344   4.672   3.979  0.3723 -0.1297 -0.2301
 1128THY    HP128181   5.324   4.566   3.960 -1.6464  0.1714 -0.0315
 1128THY    CP228182   5.239   4.744   3.907  0.2814 -0.2904  0.2241
 1128THY    HP228183   5.142   4.701   3.934  0.3707 -1.1256 -0.7248
 1128THY    HP328184   5.233   4.851   3.930  1.1717  0.1759 -1.4948
 1128THY    HP428185   5.240   4.732   3.798 -0.8213  0.5632  0.0995
 1128THY    CP328186   5.491   4.706   3.937  0.0653  0.3774  0.1948
 1128THY    HP528187   5.508   4.814   3.945 -0.1975  0.5269 -1.0672
 1128THY    HP628188   5.563   4.651   3.999  1.2783  1.0042 -0.6140
 1128THY    HP728189   5.510   4.680   3.832  0.1051 -2.3530  0.7846
 1128THY    CA328190   5.369   4.812   4.194  0.3785  1.2796 -0.0620
 1128THY    HA328191   5.405   4.891   4.129 -2.8950  3.2277  0.2935
 1128THY    CA428192   5.351   4.826   4.334  0.7754  0.0157  0.2689
 1128THY    HA428193   5.367   4.927   4.372  1.1215  0.7215 -1.5979
 1128THY    CA528194   5.323   4.713   4.409 -0.2120 -0.2452 -0.1213
 1128THY    CM128195   5.302   4.739   4.555 -0.0482 -0.0034  0.5927
 1128THY    HM128196   5.376   4.808   4.594  0.2815  1.0430 -1.7216
 1128THY    HM228197   5.200   4.777   4.572 -0.5441 -0.4039 -1.2824
 1128THY    HM328198   5.323   4.655   4.622  1.7772  0.2057  0.3134
 1128THY    CA628199   5.304   4.585   4.356 -0.4150  0.2015  0.5419
 1128THY    HA628200   5.275   4.503   4.420 -0.3095 -0.5207 -0.3067
 1129THY      O28201   5.855   9.160   3.859 -0.1939  0.0967 -0.0780
 1129THY     HO28202   5.853   9.172   3.763 -1.1564 -0.8384 -0.1974
 1129THY    CA128203   5.818   9.033   3.881  0.2957  0.1412 -0.6277
 1129THY    CA228204   5.717   8.996   3.982 -0.3211  0.8833  0.1575
 1129THY    CP128205   5.663   9.100   4.073 -0.3215 -0.5186  0.2795
 1129THY    HP128206   5.672   9.202   4.035 -1.3904 -1.4169 -2.6726
 1129THY    CP228207   5.513   9.086   4.106 -0.7232 -0.2911  0.0964
 1129THY    HP228208   5.464   9.083   4.008 -0.5480  0.6414 -0.0263
 1129THY    HP328209   5.488   8.998   4.166  1.6241 -0.5787  0.7583
 1129THY    HP428210   5.483   9.174   4.164 -0.0132 -0.6273  0.9981
 1129THY    CP328211   5.731   9.095   4.208  0.8145 -0.2278 -0.1680
 1129THY    HP528212   5.701   9.169   4.283 -0.4573 -0.6591 -0.2319
 1129THY    HP628213   5.687   9.009   4.261 -0.4976  1.7904  2.2719
 1129THY    HP728214   5.839   9.091   4.188  0.7917 -0.6935 -0.2204
 1129THY    CA328215   5.689   8.855   3.991 -0.0427 -0.0539 -0.6881
 1129THY    HA328216   5.609   8.829   4.060 -1.7865  2.9280 -1.3926
 1129THY    CA428217   5.749   8.755   3.910 -0.3404 -0.5863  0.2974
 1129THY    HA428218   5.724   8.650   3.920  0.6153 -0.9364 -0.7631
 1129THY    CA528219   5.837   8.802   3.809 -0.0402  0.0616  0.6201
 1129THY    CM128220   5.900   8.695   3.720 -0.4285  0.5185  0.2832
 1129THY    HM128221   5.920   8.604   3.779  0.4796  1.8754  2.1820
 1129THY    HM228222   5.833   8.673   3.636  1.3888 -2.4465 -0.5627
 1129THY    HM328223   5.997   8.717   3.673 -0.1442 -0.0729  0.5759
 1129THY    CA628224   5.870   8.939   3.794 -0.1002 -0.1432  0.3681
 1129THY    HA628225   5.911   8.965   3.696 -1.0049 -2.1728 -0.6118
 1130THY      O28226   1.290   2.081   7.296  1.0091 -0.2402 -0.0048
 1130THY     HO28227   1.290   1.998   7.346 -0.7922 -0.5316 -0.4122
 1130THY    CA128228   1.329   2.035   7.180 -0.0459  0.1781  0.1811
 1130THY    CA228229   1.382   2.127   7.086  0.8027  0.2760 -0.0903
 1130THY    CP128230   1.352   2.280   7.099 -0.0690 -0.2633  0.3742
 1130THY    HP128231   1.283   2.305   7.180 -0.1734  1.7574 -0.2818
 1130THY    CP228232   1.476   2.363   7.101 -0.2031 -0.4104  0.4292
 1130THY    HP228233   1.464   2.461   7.148  0.5167 -0.6774  1.2028
 1130THY    HP328234   1.545   2.302   7.162  0.1990 -0.0068  0.3860
 1130THY    HP428235   1.529   2.369   7.005  1.3964  2.4221  1.3663
 1130THY    CP328236   1.279   2.320   6.973 -0.1839 -0.5773 -0.7008
 1130THY    HP528237   1.349   2.356   6.897  2.0229  1.2599  1.9893
 1130THY    HP628238   1.206   2.252   6.927  0.2094 -1.2433 -0.3563
 1130THY    HP728239   1.232   2.415   7.001 -2.0228 -0.4626 -3.6460
 1130THY    CA328240   1.419   2.071   6.960 -0.4351 -0.5569  0.2637
 1130THY    HA328241   1.451   2.132   6.876 -1.5646  0.7270  0.7160
 1130THY    CA428242   1.419   1.935   6.940 -0.3688  0.7174  0.2386
 1130THY    HA428243   1.444   1.893   6.842 -2.3550 -0.9883  0.3664
 1130THY    CA528244   1.379   1.847   7.043  0.9429 -1.4512  0.1426
 1130THY    CM128245   1.362   1.697   7.018  0.6098  0.3643 -0.1921
 1130THY    HM128246   1.441   1.644   7.073 -1.5188 -1.2849  1.4544
 1130THY    HM228247   1.277   1.647   7.064 -0.4570  1.0765 -1.3246
 1130THY    HM328248   1.371   1.671   6.912 -2.6007 -0.6024 -0.3342
 1130THY    CA628249   1.320   1.896   7.155 -0.1886 -0.0017 -0.3299
 1130THY    HA628250   1.272   1.826   7.223 -0.4405  2.6347  2.4091
 1131THY      O28251   8.449   7.426   1.694 -0.1762  0.1785  0.3037
 1131THY     HO28252   8.374   7.401   1.638  0.3269  2.0524 -1.3234
 1131THY    CA128253   8.526   7.514   1.626 -0.0702  0.8362  0.0096
 1131THY    CA228254   8.597   7.624   1.679  0.0907  0.1057  0.6991
 1131THY    CP128255   8.596   7.640   1.834 -0.1933  0.7954 -0.1296
 1131THY    HP128256   8.552   7.551   1.881  2.1960 -0.0191  0.6847
 1131THY    CP228257   8.737   7.650   1.885 -0.3278 -0.5545  0.1461
 1131THY    HP228258   8.794   7.562   1.854  2.1040  0.7915  0.5525
 1131THY    HP328259   8.800   7.728   1.843  0.4706 -1.8013 -1.0582
 1131THY    HP428260   8.732   7.654   1.994 -2.1004  0.7678  0.0595
 1131THY    CP328261   8.527   7.769   1.871 -0.3992  0.0402 -0.8385
 1131THY    HP528262   8.428   7.770   1.825  0.8062 -0.4775 -3.6165
 1131THY    HP628263   8.514   7.786   1.979  2.6981  0.9172 -0.4929
 1131THY    HP728264   8.579   7.855   1.826  1.4522 -0.3362  0.4402
 1131THY    CA328265   8.671   7.708   1.595 -0.2204 -0.7210  0.7506
 1131THY    HA328266   8.734   7.785   1.638  0.1585  0.2915 -1.4498
 1131THY    CA428267   8.655   7.692   1.458  0.0874  0.9268  0.4020
 1131THY    HA428268   8.714   7.754   1.390 -1.0490  0.3939 -1.1337
 1131THY    CA528269   8.573   7.592   1.406 -0.4547  0.1520  0.1040
 1131THY    CM128270   8.569   7.571   1.256  0.1835  0.2274 -0.2244
 1131THY    HM128271   8.469   7.555   1.215 -0.8791  0.9723  1.9010
 1131THY    HM228272   8.606   7.657   1.199 -0.6804 -0.6239 -2.1504
 1131THY    HM328273   8.621   7.477   1.235  1.4969  0.8940 -0.0700
 1131THY    CA628274   8.509   7.508   1.489  0.2990  0.3558  0.0683
 1131THY    HA628275   8.443   7.428   1.455  0.7141  0.3588 -0.7937
 1132THY      O28276   2.945   9.757   1.316  0.0086 -0.5918 -0.1036
 1132THY     HO28277   2.937   9.660   1.322  1.9924 -0.8469 -0.8343
 1132THY    CA128278   2.865   9.812   1.411 -0.8656  0.0556  0.2169
 1132THY    CA228279   2.857   9.948   1.450 -0.4393  0.1860 -0.2731
 1132THY    CP128280   2.960  10.051   1.396 -0.1943  0.9129 -0.5401
 1132THY    HP128281   2.987  10.013   1.296  0.9624  0.9104 -0.2379
 1132THY    CP228282   2.909  10.192   1.395 -0.3023  0.1782 -0.0754
 1132THY    HP228283   2.973  10.267   1.346 -0.2933  0.1582 -0.0944
 1132THY    HP328284   2.809  10.200   1.352 -0.9252  2.2845  1.5891
 1132THY    HP428285   2.886  10.232   1.495  1.6830 -0.1727  0.5595
 1132THY    CP328286   3.085  10.044   1.490  0.9617 -0.5982 -0.2136
 1132THY    HP528287   3.139  10.139   1.491  0.7989 -0.5067  0.1714
 1132THY    HP628288   3.051  10.045   1.594  1.2215  3.3709 -0.0136
 1132THY    HP728289   3.141   9.950   1.480  0.7150 -0.8455  0.6262
 1132THY    CA328290   2.749   9.991   1.537 -0.3966  0.3167  0.2355
 1132THY    HA328291   2.734  10.097   1.557  0.9780  1.0423 -2.1824
 1132THY    CA428292   2.658   9.894   1.584  0.3903 -0.6379  0.1747
 1132THY    HA428293   2.571   9.931   1.638 -0.7601 -1.1932 -1.2194
 1132THY    CA528294   2.672   9.766   1.542  0.8772  0.1564  0.0549
 1132THY    CM128295   2.570   9.676   1.590  0.2287  0.2557 -0.5828
 1132THY    HM128296   2.484   9.730   1.631  2.0557  1.8550  1.4196
 1132THY    HM228297   2.532   9.611   1.511 -1.1474  0.3521 -0.0247
 1132THY    HM328298   2.605   9.622   1.679 -2.8407 -1.0053 -0.0139
 1132THY    CA628299   2.773   9.725   1.462  0.1476  0.3328 -0.4947
 1132THY    HA628300   2.774   9.620   1.434 -2.2559  0.1697 -0.1323
 1133THY      O28301   3.931   6.286   9.122  0.1274 -0.0010 -0.0451
 1133THY     HO28302   3.927   6.191   9.143  0.1239 -0.0339 -0.1957
 1133THY    CA128303   4.029   6.329   9.208  0.3528 -0.0365 -0.9436
 1133THY    CA228304   4.042   6.458   9.240 -0.0421  0.5618  0.2250
 1133THY    CP128305   3.949   6.561   9.186  1.2142  0.2792  0.7180
 1133THY    HP128306   3.881   6.522   9.110  3.0779 -1.2346 -0.2401
 1133THY    CP228307   3.870   6.636   9.299 -0.4219  0.6364  0.7503
 1133THY    HP228308   3.792   6.703   9.261  0.2572  2.0073  1.6770
 1133THY    HP328309   3.839   6.580   9.388  0.2334  1.6271  1.6315
 1133THY    HP428310   3.939   6.710   9.342 -0.7268  2.0003 -0.9772
 1133THY    CP328311   4.028   6.660   9.097  0.2336  0.0620 -0.0516
 1133THY    HP528312   4.079   6.610   9.014  1.0192 -0.1224  0.5291
 1133THY    HP628313   3.958   6.726   9.046  1.5256  1.0129 -0.6565
 1133THY    HP728314   4.094   6.718   9.163 -2.1333  0.7440  1.8318
 1133THY    CA328315   4.151   6.495   9.318 -0.2503 -0.3387 -0.5750
 1133THY    HA328316   4.163   6.599   9.347  3.1070 -0.9823  0.8459
 1133THY    CA428317   4.253   6.400   9.357 -0.3117 -0.3452  0.1606
 1133THY    HA428318   4.337   6.427   9.421 -1.7317 -0.3373  2.1111
 1133THY    CA528319   4.232   6.268   9.321 -0.4741  0.2681  0.2617
 1133THY    CM128320   4.339   6.166   9.358 -0.0962 -0.9182 -0.4400
 1133THY    HM128321   4.441   6.187   9.324 -0.2850 -2.5279 -2.1628
 1133THY    HM228322   4.340   6.154   9.467 -1.7857 -1.0865 -0.4161
 1133THY    HM328323   4.316   6.067   9.318 -1.2768 -0.3910 -1.1265
 1133THY    CA628324   4.123   6.233   9.245 -0.0976  0.2673 -0.7848
 1133THY    HA628325   4.118   6.128   9.218 -0.5320 -0.3026  1.3105
 1134THY      O28326   0.317   9.180   5.972 -0.3646 -0.2080 -0.5150
 1134THY     HO28327   0.263   9.254   5.939 -0.1176 -0.2197 -0.9458
 1134THY    CA128328   0.229   9.095   6.019  0.4524  0.1154  0.5107
 1134THY    CA228329   0.252   8.955   6.031 -0.3474 -0.2749 -0.4000
 1134THY    CP128330   0.385   8.896   5.989 -0.4220 -0.2367  0.8148
 1134THY    HP128331   0.437   8.977   5.937 -0.2883 -0.1089  1.1457
 1134THY    CP228332   0.480   8.845   6.100  0.5052 -0.1731 -0.3291
 1134THY    HP228333   0.443   8.749   6.139  0.4831 -0.6818 -1.5526
 1134THY    HP328334   0.570   8.825   6.042 -0.1523  2.0467 -2.2756
 1134THY    HP428335   0.489   8.923   6.176 -2.6428 -0.7707  0.7929
 1134THY    CP328336   0.353   8.793   5.884 -0.6859 -0.8912 -0.4292
 1134THY    HP528337   0.444   8.764   5.829 -0.2434 -1.7952  0.7447
 1134THY    HP628338   0.307   8.704   5.929  1.6561 -1.9357  0.0443
 1134THY    HP728339   0.283   8.845   5.817 -3.7090  0.2730  3.3073
 1134THY    CA328340   0.147   8.873   6.090 -0.2592 -0.3197  0.5313
 1134THY    HA328341   0.156   8.769   6.118  1.8868 -0.6275 -1.1137
 1134THY    CA428342   0.024   8.938   6.128  0.0688 -0.0297 -0.2551
 1134THY    HA428343  -0.057   8.884   6.176 -0.1761 -1.0903 -1.8013
 1134THY    CA528344   0.007   9.078   6.102 -0.1784  0.5552  0.1010
 1134THY    CM128345  -0.128   9.143   6.140 -0.2044 -0.2461  0.2476
 1134THY    HM128346  -0.189   9.156   6.050 -0.6514 -1.8964  0.2757
 1134THY    HM228347  -0.185   9.081   6.211 -0.0310 -0.3348  0.3092
 1134THY    HM328348  -0.112   9.248   6.168  1.8746 -0.1205 -1.1925
 1134THY    CA628349   0.107   9.148   6.050  0.3026  0.1384  0.6324
 1134THY    HA628350   0.087   9.254   6.035  2.0441  0.0808 -3.3543
 1135THY      O28351   7.167   2.529   5.437 -1.1134 -0.2832 -0.2905
 1135THY     HO28352   7.176   2.439   5.403 -2.3001 -0.3698 -0.4095
 1135THY    CA128353   7.222   2.541   5.565 -0.4581  0.6958 -0.5833
 1135THY    CA228354   7.202   2.658   5.645  0.0210 -0.4968  0.2947
 1135THY    CP128355   7.135   2.778   5.596 -0.1231 -0.9806  0.4867
 1135THY    HP128356   7.148   2.781   5.487  2.7635  1.2735  0.7906
 1135THY    CP228357   6.987   2.772   5.633  0.2473 -0.1820 -0.1151
 1135THY    HP228358   6.983   2.772   5.743  1.5216 -2.0741 -0.0169
 1135THY    HP328359   6.936   2.854   5.581  2.9206  3.1663  2.0874
 1135THY    HP428360   6.950   2.674   5.602  0.0342 -0.0209 -0.3724
 1135THY    CP328361   7.188   2.915   5.634 -0.3725  0.4882  0.5390
 1135THY    HP528362   7.286   2.924   5.586 -1.1674  0.9446 -1.0827
 1135THY    HP628363   7.118   2.995   5.606 -0.4523 -0.3834 -2.0419
 1135THY    HP728364   7.204   2.928   5.742 -1.0777 -1.1205  0.8754
 1135THY    CA328365   7.242   2.658   5.781  0.1907  0.7315  0.0496
 1135THY    HA328366   7.221   2.748   5.839 -0.0914 -0.2101  1.4550
 1135THY    CA428367   7.326   2.547   5.820  0.4917  0.3417 -0.4716
 1135THY    HA428368   7.355   2.543   5.924 -2.3396  1.3580  0.4580
 1135THY    CA528369   7.333   2.423   5.748  1.2910 -0.1812  0.0565
 1135THY    CM128370   7.389   2.310   5.818  0.3375 -0.0481 -0.2361
 1135THY    HM128371   7.483   2.337   5.867 -0.9918  1.2824  1.7329
 1135THY    HM228372   7.315   2.295   5.898  0.8242  0.7151  0.3747
 1135THY    HM328373   7.378   2.223   5.752 -1.0869  0.5979 -0.8862
 1135THY    CA628374   7.278   2.422   5.617  0.1981 -0.1259 -0.0000
 1135THY    HA628375   7.275   2.329   5.561 -1.7598 -1.4035  2.0609
 1136THY      O28376   7.188   7.442   9.702  0.1984 -0.4564 -0.6363
 1136THY     HO28377   7.235   7.359   9.721  0.7308  0.2477  1.3766
 1136THY    CA128378   7.143   7.446   9.578 -0.0052  0.1820  0.5077
 1136THY    CA228379   7.091   7.563   9.514 -0.0244 -0.5063  0.2886
 1136THY    CP128380   7.086   7.702   9.581 -0.2944 -0.3979  0.1364
 1136THY    HP128381   7.141   7.691   9.675 -1.6624 -1.0763  0.8942
 1136THY    CP228382   7.160   7.805   9.496 -0.3421 -0.0561  0.1927
 1136THY    HP228383   7.107   7.845   9.408 -0.1987  0.3894  0.3061
 1136THY    HP328384   7.204   7.893   9.544  0.1237  0.7302 -1.6018
 1136THY    HP428385   7.249   7.756   9.456 -0.4317  0.0578 -0.1555
 1136THY    CP328386   6.939   7.752   9.620  0.0945  0.0912  0.8221
 1136THY    HP528387   6.880   7.666   9.653 -0.1479 -0.1695 -0.2386
 1136THY    HP628388   6.943   7.832   9.694  1.2521  1.1494 -0.3216
 1136THY    HP728389   6.897   7.790   9.526 -0.3161 -0.1148  0.9194
 1136THY    CA328390   7.039   7.548   9.386  0.3370 -0.6980  0.0238
 1136THY    HA328391   6.999   7.634   9.334  0.3499  0.9552  2.5598
 1136THY    CA428392   7.030   7.425   9.325 -0.1742 -0.2683  0.1560
 1136THY    HA428393   6.976   7.430   9.232 -2.3921 -3.3905  1.0927
 1136THY    CA528394   7.073   7.313   9.385  0.2641 -0.1674  0.6191
 1136THY    CM128395   7.060   7.188   9.302 -0.5179 -0.0677  0.0600
 1136THY    HM128396   7.133   7.123   9.352  1.0017  0.6598 -1.1215
 1136THY    HM228397   6.961   7.141   9.297 -0.5595  0.1504 -1.7047
 1136THY    HM328398   7.097   7.197   9.199 -0.5013 -0.4973  0.0250
 1136THY    CA628399   7.128   7.318   9.512 -0.4187 -0.2480 -0.2279
 1136THY    HA628400   7.165   7.231   9.565  1.4018  1.8293  2.1076
 1137THY      O28401   5.667   8.103   9.392  0.2138  0.3904 -0.3630
 1137THY     HO28402   5.584   8.103   9.443 -1.0270  0.4796 -2.2844
 1137THY    CA128403   5.662   8.217   9.324  0.0030 -0.0487  0.4515
 1137THY    CA228404   5.788   8.284   9.296  0.4637  0.1722 -0.2333
 1137THY    CP128405   5.923   8.216   9.332 -0.3020  0.3127 -0.0167
 1137THY    HP128406   5.906   8.123   9.386  3.6303 -0.5458  0.0131
 1137THY    CP228407   6.000   8.175   9.203  0.0243 -0.6696  0.2601
 1137THY    HP228408   6.104   8.142   9.216  0.1028 -0.8311 -0.6869
 1137THY    HP328409   5.940   8.111   9.137  1.0933 -1.2040 -0.2100
 1137THY    HP428410   6.007   8.269   9.147 -1.2290  1.1069  2.8613
 1137THY    CP328411   6.017   8.299   9.421 -0.0684 -0.4885 -0.3859
 1137THY    HP528412   6.050   8.395   9.378  1.6458 -1.2903 -0.9647
 1137THY    HP628413   5.961   8.312   9.514 -0.8582 -1.2186 -0.7467
 1137THY    HP728414   6.109   8.244   9.446 -0.7404 -1.6380 -0.3898
 1137THY    CA328415   5.781   8.407   9.238  0.4661 -0.6603 -0.6438
 1137THY    HA328416   5.868   8.468   9.214 -1.4593  2.5239 -0.1110
 1137THY    CA428417   5.664   8.462   9.200  0.5403 -0.2057 -0.3242
 1137THY    HA428418   5.659   8.562   9.157  1.4368 -1.0093 -2.4106
 1137THY    CA528419   5.542   8.393   9.218 -0.0563  0.2817  0.2568
 1137THY    CM128420   5.415   8.438   9.157 -0.0320 -0.0327  0.7786
 1137THY    HM128421   5.392   8.375   9.071  0.3265  1.5150 -0.5096
 1137THY    HM228422   5.323   8.427   9.217 -1.1400  0.4530 -0.7632
 1137THY    HM328423   5.422   8.542   9.121  1.7678 -0.5433 -0.4475
 1137THY    CA628424   5.543   8.272   9.285 -0.5995  0.4557  0.1553
 1137THY    HA628425   5.453   8.213   9.300 -0.8776  0.9987  0.6983
 1138THY      O28426   2.095   4.356   2.229  0.0367 -0.6738  0.5112
 1138THY     HO28427   2.007   4.348   2.270  0.7063 -2.0530  1.7490
 1138THY    CA128428   2.103   4.468   2.150  0.3276 -0.7556 -0.6964
 1138THY    CA228429   2.195   4.481   2.039  0.0602  0.3730  0.3578
 1138THY    CP128430   2.294   4.371   2.005 -0.0938 -0.4189  0.7250
 1138THY    HP128431   2.271   4.287   2.072 -1.6265  0.2033  1.0334
 1138THY    CP228432   2.255   4.325   1.859 -0.3061 -0.1607 -0.1448
 1138THY    HP228433   2.150   4.296   1.846 -0.1100 -0.3314 -1.4335
 1138THY    HP328434   2.277   4.402   1.785 -2.2219 -0.7535 -1.4226
 1138THY    HP428435   2.313   4.236   1.833  1.2030  0.4554  0.9931
 1138THY    CP328436   2.444   4.414   2.016 -0.5774 -0.3735 -0.2533
 1138THY    HP528437   2.475   4.427   2.120 -0.5386 -2.1498 -0.0133
 1138THY    HP628438   2.507   4.332   1.981  1.0611  0.0778  1.4838
 1138THY    HP728439   2.453   4.502   1.951  1.0064  1.7550  2.6300
 1138THY    CA328440   2.189   4.604   1.968  0.0158 -0.1582  0.4886
 1138THY    HA328441   2.252   4.617   1.881  1.3737  1.1315  1.6080
 1138THY    CA428442   2.085   4.695   1.992 -0.5066  0.6745 -0.9546
 1138THY    HA428443   2.077   4.784   1.931  0.3891  1.4420  0.0109
 1138THY    CA528444   1.998   4.680   2.103 -0.3504  0.2221  0.0112
 1138THY    CM128445   1.900   4.786   2.145 -0.5565 -0.0788  0.1999
 1138THY    HM128446   1.797   4.748   2.136 -0.2255 -1.3056  1.2922
 1138THY    HM228447   1.909   4.808   2.252 -3.1303  1.3972  0.2138
 1138THY    HM328448   1.910   4.873   2.080  1.3666 -1.1154 -0.9828
 1138THY    CA628449   2.011   4.566   2.182 -0.2197 -0.3114 -0.2388
 1138THY    HA628450   1.947   4.559   2.270 -0.4459  0.7007 -0.3176
 1139THY      O28451   1.660   5.082   9.838  0.2539 -0.2456  0.9083
 1139THY     HO28452   1.632   5.005   9.891  1.2455 -0.3908  1.2304
 1139THY    CA128453   1.608   5.192   9.901 -0.4247 -0.2132  0.3213
 1139THY    CA228454   1.646   5.319   9.862  0.2368  0.2864 -0.0357
 1139THY    CP128455   1.730   5.351   9.742 -0.0906  0.2422 -0.2045
 1139THY    HP128456   1.765   5.258   9.695 -0.3535  0.6691 -1.2637
 1139THY    CP228457   1.660   5.448   9.642 -0.4337  0.9418 -0.1965
 1139THY    HP228458   1.731   5.480   9.566  1.0372  0.0347  0.7430
 1139THY    HP328459   1.586   5.391   9.585 -0.0004  0.5310 -0.3573
 1139THY    HP428460   1.623   5.539   9.691  2.1982  1.1576  1.6111
 1139THY    CP328461   1.862   5.411   9.782  0.5284 -0.4465  0.4620
 1139THY    HP528462   1.840   5.516   9.808 -1.5882 -0.0124 -2.6134
 1139THY    HP628463   1.897   5.364   9.875 -1.6794 -0.6582  1.2507
 1139THY    HP728464   1.938   5.392   9.705 -0.2240  0.4035 -0.5136
 1139THY    CA328465   1.577   5.424   9.921 -0.3842  0.9081  0.7029
 1139THY    HA328466   1.587   5.524   9.881 -0.3809  0.7476  0.2870
 1139THY    CA428467   1.496   5.398  10.031 -0.4819 -0.1354 -0.1514
 1139THY    HA428468   1.456   5.480  10.089  0.8061  0.9312 -0.7065
 1139THY    CA528469   1.469   5.271  10.073  0.5887  0.4137 -0.0995
 1139THY    CM128470   1.370   5.246  10.192  0.0134  0.2637  0.7134
 1139THY    HM128471   1.411   5.167  10.256  0.7426 -0.0493 -0.1181
 1139THY    HM228472   1.358   5.339  10.248 -0.7636  0.4276  0.2796
 1139THY    HM328473   1.272   5.215  10.155  0.6195 -0.8815 -0.0226
 1139THY    CA628474   1.510   5.169  10.000 -0.9234  1.2792 -0.0330
 1139THY    HA628475   1.489   5.068  10.034 -1.4327  1.3583 -0.1068
 1140THY      O28476   4.286   0.862   5.340 -0.3684 -0.3344  0.1878
 1140THY     HO28477   4.282   0.835   5.247 -0.3526  0.6353 -0.1129
 1140THY    CA128478   4.233   0.986   5.328  0.2175 -0.2717  1.1898
 1140THY    CA228479   4.284   1.090   5.399 -0.1316 -0.2097 -0.3095
 1140THY    CP128480   4.418   1.086   5.479  0.0004 -0.3217 -0.1027
 1140THY    HP128481   4.442   0.984   5.513  0.2486  0.3794  1.9516
 1140THY    CP228482   4.533   1.124   5.391 -0.2783 -0.6996  0.9860
 1140THY    HP228483   4.631   1.103   5.434  0.7153  2.0753  0.2864
 1140THY    HP328484   4.532   1.077   5.292  1.9367  0.4458  0.3573
 1140THY    HP428485   4.541   1.232   5.376  0.4181 -1.0865 -2.2346
 1140THY    CP328486   4.423   1.179   5.602  0.2673  0.1262  0.3604
 1140THY    HP528487   4.431   1.285   5.574  0.4669  0.1800  0.6189
 1140THY    HP628488   4.336   1.160   5.666  1.0538 -3.8992  0.4862
 1140THY    HP728489   4.514   1.153   5.657 -1.0124  1.5632  3.4042
 1140THY    CA328490   4.219   1.211   5.396  0.2058 -0.4014  0.2541
 1140THY    HA328491   4.254   1.306   5.436 -1.7103  1.3496 -1.9043
 1140THY    CA428492   4.098   1.213   5.333 -0.0937 -1.2444 -0.6310
 1140THY    HA428493   4.045   1.307   5.349  1.7831 -0.2579  0.0817
 1140THY    CA528494   4.051   1.116   5.249  0.1988 -0.1089 -0.1771
 1140THY    CM128495   3.920   1.135   5.187 -0.1563  0.1675  0.2707
 1140THY    HM128496   3.860   1.049   5.219 -0.9438 -0.2843 -2.1970
 1140THY    HM228497   3.874   1.231   5.211 -1.0124 -0.1479 -0.0850
 1140THY    HM328498   3.921   1.129   5.077  1.2540  1.4931  0.1832
 1140THY    CA628499   4.117   0.996   5.245  0.4213 -0.5120  0.0903
 1140THY    HA628500   4.071   0.917   5.186 -0.4305  1.1283 -1.5638
 1141THY      O28501   3.733   9.616   4.577  0.0237  0.2202 -0.0712
 1141THY     HO28502   3.716   9.525   4.547 -1.9469  1.2454 -2.3517
 1141THY    CA128503   3.873   9.632   4.580  0.6383  0.1523  0.0610
 1141THY    CA228504   3.930   9.722   4.673 -0.1546 -0.0523 -0.5049
 1141THY    CP128505   3.838   9.799   4.767  0.3050  0.6087 -0.1348
 1141THY    HP128506   3.749   9.740   4.791 -0.2552  1.1719 -0.7728
 1141THY    CP228507   3.906   9.829   4.905  0.2285  0.2293  0.2864
 1141THY    HP228508   3.961   9.735   4.919 -0.4872 -0.3993 -1.0075
 1141THY    HP328509   3.980   9.909   4.898 -1.7311  2.1577  0.7214
 1141THY    HP428510   3.829   9.842   4.982 -1.1521  0.2551 -1.0674
 1141THY    CP328511   3.795   9.931   4.701 -0.5780  0.7350  0.1725
 1141THY    HP528512   3.774  10.009   4.776 -3.4954  2.7964 -2.5590
 1141THY    HP628513   3.880   9.964   4.640 -0.9864  0.0971 -0.7644
 1141THY    HP728514   3.709   9.925   4.634 -0.8967  2.7798  0.3521
 1141THY    CA328515   4.075   9.739   4.668 -0.2276 -0.3815  0.1302
 1141THY    HA328516   4.119   9.824   4.719 -1.3690 -0.0435  0.5933
 1141THY    CA428517   4.147   9.675   4.568  0.2754 -1.2581 -0.2006
 1141THY    HA428518   4.253   9.694   4.554  1.0115 -2.9742  2.3553
 1141THY    CA528519   4.080   9.591   4.482  0.2561 -0.0605 -0.4020
 1141THY    CM128520   4.167   9.524   4.383 -0.4373  0.7114 -0.2954
 1141THY    HM128521   4.134   9.420   4.374 -2.0657  1.1909 -0.1440
 1141THY    HM228522   4.169   9.569   4.283  4.6353  0.9171 -0.3550
 1141THY    HM328523   4.273   9.514   4.411 -0.0898  2.6001 -0.8155
 1141THY    CA628524   3.948   9.560   4.489 -0.0571 -0.1596 -0.2991
 1141THY    HA628525   3.905   9.478   4.432 -0.7988  0.3125 -0.4264
 1142THY      O28526   3.235   0.145   3.330 -0.2710  0.1510  0.0495
 1142THY     HO28527   3.298   0.071   3.341 -1.7763 -1.4354 -1.4892
 1142THY    CA128528   3.187   0.193   3.444  0.0733 -0.2879  0.9374
 1142THY    CA228529   3.129   0.319   3.451  0.6244 -0.5334 -0.0270
 1142THY    CP128530   3.140   0.405   3.328 -0.6779  0.1684 -0.0519
 1142THY    HP128531   3.137   0.348   3.234  1.1036 -0.9279  0.5096
 1142THY    CP228532   3.019   0.490   3.294 -0.2916 -0.1416 -0.0818
 1142THY    HP228533   3.047   0.534   3.198  1.1544 -0.1465  0.3200
 1142THY    HP328534   2.932   0.422   3.296 -0.5555  0.1983  0.4218
 1142THY    HP428535   3.007   0.572   3.366 -0.4453  2.4495 -2.8907
 1142THY    CP328536   3.266   0.496   3.331 -0.3227  0.5539 -0.4176
 1142THY    HP528537   3.282   0.550   3.237 -2.7760 -2.8866 -3.0679
 1142THY    HP628538   3.272   0.566   3.416  0.8962 -0.3243  0.2418
 1142THY    HP728539   3.356   0.434   3.340 -1.0440 -0.2489  2.5199
 1142THY    CA328540   3.081   0.369   3.575 -0.7581 -0.5092 -0.9050
 1142THY    HA328541   3.040   0.469   3.586  1.2296  0.1693  1.2972
 1142THY    CA428542   3.110   0.296   3.691 -0.0360  0.5292 -0.5464
 1142THY    HA428543   3.082   0.326   3.792  2.5054  0.0312  0.3816
 1142THY    CA528544   3.166   0.171   3.679  0.3620  0.1735 -0.3878
 1142THY    CM128545   3.191   0.094   3.802 -0.0366  0.1169 -0.2907
 1142THY    HM128546   3.137   0.127   3.892  0.5290  1.3836 -0.3878
 1142THY    HM228547   3.167  -0.010   3.778 -0.6899  0.3967 -0.9115
 1142THY    HM328548   3.296   0.092   3.831  0.0353  0.9883 -0.4715
 1142THY    CA628549   3.203   0.119   3.556 -0.7808  0.1633 -0.2438
 1142THY    HA628550   3.244   0.020   3.538  0.6098  0.3532  1.6446
 1143THY      O28551   5.887   9.406   4.015 -0.4736 -0.4385 -0.1117
 1143THY     HO28552   5.857   9.340   3.950 -1.8760 -2.2001  2.1636
 1143THY    CA128553   5.774   9.475   4.052 -0.4108 -0.2785 -0.4573
 1143THY    CA228554   5.765   9.553   4.163  0.5744 -0.0520 -0.3370
 1143THY    CP128555   5.868   9.548   4.274 -0.0658  0.3538 -0.2466
 1143THY    HP128556   5.952   9.484   4.245 -1.0638 -1.7508  1.2399
 1143THY    CP228557   5.938   9.683   4.293 -0.0026  0.0929  0.1716
 1143THY    HP228558   6.022   9.665   4.361 -0.8016 -2.4580  0.5668
 1143THY    HP328559   5.979   9.716   4.197 -0.0387 -1.0913 -0.2605
 1143THY    HP428560   5.867   9.756   4.335 -1.2478 -1.4587  0.8883
 1143THY    CP328561   5.820   9.494   4.409  0.1715  0.6469  0.0548
 1143THY    HP528562   5.905   9.507   4.477  2.4809  1.9818 -2.8843
 1143THY    HP628563   5.738   9.556   4.449 -1.2024 -1.7782  1.2817
 1143THY    HP728564   5.793   9.388   4.404  0.5994  0.5392  0.0566
 1143THY    CA328565   5.644   9.624   4.190  0.3104 -0.1348  0.2537
 1143THY    HA328566   5.639   9.683   4.281  1.1941  0.3274  0.0109
 1143THY    CA428567   5.541   9.629   4.092 -0.0972  0.1898 -0.2794
 1143THY    HA428568   5.453   9.692   4.104 -1.8801 -2.3588  0.8834
 1143THY    CA528569   5.560   9.555   3.973 -0.5917  1.1832 -0.0366
 1143THY    CM128570   5.437   9.554   3.877  0.2026 -0.1622  0.4658
 1143THY    HM128571   5.364   9.478   3.907 -0.8338  0.6227  0.0168
 1143THY    HM228572   5.370   9.641   3.887 -0.7569 -0.8135 -0.0964
 1143THY    HM328573   5.469   9.538   3.773  0.4121 -0.3811  0.5648
 1143THY    CA628574   5.676   9.486   3.956 -0.1041 -0.1683  0.4630
 1143THY    HA628575   5.699   9.433   3.864  1.5221 -0.0890  0.8019
 1144THY      O28576   2.539   8.251   8.786  0.7063 -0.2384  0.1800
 1144THY     HO28577   2.527   8.185   8.716 -0.6599 -1.3670  1.4228
 1144THY    CA128578   2.638   8.208   8.868  0.3473 -1.0891  0.4990
 1144THY    CA228579   2.660   8.276   8.993 -0.3067  1.1295 -0.4627
 1144THY    CP128580   2.585   8.401   9.026  0.5131 -0.7550  0.4805
 1144THY    HP128581   2.494   8.421   8.968  0.8426 -0.6805 -0.0260
 1144THY    CP228582   2.517   8.393   9.165 -0.4690 -0.1160  0.3659
 1144THY    HP228583   2.582   8.338   9.234 -0.1282 -0.4016 -0.1770
 1144THY    HP328584   2.504   8.488   9.218 -0.2714  0.3263 -0.3581
 1144THY    HP428585   2.430   8.327   9.166 -0.7223  0.0158 -2.9064
 1144THY    CP328586   2.663   8.526   9.006 -0.7477  0.1659 -0.3064
 1144THY    HP528587   2.610   8.618   9.035 -1.4380 -0.8102  1.7399
 1144THY    HP628588   2.759   8.528   9.058  0.3500  1.0012 -2.2657
 1144THY    HP728589   2.691   8.534   8.900  0.5259 -0.5840 -0.0398
 1144THY    CA328590   2.763   8.217   9.081  0.7168  0.2721  0.0857
 1144THY    HA328591   2.770   8.251   9.184  0.8163 -0.3758  0.2929
 1144THY    CA428592   2.833   8.114   9.036 -0.2178  0.2202 -0.3869
 1144THY    HA428593   2.911   8.075   9.100 -1.0423  1.8111  1.7062
 1144THY    CA528594   2.800   8.044   8.918  0.5634  0.1276 -0.2053
 1144THY    CM128595   2.886   7.927   8.879 -0.7755 -0.1253 -0.1251
 1144THY    HM128596   2.873   7.908   8.771 -0.0861 -0.0992 -0.2124
 1144THY    HM228597   2.994   7.935   8.894 -0.3143 -3.0869 -1.1654
 1144THY    HM328598   2.863   7.841   8.944  1.7469 -0.0265  1.0009
 1144THY    CA628599   2.694   8.091   8.831 -1.3742 -0.5658 -0.0296
 1144THY    HA628600   2.673   8.034   8.741  0.3529 -0.9941 -0.1923
 1145THY      O28601   4.921   0.758   4.308  0.5884 -0.1251 -1.1705
 1145THY     HO28602   4.960   0.840   4.272 -0.2688 -0.1081 -2.1147
 1145THY    CA128603   4.909   0.784   4.442  0.2043 -0.2909  0.0588
 1145THY    CA228604   4.994   0.870   4.514 -0.2888  0.5355  0.2562
 1145THY    CP128605   5.106   0.946   4.442  0.0564 -0.4722 -0.1780
 1145THY    HP128606   5.087   0.939   4.334  0.9160 -0.0390 -0.3647
 1145THY    CP228607   5.103   1.097   4.477 -0.7522  0.6328  0.8819
 1145THY    HP228608   5.177   1.143   4.410 -0.7658 -3.1316 -2.0698
 1145THY    HP328609   5.004   1.141   4.461  0.1373  2.2564 -0.4513
 1145THY    HP428610   5.141   1.121   4.577  1.8368 -2.3243  0.7807
 1145THY    CP328611   5.236   0.875   4.487  0.0349  0.0546  0.3562
 1145THY    HP528612   5.326   0.928   4.454  0.7605 -0.4561  1.4626
 1145THY    HP628613   5.244   0.875   4.596 -1.7525 -3.5477  0.6347
 1145THY    HP728614   5.229   0.772   4.450 -0.8833 -0.7753  2.6626
 1145THY    CA328615   4.981   0.878   4.654  1.0186 -0.5621  0.1423
 1145THY    HA328616   5.054   0.925   4.720 -1.6056  1.5389  1.8070
 1145THY    CA428617   4.868   0.822   4.711 -0.6553 -0.0839  0.0509
 1145THY    HA428618   4.844   0.837   4.816  1.6625  0.7866  0.5110
 1145THY    CA528619   4.777   0.751   4.636  0.5561 -0.1171 -0.7768
 1145THY    CM128620   4.654   0.687   4.696  0.4281 -0.2150 -0.6668
 1145THY    HM128621   4.568   0.750   4.723 -1.4619 -3.2704  0.9992
 1145THY    HM228622   4.621   0.615   4.621  2.1769  0.2260 -1.9094
 1145THY    HM328623   4.676   0.639   4.793 -1.5840  2.1101  1.0687
 1145THY    CA628624   4.806   0.720   4.505 -0.5758 -0.1759  1.0667
 1145THY    HA628625   4.742   0.665   4.436  0.4863  1.4278 -1.3209
 1146THY      O28626   0.314   7.139   4.313  0.4045  0.0040  0.1752
 1146THY     HO28627   0.372   7.067   4.344  0.8516  0.1935 -0.2056
 1146THY    CA128628   0.359   7.252   4.378  0.2897 -0.2202  0.6627
 1146THY    CA228629   0.364   7.380   4.317  0.1889  1.0325  0.0254
 1146THY    CP128630   0.309   7.389   4.174  0.2181  0.5195 -0.7407
 1146THY    HP128631   0.282   7.296   4.123  2.3738  1.4214 -3.8459
 1146THY    CP228632   0.179   7.462   4.186  0.1640  0.0798  0.0588
 1146THY    HP228633   0.123   7.430   4.275  3.0045 -0.2347  1.8648
 1146THY    HP328634   0.202   7.567   4.205 -1.9241  0.7947 -1.0706
 1146THY    HP428635   0.118   7.450   4.096 -0.9990 -0.5878  0.9124
 1146THY    CP328636   0.397   7.460   4.073  0.5068  0.1282  0.0818
 1146THY    HP528637   0.494   7.410   4.065  0.8109  0.7453 -0.1922
 1146THY    HP628638   0.354   7.442   3.974 -0.1894 -1.5951  0.6567
 1146THY    HP728639   0.418   7.565   4.097  0.3895 -0.2281  1.9218
 1146THY    CA328640   0.416   7.490   4.383 -0.0179 -0.1470 -0.3002
 1146THY    HA328641   0.417   7.585   4.329  0.3387 -0.0602 -0.1472
 1146THY    CA428642   0.468   7.477   4.513  0.6577 -0.6069  0.4314
 1146THY    HA428643   0.518   7.557   4.566  1.4060 -0.3291 -0.6498
 1146THY    CA528644   0.464   7.351   4.574 -0.1554 -0.5907  0.6269
 1146THY    CM128645   0.479   7.334   4.722  0.1893 -0.1870 -0.2946
 1146THY    HM128646   0.569   7.367   4.774 -0.6152  0.1937  0.8818
 1146THY    HM228647   0.396   7.387   4.768  1.6928  2.8145 -0.8177
 1146THY    HM328648   0.454   7.230   4.749  1.0267 -0.1398  0.7288
 1146THY    CA628649   0.411   7.243   4.506  0.8213 -0.2580 -0.9303
 1146THY    HA628650   0.406   7.146   4.556 -0.1764 -0.3295 -1.1435
 1147THY      O28651   6.469   3.267   0.542 -0.4196 -0.0622  0.2085
 1147THY     HO28652   6.378   3.233   0.553 -0.1125 -0.5213  1.4152
 1147THY    CA128653   6.500   3.337   0.652  0.4413  0.8424 -0.0610
 1147THY    CA228654   6.619   3.401   0.668 -0.6519 -0.5491  0.1967
 1147THY    CP128655   6.712   3.423   0.550 -0.5860 -0.0791 -0.3587
 1147THY    HP128656   6.672   3.365   0.466  0.3673  0.3847 -1.1508
 1147THY    CP228657   6.720   3.569   0.509  0.6271  0.5546  0.4394
 1147THY    HP228658   6.617   3.599   0.486  1.3398  1.8896 -1.2177
 1147THY    HP328659   6.740   3.639   0.592 -0.2051  0.9881  0.2942
 1147THY    HP428660   6.785   3.574   0.421  0.9663 -1.9135  0.4911
 1147THY    CP328661   6.859   3.371   0.575  0.1889  0.4728  0.3306
 1147THY    HP528662   6.859   3.263   0.558 -2.2186 -0.4906  4.7058
 1147THY    HP628663   6.936   3.425   0.519 -0.3483  1.4570  0.5056
 1147THY    HP728664   6.898   3.386   0.677 -0.2331 -0.4672  0.6443
 1147THY    CA328665   6.651   3.451   0.801 -0.0872  0.3495 -0.8573
 1147THY    HA328666   6.747   3.496   0.827 -0.6638  0.7346  0.7344
 1147THY    CA428667   6.550   3.443   0.906  0.2276  0.4996 -0.2236
 1147THY    HA428668   6.570   3.480   1.006  0.8232  1.1863 -0.5862
 1147THY    CA528669   6.426   3.382   0.885 -0.6279  0.0561  0.3260
 1147THY    CM128670   6.330   3.373   0.990  0.4136  0.2888  0.8831
 1147THY    HM128671   6.292   3.473   1.012 -3.7249 -0.8152 -0.1565
 1147THY    HM228672   6.244   3.313   0.957  0.5991  0.2130  0.5315
 1147THY    HM328673   6.368   3.336   1.086 -1.1856 -1.1146  1.0341
 1147THY    CA628674   6.404   3.332   0.756  0.1250  0.2747 -0.2168
 1147THY    HA628675   6.311   3.280   0.731  1.1159 -1.4959 -0.4014
 1148THY      O28676   6.019   1.854   8.035 -0.1637 -0.3576  0.3274
 1148THY     HO28677   6.095   1.849   8.095  0.9265 -3.1388 -1.0860
 1148THY    CA128678   6.085   1.858   7.913  0.6796 -0.2779 -1.0106
 1148THY    CA228679   6.015   1.894   7.797  0.1414 -0.1567  0.7761
 1148THY    CP128680   5.865   1.942   7.806 -0.0779 -0.9383  0.9680
 1148THY    HP128681   5.825   1.938   7.908  0.2354 -1.0876  1.0860
 1148THY    CP228682   5.838   2.090   7.759  1.0371  0.1237 -0.6334
 1148THY    HP228683   5.877   2.107   7.658  1.4319 -0.1241 -0.5241
 1148THY    HP328684   5.729   2.104   7.758  1.0401  0.2019 -1.7507
 1148THY    HP428685   5.892   2.163   7.819  1.4720 -0.8437  0.1870
 1148THY    CP328686   5.785   1.848   7.716 -0.7695  0.5321 -0.0383
 1148THY    HP528687   5.832   1.837   7.618  0.9703  2.7075  0.4653
 1148THY    HP628688   5.805   1.753   7.769 -1.7157  0.2719 -0.1329
 1148THY    HP728689   5.676   1.855   7.717 -0.7237  1.5156 -0.6920
 1148THY    CA328690   6.085   1.896   7.673 -0.6563 -0.0135 -0.0102
 1148THY    HA328691   6.041   1.923   7.578 -0.8375 -0.0271  0.0699
 1148THY    CA428692   6.218   1.866   7.669 -0.4084  0.3334  1.5299
 1148THY    HA428693   6.275   1.876   7.577  1.3220 -2.5852  2.1278
 1148THY    CA528694   6.287   1.832   7.782  0.2165  0.4672 -0.0237
 1148THY    CM128695   6.429   1.790   7.778 -1.0432  0.0042  0.6275
 1148THY    HM128696   6.505   1.848   7.832  0.1290 -0.0529 -0.9094
 1148THY    HM228697   6.436   1.688   7.818 -0.1961 -0.2493 -0.1514
 1148THY    HM328698   6.470   1.793   7.677  2.5332 -0.5568  1.9112
 1148THY    CA628699   6.213   1.824   7.905  0.1536  0.0143 -0.2618
 1148THY    HA628700   6.268   1.807   7.997  0.9926  2.7689 -0.1570
 1149THY      O28701   1.164   6.907   7.140 -0.1724  0.2376 -0.3137
 1149THY     HO28702   1.147   7.002   7.147  0.1538  0.2577  0.3067
 1149THY    CA128703   1.094   6.852   7.237 -0.0914 -0.2032 -0.6058
 1149THY    CA228704   1.089   6.714   7.261  0.5735 -0.4619 -0.5213
 1149THY    CP128705   1.176   6.621   7.172  0.6289  0.3299  0.0754
 1149THY    HP128706   1.240   6.683   7.108  2.0842 -2.0606 -0.8947
 1149THY    CP228707   1.273   6.535   7.253  0.8929  0.0367  0.0544
 1149THY    HP228708   1.343   6.491   7.181 -1.4285 -1.0272 -1.6973
 1149THY    HP328709   1.335   6.601   7.314  0.8813 -1.3319  1.6418
 1149THY    HP428710   1.228   6.452   7.309  1.4498  0.8364  1.7308
 1149THY    CP328711   1.093   6.535   7.080  0.2342  0.0049  0.0097
 1149THY    HP528712   1.018   6.598   7.030  1.4002  0.7529 -0.8333
 1149THY    HP628713   1.152   6.502   6.994  1.1784  0.9407  0.2765
 1149THY    HP728714   1.035   6.455   7.127 -1.4747  0.8707 -0.5253
 1149THY    CA328715   0.992   6.666   7.348  0.3822 -0.7002  0.0088
 1149THY    HA328716   0.984   6.558   7.362 -0.6393 -0.7160 -0.5642
 1149THY    CA428717   0.923   6.750   7.436  0.0657 -0.0859  0.8066
 1149THY    HA428718   0.865   6.705   7.516  3.0267 -2.6875  1.7018
 1149THY    CA528719   0.948   6.883   7.426 -0.1117  0.0705 -0.4825
 1149THY    CM128720   0.887   6.983   7.519  0.1366  0.9851 -0.5616
 1149THY    HM128721   0.893   6.943   7.621  1.7529  0.6028 -0.7656
 1149THY    HM228722   0.931   7.083   7.515  3.4567 -0.3169 -0.4290
 1149THY    HM328723   0.780   6.987   7.496 -0.1151 -0.2184  0.3440
 1149THY    CA628724   1.039   6.939   7.328  0.9720 -0.4277  0.1971
 1149THY    HA628725   1.044   7.048   7.322  0.6266 -0.2519  2.3679
 1150THY      O28726   4.787   4.665   0.593 -0.8160 -0.3415  0.0230
 1150THY     HO28727   4.739   4.665   0.678 -0.9483 -0.4424 -0.0496
 1150THY    CA128728   4.768   4.778   0.521 -0.2033  0.2395  0.1953
 1150THY    CA228729   4.842   4.813   0.408 -0.5642  0.3813  0.3296
 1150THY    CP128730   4.950   4.717   0.355 -0.1900 -0.2001  0.1110
 1150THY    HP128731   4.997   4.671   0.442 -1.7346 -1.9041  0.1053
 1150THY    CP228732   4.892   4.614   0.260  0.1335 -0.2283  0.2332
 1150THY    HP228733   4.964   4.560   0.198  1.5376  1.1698  0.5930
 1150THY    HP328734   4.838   4.545   0.326  0.7118 -0.9308 -0.0025
 1150THY    HP428735   4.820   4.661   0.192  0.7420  0.0146 -0.2555
 1150THY    CP328736   5.063   4.784   0.282  0.1710 -0.5105 -0.4202
 1150THY    HP528737   5.104   4.875   0.327  2.1199 -1.5290 -0.0440
 1150THY    HP628738   5.152   4.720   0.276  1.7651  1.6495 -1.4112
 1150THY    HP728739   5.033   4.807   0.179 -1.3777 -2.1902 -0.3899
 1150THY    CA328740   4.820   4.946   0.359 -0.7156 -0.1830 -0.5920
 1150THY    HA328741   4.889   4.986   0.284 -1.6254  0.0481 -1.3205
 1150THY    CA428742   4.717   5.028   0.416 -0.1811  0.5064 -0.7946
 1150THY    HA428743   4.703   5.130   0.382 -0.1985  0.2269 -1.6718
 1150THY    CA528744   4.631   4.973   0.510 -0.9553  0.5611  0.3527
 1150THY    CM128745   4.506   5.047   0.554 -0.0003  0.7091  0.7047
 1150THY    HM128746   4.534   5.130   0.619 -1.7003  0.1488  2.2555
 1150THY    HM228747   4.449   5.087   0.469 -0.0870 -1.4998 -0.3495
 1150THY    HM328748   4.442   4.986   0.619  0.1936 -1.7649 -1.2457
 1150THY    CA628749   4.663   4.854   0.573  0.2816  0.6822  0.4126
 1150THY    HA628750   4.615   4.831   0.668  0.2235 -0.1729  0.1779
 1151THY      O28751   7.952   2.396   6.396  0.6079 -0.5075 -0.0715
 1151THY     HO28752   7.939   2.433   6.485  1.9108  1.6586 -0.7062
 1151THY    CA128753   7.879   2.482   6.324  0.5749 -0.4144 -0.3582
 1151THY    CA228754   7.888   2.491   6.183 -0.0004  0.3251  0.4710
 1151THY    CP128755   7.979   2.395   6.104 -0.8927 -0.0114  0.1990
 1151THY    HP128756   8.057   2.354   6.169 -0.4393  2.1989  1.1215
 1151THY    CP228757   7.889   2.276   6.058  0.2461  0.4503 -0.6690
 1151THY    HP228758   7.861   2.217   6.146 -0.0966  0.3131 -0.8705
 1151THY    HP328759   7.797   2.323   6.021  0.3935  2.2360  1.0552
 1151THY    HP428760   7.943   2.203   5.996 -0.7032 -1.7660  1.0075
 1151THY    CP328761   8.047   2.463   5.986  0.3054 -0.1256 -0.3261
 1151THY    HP528762   8.104   2.393   5.924 -1.1438  0.3606 -2.2959
 1151THY    HP628763   7.983   2.499   5.905 -1.4493  0.1791  1.1278
 1151THY    HP728764   8.125   2.533   6.019 -1.0510  3.3164 -3.6808
 1151THY    CA328765   7.812   2.592   6.115 -0.2683  0.1819  0.3688
 1151THY    HA328766   7.831   2.603   6.009 -1.2001 -0.4018  0.1333
 1151THY    CA428767   7.738   2.681   6.184 -0.1769 -0.5252  0.3841
 1151THY    HA428768   7.685   2.760   6.132  1.6578  2.0555  2.2140
 1151THY    CA528769   7.725   2.660   6.318  0.0976 -0.5917  0.4429
 1151THY    CM128770   7.634   2.755   6.388 -0.8507  0.4043 -0.1861
 1151THY    HM128771   7.597   2.708   6.480  1.3722  0.2858  0.7163
 1151THY    HM228772   7.687   2.850   6.400  0.5358 -0.3647 -0.0249
 1151THY    HM328773   7.546   2.787   6.332 -2.1687  0.4432  1.8070
 1151THY    CA628774   7.794   2.571   6.390 -0.4095  0.2500  0.3235
 1151THY    HA628775   7.792   2.578   6.498  0.5938  0.4636  0.3412
 1152THY      O28776   0.820   4.848   5.975 -0.2276 -0.1461 -0.6666
 1152THY     HO28777   0.888   4.909   6.008 -1.8491 -0.4159  3.7850
 1152THY    CA128778   0.709   4.921   5.961 -0.2063 -0.4382 -0.2166
 1152THY    CA228779   0.598   4.893   5.866 -0.0261  0.2151  0.2597
 1152THY    CP128780   0.607   4.760   5.782  0.1048 -0.2014 -0.3423
 1152THY    HP128781   0.694   4.701   5.810 -1.3234 -1.6721  1.2464
 1152THY    CP228782   0.485   4.673   5.796  0.4753 -0.3967  0.1190
 1152THY    HP228783   0.469   4.651   5.902  1.2873 -0.1827  0.2906
 1152THY    HP328784   0.388   4.712   5.763  1.1403  2.1772  1.0112
 1152THY    HP428785   0.492   4.572   5.752  1.2081 -0.4203  0.2718
 1152THY    CP328786   0.631   4.786   5.634 -0.2167 -0.6261 -0.0159
 1152THY    HP528787   0.721   4.845   5.616  0.0453 -1.1264 -0.3748
 1152THY    HP628788   0.648   4.691   5.581  1.5006 -0.1046 -0.4747
 1152THY    HP728789   0.543   4.836   5.594 -0.2135 -0.2928  0.3919
 1152THY    CA328790   0.495   4.987   5.846 -0.8178  0.1073  0.1050
 1152THY    HA328791   0.422   4.969   5.768  0.1841 -1.3169 -0.5693
 1152THY    CA428792   0.507   5.107   5.906 -0.1886  0.1842  1.1093
 1152THY    HA428793   0.428   5.178   5.884  0.5205  1.3587  2.1597
 1152THY    CA528794   0.594   5.140   6.003 -0.4555  0.5628  0.1965
 1152THY    CM128795   0.609   5.279   6.053  0.6574 -0.9680 -0.4341
 1152THY    HM128796   0.514   5.333   6.042  0.4173 -0.7848  1.9947
 1152THY    HM228797   0.622   5.264   6.160 -0.3435  0.9948  0.0225
 1152THY    HM328798   0.688   5.338   6.004 -0.6831  0.7555 -0.6392
 1152THY    CA628799   0.705   5.050   6.026  0.0625  0.0774  0.2795
 1152THY    HA628800   0.787   5.077   6.092  1.0354 -1.4839 -0.2245
 1153THY      O28801   7.912   2.144   6.488 -0.6754 -0.0951  0.3600
 1153THY     HO28802   7.938   2.215   6.426 -1.9763  0.5949  0.5545
 1153THY    CA128803   7.952   2.034   6.419 -0.5790 -0.2630  0.5412
 1153THY    CA228804   7.895   1.906   6.446  0.5501  0.2911  0.1880
 1153THY    CP128805   7.784   1.903   6.556  0.6904  0.0142 -0.4855
 1153THY    HP128806   7.732   1.998   6.539 -1.3128 -1.1077 -0.9293
 1153THY    CP228807   7.674   1.798   6.545 -0.1107 -0.4083  0.9706
 1153THY    HP228808   7.637   1.797   6.441 -0.3296  1.2760  1.0025
 1153THY    HP328809   7.706   1.695   6.562 -1.6390 -1.5177 -2.1000
 1153THY    HP428810   7.588   1.821   6.609 -0.8741 -0.6990  0.0809
 1153THY    CP328811   7.837   1.903   6.699  0.3268 -0.3251 -0.2077
 1153THY    HP528812   7.919   1.972   6.719 -0.3851  0.9598 -1.5205
 1153THY    HP628813   7.751   1.939   6.757 -0.9856 -1.5800 -1.2957
 1153THY    HP728814   7.855   1.803   6.740  0.5782 -0.1009  0.2348
 1153THY    CA328815   7.942   1.797   6.364  0.2173  0.6910  0.5002
 1153THY    HA328816   7.896   1.699   6.375  2.4003 -0.4132  0.2460
 1153THY    CA428817   8.053   1.816   6.284 -0.4804 -0.2825 -0.2125
 1153THY    HA428818   8.095   1.728   6.235 -0.6198 -0.6066  0.2482
 1153THY    CA528819   8.110   1.945   6.268 -0.6253  0.1386  0.4633
 1153THY    CM128820   8.243   1.947   6.186 -0.5200  0.2208  0.4326
 1153THY    HM128821   8.310   2.028   6.220 -1.4380  1.5772 -0.8361
 1153THY    HM228822   8.300   1.854   6.187  1.3607  1.3140  1.1426
 1153THY    HM328823   8.208   1.967   6.084  1.7671 -3.2908 -1.2314
 1153THY    CA628824   8.060   2.056   6.334 -0.5405 -0.0751 -0.5420
 1153THY    HA628825   8.106   2.154   6.332  1.3678 -0.8764  0.8315
 1154THY      O28826   4.689   6.079   9.151 -0.1317  0.1416 -0.0693
 1154THY     HO28827   4.662   6.023   9.226 -1.3635  0.0247 -0.5867
 1154THY    CA128828   4.816   6.058   9.111 -0.5765  0.4700 -0.3493
 1154THY    CA228829   4.878   6.101   8.998  0.3839  0.4866  0.0804
 1154THY    CP128830   4.787   6.145   8.884 -0.8647 -0.1574 -0.4805
 1154THY    HP128831   4.684   6.127   8.917 -1.2191  1.1500 -0.8137
 1154THY    CP228832   4.791   6.295   8.852 -0.1603  0.2302  0.2319
 1154THY    HP228833   4.851   6.322   8.764 -2.8425 -0.4134 -1.9439
 1154THY    HP328834   4.689   6.332   8.839 -0.0290  0.7762  0.7259
 1154THY    HP428835   4.821   6.350   8.942 -1.4905  0.1886  0.7164
 1154THY    CP328836   4.809   6.074   8.753  0.8199  0.1984  0.2652
 1154THY    HP528837   4.724   6.092   8.687  0.2336 -2.0781  0.3330
 1154THY    HP628838   4.902   6.099   8.700  2.0697 -0.7394  1.9353
 1154THY    HP728839   4.815   5.967   8.775  2.2586  0.1761 -0.1199
 1154THY    CA328840   5.020   6.081   8.984  0.2590  0.4425  0.3079
 1154THY    HA328841   5.063   6.109   8.888  0.3104  1.3860  0.5926
 1154THY    CA428842   5.105   6.012   9.077  0.5000  0.6830 -0.0952
 1154THY    HA428843   5.212   6.004   9.066  0.4041  0.4774 -0.9270
 1154THY    CA528844   5.032   5.969   9.194 -0.3094  0.0825  0.3056
 1154THY    CM128845   5.108   5.904   9.308  0.2214  0.5290 -0.0881
 1154THY    HM128846   5.051   5.811   9.316  2.5872 -1.0463 -0.7233
 1154THY    HM228847   5.211   5.879   9.279  0.3177  0.2260  0.5131
 1154THY    HM328848   5.106   5.951   9.407  1.0211 -1.2905  0.8373
 1154THY    CA628849   4.902   5.998   9.212  0.4298 -0.2556 -0.0701
 1154THY    HA628850   4.856   5.984   9.309  0.9560 -1.1043  0.0560
 1155THY      O28851   0.881   1.004   8.056 -0.1959 -0.0820 -0.4924
 1155THY     HO28852   0.931   0.921   8.067 -0.9075 -0.4994 -0.3686
 1155THY    CA128853   0.751   0.968   8.065 -0.5451 -0.3590  0.6894
 1155THY    CA228854   0.639   1.062   8.043 -0.2000  0.5703 -0.0899
 1155THY    CP128855   0.675   1.209   8.053  0.2913  0.4172  0.0397
 1155THY    HP128856   0.774   1.223   8.098  0.5111  1.1718 -0.6713
 1155THY    CP228857   0.673   1.273   7.918 -0.1169  0.3483  0.0067
 1155THY    HP228858   0.576   1.265   7.867 -1.2323  1.3464  1.8708
 1155THY    HP328859   0.688   1.381   7.931 -3.0253  1.0734 -1.6464
 1155THY    HP428860   0.758   1.238   7.858  0.0318 -0.1340  0.4949
 1155THY    CP328861   0.583   1.289   8.148  0.4571  0.1613  0.0240
 1155THY    HP528862   0.635   1.381   8.177 -0.1449  0.5291 -0.0423
 1155THY    HP628863   0.486   1.317   8.106 -0.2287 -0.8412  0.8865
 1155THY    HP728864   0.558   1.226   8.234 -1.7390 -0.6942 -1.1447
 1155THY    CA328865   0.509   1.019   8.022 -0.4399 -0.4216  0.0149
 1155THY    HA328866   0.434   1.096   8.004  2.1154  2.3032  0.2733
 1155THY    CA428867   0.483   0.882   8.015  0.0117 -0.2355 -0.7410
 1155THY    HA428868   0.379   0.848   8.013 -0.6855  1.4616  1.8457
 1155THY    CA528869   0.585   0.788   8.031 -0.8861  0.1249  0.9095
 1155THY    CM128870   0.546   0.647   8.022 -0.3712 -0.2551 -0.8249
 1155THY    HM128871   0.565   0.598   8.119  1.2091  1.5667 -0.1496
 1155THY    HM228872   0.439   0.626   8.016  0.0191 -2.6503 -0.5438
 1155THY    HM328873   0.599   0.596   7.941  1.9040 -2.4111  1.7954
 1155THY    CA628874   0.724   0.828   8.052  0.4559 -0.4920 -0.5305
 1155THY    HA628875   0.803   0.754   8.052  0.9764  0.0069 -2.4266
 1156THY      O28876   2.171   1.307   0.193 -0.0495 -0.8800 -0.3204
 1156THY     HO28877   2.082   1.280   0.166 -1.2173  1.8872  0.3543
 1156THY    CA128878   2.248   1.315   0.079  0.5189  0.7153  0.7476
 1156THY    CA228879   2.387   1.351   0.079 -1.1875 -0.7539  0.0490
 1156THY    CP128880   2.457   1.383   0.209  0.7171  0.8035  0.0605
 1156THY    HP128881   2.425   1.320   0.293  0.1143  1.3342  0.2372
 1156THY    CP228882   2.612   1.369   0.206  0.6352 -0.1178 -0.0913
 1156THY    HP228883   2.649   1.435   0.126 -0.4776  1.4830  0.6500
 1156THY    HP328884   2.656   1.396   0.302  1.5162 -1.3473 -0.1420
 1156THY    HP428885   2.647   1.268   0.185  0.3733  0.1839 -2.3328
 1156THY    CP328886   2.422   1.529   0.251  0.1487  0.2153  0.0213
 1156THY    HP528887   2.313   1.526   0.256  0.0374 -1.6451 -1.9445
 1156THY    HP628888   2.457   1.533   0.355  0.7834  0.1953 -0.1847
 1156THY    HP728889   2.477   1.603   0.192  2.4756 -1.6430 -0.2957
 1156THY    CA328890   2.448   1.353  -0.045  0.5816  0.5776  0.2998
 1156THY    HA328891   2.551   1.388  -0.057  0.3594  1.0530 -0.2796
 1156THY    CA428892   2.376   1.322  -0.162  0.5447  0.1151  0.9063
 1156THY    HA428893   2.420   1.316  -0.261 -0.4115 -0.1075  0.4814
 1156THY    CA528894   2.237   1.300  -0.152  0.5407  0.2979  0.4008
 1156THY    CM128895   2.161   1.270  -0.272  0.1560 -0.2036 -0.0900
 1156THY    HM128896   2.222   1.295  -0.359  1.1110 -2.9166 -0.2830
 1156THY    HM228897   2.133   1.164  -0.271 -0.2960 -0.1329 -1.6029
 1156THY    HM328898   2.058   1.309  -0.274 -1.6152 -4.1988  1.0840
 1156THY    CA628899   2.171   1.290  -0.033  0.5869  0.1090  0.3388
 1156THY    HA628900   2.066   1.266  -0.024  0.6150  0.1357  0.7974
 1157THY      O28901   4.988   6.406   5.184 -0.1240 -0.0054  0.3991
 1157THY     HO28902   4.934   6.365   5.114  2.4722 -0.4012 -1.5504
 1157THY    CA128903   5.070   6.471   5.099  0.4011  0.9948 -0.1411
 1157THY    CA228904   5.161   6.569   5.142 -0.0968  0.0751 -0.1063
 1157THY    CP128905   5.177   6.595   5.294  0.3461 -0.4026  0.2137
 1157THY    HP128906   5.155   6.502   5.348 -0.1407 -3.0190 -4.0089
 1157THY    CP228907   5.314   6.632   5.341  0.3683 -0.2025 -0.6098
 1157THY    HP228908   5.318   6.642   5.450 -1.1602  0.2829 -0.5788
 1157THY    HP328909   5.391   6.559   5.313  1.6519  0.7648  0.2927
 1157THY    HP428910   5.358   6.726   5.304  1.0379  0.7948  2.4157
 1157THY    CP328911   5.073   6.697   5.336  0.0373 -0.1500  0.5472
 1157THY    HP528912   4.972   6.669   5.306  0.8011 -0.7089 -1.7678
 1157THY    HP628913   5.073   6.710   5.444 -0.3976  0.9945  0.4307
 1157THY    HP728914   5.088   6.795   5.289  2.3077 -0.6015  0.1900
 1157THY    CA328915   5.244   6.624   5.043 -0.2276 -0.1063 -0.8845
 1157THY    HA328916   5.326   6.690   5.072  0.1102  0.5002 -3.0051
 1157THY    CA428917   5.231   6.575   4.910  0.3283  0.1159 -0.3712
 1157THY    HA428918   5.302   6.615   4.838  0.5178  0.5934  0.0712
 1157THY    CA528919   5.137   6.476   4.872 -0.6122 -0.1864 -0.5111
 1157THY    CM128920   5.140   6.427   4.724 -1.0010  0.0943  0.3873
 1157THY    HM128921   5.049   6.457   4.671 -0.7171 -0.2239 -0.2857
 1157THY    HM228922   5.229   6.452   4.666 -0.5615 -1.5649  0.2901
 1157THY    HM328923   5.144   6.317   4.721  3.2991  0.1087  0.5950
 1157THY    CA628924   5.055   6.420   4.969 -0.3368 -0.2278  0.7158
 1157THY    HA628925   4.987   6.338   4.949  0.6465 -1.3156  1.7349
 1158THY      O28926   7.922   3.634   7.894 -0.0717 -0.2204  0.0524
 1158THY     HO28927   7.988   3.605   7.830  0.7838 -0.2335  0.9149
 1158THY    CA128928   7.802   3.616   7.840  0.8887 -0.0161  0.5334
 1158THY    CA228929   7.674   3.645   7.909  0.2050  0.4562 -0.4372
 1158THY    CP128930   7.674   3.677   8.053  0.0533  0.9032 -0.2173
 1158THY    HP128931   7.775   3.708   8.082  1.0546 -1.5451 -0.8426
 1158THY    CP228932   7.587   3.794   8.092  0.5016 -0.1781  0.2093
 1158THY    HP228933   7.616   3.812   8.196  0.6978 -0.1368  0.1483
 1158THY    HP328934   7.605   3.877   8.023 -0.5517 -0.4558 -0.4269
 1158THY    HP428935   7.482   3.762   8.088  0.8790 -1.4659 -0.1143
 1158THY    CP328936   7.634   3.556   8.140 -0.3130  0.3786  0.1992
 1158THY    HP528937   7.630   3.580   8.247  0.8236 -0.7802  0.5318
 1158THY    HP628938   7.540   3.514   8.104 -0.3141 -0.2410  0.9007
 1158THY    HP728939   7.713   3.480   8.133 -0.8761 -0.1587 -0.3072
 1158THY    CA328940   7.554   3.637   7.835 -0.4934 -0.1129  0.1395
 1158THY    HA328941   7.460   3.656   7.886 -1.0411 -0.2271 -0.8202
 1158THY    CA428942   7.564   3.587   7.708  0.7863 -0.1297 -0.1805
 1158THY    HA428943   7.471   3.587   7.653 -1.3379 -2.7157  3.0513
 1158THY    CA528944   7.682   3.545   7.646  0.7531  0.2669  0.5673
 1158THY    CM128945   7.679   3.523   7.494  0.4566  0.0243  0.0411
 1158THY    HM128946   7.769   3.558   7.442  0.4305 -0.5218 -0.3817
 1158THY    HM228947   7.668   3.416   7.473  1.0420  0.2920 -1.7926
 1158THY    HM328948   7.587   3.554   7.443  1.4044  0.2232 -1.6211
 1158THY    CA628949   7.808   3.577   7.708 -0.6923  0.3773  0.1054
 1158THY    HA628950   7.901   3.558   7.655 -1.4471 -1.1543 -0.7694
 1159THY      O28951   4.006   7.288   4.299  0.4008 -0.0177  0.1906
 1159THY     HO28952   3.974   7.376   4.328 -0.7158 -0.6111  0.8527
 1159THY    CA128953   3.959   7.207   4.397 -1.6670  0.4408  0.2767
 1159THY    CA228954   3.901   7.079   4.367 -0.0700  0.0422  0.0850
 1159THY    CP128955   3.885   7.035   4.223 -0.2823 -0.3759  0.5971
 1159THY    HP128956   3.889   7.121   4.155 -1.4067 -1.8164 -1.4031
 1159THY    CP228957   3.998   6.944   4.174 -0.2178 -0.5786  0.1187
 1159THY    HP228958   3.975   6.841   4.203 -1.4841 -0.2384  0.4246
 1159THY    HP328959   4.014   6.956   4.067  2.3903 -0.1784  0.4743
 1159THY    HP428960   4.095   6.979   4.212 -1.0824  1.8255  0.2683
 1159THY    CP328961   3.746   6.968   4.188 -0.1619  0.5009  0.1288
 1159THY    HP528962   3.738   6.877   4.249 -1.2383 -0.3787 -1.2661
 1159THY    HP628963   3.655   7.029   4.193 -0.0487  0.7538 -0.8032
 1159THY    HP728964   3.743   6.934   4.084 -5.8826  1.4774 -0.3536
 1159THY    CA328965   3.853   6.992   4.473  0.7525  0.1557  0.2335
 1159THY    HA328966   3.805   6.897   4.451  0.2369 -0.0179  1.9742
 1159THY    CA428967   3.869   7.048   4.604 -0.6809  0.4032  0.0938
 1159THY    HA428968   3.831   7.000   4.694 -0.2050  0.3502  0.2721
 1159THY    CA528969   3.911   7.177   4.630 -0.5719 -0.2857 -0.3828
 1159THY    CM128970   3.916   7.230   4.768  0.7008  0.4353 -0.6798
 1159THY    HM128971   3.873   7.168   4.848 -0.7813  1.9705 -0.2181
 1159THY    HM228972   4.019   7.261   4.789  0.1750  1.5938  0.2922
 1159THY    HM328973   3.864   7.326   4.763  0.8746  0.8040  2.8134
 1159THY    CA628974   3.967   7.253   4.526  0.3121 -0.1185  0.1452
 1159THY    HA628975   4.005   7.355   4.537  0.7732 -0.0695 -1.5208
 1160THY      O28976   7.611   9.240   1.303 -0.2006 -0.0697  0.4881
 1160THY     HO28977   7.643   9.264   1.215 -0.5996 -1.3384 -0.0248
 1160THY    CA128978   7.661   9.329   1.396 -0.2638 -0.0429  0.0944
 1160THY    CA228979   7.596   9.348   1.522 -0.5868  0.1538 -0.0519
 1160THY    CP128980   7.469   9.275   1.546  0.1410 -0.8066 -0.4550
 1160THY    HP128981   7.438   9.209   1.464 -0.3004 -0.4483 -0.5829
 1160THY    CP228982   7.487   9.194   1.679 -0.1143  0.6400  0.6577
 1160THY    HP228983   7.575   9.130   1.663 -0.2261  1.1025 -2.3816
 1160THY    HP328984   7.492   9.258   1.768  2.5030  0.5045  0.6942
 1160THY    HP428985   7.397   9.132   1.692 -1.1856  2.3150  1.4991
 1160THY    CP328986   7.349   9.364   1.559  0.5001  0.4836  0.5821
 1160THY    HP528987   7.321   9.399   1.459 -1.6128 -0.5976  0.7385
 1160THY    HP628988   7.273   9.294   1.597  1.6058 -1.5752 -0.7416
 1160THY    HP728989   7.350   9.446   1.631 -2.3479 -0.2923  1.6276
 1160THY    CA328990   7.649   9.436   1.618 -0.4109 -0.6442 -0.0667
 1160THY    HA328991   7.585   9.457   1.703 -0.1162 -0.5531  0.1318
 1160THY    CA428992   7.758   9.513   1.580  0.3717  0.2102  0.0691
 1160THY    HA428993   7.771   9.606   1.636 -0.3147 -1.1743  2.7188
 1160THY    CA528994   7.827   9.492   1.458  0.4305 -0.0919  0.7649
 1160THY    CM128995   7.951   9.570   1.419 -0.3950  0.6798 -0.6315
 1160THY    HM128996   7.929   9.677   1.430 -0.3999  0.6733 -0.5833
 1160THY    HM228997   8.036   9.557   1.486 -0.7173 -1.9292 -0.6173
 1160THY    HM328998   7.978   9.545   1.315 -3.2317 -1.9649 -0.8733
 1160THY    CA628999   7.772   9.411   1.362  0.1020  0.3272 -0.2007
 1160THY    HA629000   7.817   9.397   1.264  0.6853 -4.9055  0.4839
 1161THY      O29001   9.030   0.615   7.711  0.1901 -0.1538  0.7161
 1161THY     HO29002   9.095   0.679   7.680 -1.5202  1.4883  0.3193
 1161THY    CA129003   8.911   0.688   7.729 -0.0137  0.0804 -0.0799
 1161THY    CA229004   8.797   0.621   7.775  0.4303 -0.6951  0.1845
 1161THY    CP129005   8.795   0.466   7.792 -0.0527 -0.6519 -0.1715
 1161THY    HP129006   8.897   0.427   7.785  0.6766  1.1476 -0.1771
 1161THY    CP229007   8.741   0.432   7.934  0.5788 -0.6060  0.3306
 1161THY    HP229008   8.802   0.477   8.014  1.2554 -0.1077 -0.4515
 1161THY    HP329009   8.639   0.471   7.942  0.6473 -0.3269 -0.1135
 1161THY    HP429010   8.742   0.324   7.950  0.7410 -0.3423  2.3812
 1161THY    CP329011   8.705   0.401   7.684  0.3411 -0.5731  0.0595
 1161THY    HP529012   8.623   0.471   7.664 -0.1575  0.0024  3.4697
 1161THY    HP629013   8.751   0.385   7.585 -1.8200  2.4244 -1.5731
 1161THY    HP729014   8.661   0.310   7.727 -0.3859 -1.7252 -2.8607
 1161THY    CA329015   8.686   0.697   7.816  0.3736  0.4834 -0.4500
 1161THY    HA329016   8.588   0.659   7.843  0.7244  0.9858  1.7361
 1161THY    CA429017   8.697   0.835   7.806  0.3207  0.4106 -0.5666
 1161THY    HA429018   8.611   0.890   7.844  0.7534 -1.3250  3.3838
 1161THY    CA529019   8.800   0.902   7.742 -0.3634 -0.0139 -0.2805
 1161THY    CM129020   8.793   1.057   7.727 -0.2670  0.3648  0.0908
 1161THY    HM129021   8.693   1.089   7.698 -1.4455 -3.7086 -1.0543
 1161THY    HM229022   8.815   1.094   7.828  1.1800 -1.7826  0.6435
 1161THY    HM329023   8.871   1.085   7.656 -0.3579 -0.4743 -0.3507
 1161THY    CA629024   8.921   0.828   7.723 -0.4014 -0.3669 -0.0773
 1161THY    HA629025   9.004   0.886   7.684 -0.8834 -0.5232 -1.3706
 1162THY      O29026   0.337   2.087   3.886  0.8691  0.3640 -0.3035
 1162THY     HO29027   0.389   2.166   3.907 -0.3908  1.1482  0.0275
 1162THY    CA129028   0.399   1.984   3.939  0.1249  0.0959  0.0705
 1162THY    CA229029   0.349   1.851   3.939  0.3235 -0.8790  0.5087
 1162THY    CP129030   0.202   1.818   3.896  0.4394  0.0522  0.3547
 1162THY    HP129031   0.140   1.906   3.915  1.8352  1.1150  0.1536
 1162THY    CP229032   0.181   1.788   3.744 -0.3353 -0.3555  0.4062
 1162THY    HP229033   0.253   1.840   3.679 -1.9605 -0.1153 -1.3058
 1162THY    HP329034   0.189   1.685   3.709 -0.4786  0.6519 -2.9435
 1162THY    HP429035   0.085   1.833   3.716  0.9755  1.1364 -2.1537
 1162THY    CP329036   0.127   1.706   3.971 -0.4336 -0.3016  0.2732
 1162THY    HP529037   0.024   1.681   3.941 -0.3247 -1.9909  1.2106
 1162THY    HP629038   0.179   1.610   3.959 -0.6077 -0.0689 -3.5912
 1162THY    HP729039   0.120   1.735   4.076 -0.7711 -5.3705  1.9179
 1162THY    CA329040   0.430   1.753   3.996 -0.2470  0.1347  0.9317
 1162THY    HA329041   0.397   1.650   4.009 -1.1170  0.4888  1.6222
 1162THY    CA429042   0.559   1.786   4.037  0.1464 -0.2818 -0.0327
 1162THY    HA429043   0.627   1.708   4.072 -0.3214 -0.4412  0.5409
 1162THY    CA529044   0.612   1.916   4.024 -0.7101  0.0062 -1.3575
 1162THY    CM129045   0.746   1.941   4.079  0.3358 -0.2717  0.1145
 1162THY    HM129046   0.816   1.862   4.049 -0.1196 -0.6244 -0.0289
 1162THY    HM229047   0.786   2.031   4.030 -1.7974  1.1498  0.8332
 1162THY    HM329048   0.754   1.966   4.185  2.8045  2.3062 -0.5526
 1162THY    CA629049   0.530   2.013   3.983  0.5492 -0.7747  0.0791
 1162THY    HA629050   0.566   2.114   3.961 -2.0086  0.2317  0.2144
 1163THY      O29051   4.947   0.715   5.450 -0.3570  0.4189 -0.3074
 1163THY     HO29052   4.871   0.764   5.485  0.8388  2.4036 -0.3676
 1163THY    CA129053   4.917   0.688   5.325 -0.1714  0.1637 -0.2635
 1163THY    CA229054   5.003   0.611   5.251 -0.3473 -0.3019 -0.1519
 1163THY    CP129055   5.136   0.557   5.302  0.7723  0.0643 -0.0490
 1163THY    HP129056   5.145   0.571   5.410  1.3378  1.3219 -0.2356
 1163THY    CP229057   5.150   0.409   5.286  0.3770 -0.3392 -0.6513
 1163THY    HP229058   5.147   0.377   5.181 -1.3166 -1.2009 -0.3881
 1163THY    HP329059   5.239   0.366   5.333 -0.3075 -1.2038 -0.1163
 1163THY    HP429060   5.078   0.358   5.352  2.3911 -2.3354  0.1298
 1163THY    CP329061   5.253   0.636   5.248  0.0857  0.0486  0.3148
 1163THY    HP529062   5.342   0.626   5.311 -0.8253 -0.7857  1.4948
 1163THY    HP629063   5.269   0.610   5.143 -3.3489 -1.0015 -0.0562
 1163THY    HP729064   5.217   0.738   5.264 -1.9366 -0.7728  1.2840
 1163THY    CA329065   4.965   0.576   5.120  0.3339 -0.3338 -0.0978
 1163THY    HA329066   5.018   0.504   5.059  1.9002  0.8607 -0.2030
 1163THY    CA429067   4.849   0.637   5.068 -0.4097 -0.4205  0.2409
 1163THY    HA429068   4.818   0.607   4.968 -2.0739 -0.9591  0.8753
 1163THY    CA529069   4.767   0.718   5.147  0.2822  0.3587  0.6146
 1163THY    CM129070   4.657   0.798   5.087 -0.5685 -0.2754  0.6852
 1163THY    HM129071   4.666   0.793   4.978  1.1433 -1.7388  0.8464
 1163THY    HM229072   4.557   0.769   5.122 -1.8335  2.4247 -0.4176
 1163THY    HM329073   4.667   0.905   5.107 -0.7420  0.4057 -2.4164
 1163THY    CA629074   4.806   0.753   5.273  0.9192  0.4464 -0.1492
 1163THY    HA629075   4.756   0.830   5.330 -0.1102  0.2365 -0.7498
 1164THY      O29076   9.451   8.204   5.484  0.5585 -0.7481 -0.0923
 1164THY     HO29077   9.541   8.177   5.508 -0.2301 -1.8947  1.8060
 1164THY    CA129078   9.460   8.282   5.370  0.0400 -0.1855 -0.9524
 1164THY    CA229079   9.355   8.366   5.338  0.1347  0.2553 -0.2890
 1164THY    CP129080   9.223   8.355   5.420  0.2905 -0.3486  0.0562
 1164THY    HP129081   9.245   8.323   5.523 -0.2893 -1.2967 -0.1036
 1164THY    CP229082   9.144   8.489   5.420 -0.4210 -0.3931 -0.0962
 1164THY    HP229083   9.210   8.568   5.457  0.0675 -1.0211  0.3842
 1164THY    HP329084   9.116   8.515   5.317  2.8065  0.6131 -0.8236
 1164THY    HP429085   9.058   8.482   5.487 -0.9725  1.8666 -0.4806
 1164THY    CP329086   9.133   8.248   5.370 -0.4265  0.1194 -0.2063
 1164THY    HP529087   9.120   8.248   5.261  1.9081 -0.1310 -0.5364
 1164THY    HP629088   9.185   8.153   5.387  2.0483  1.3684 -0.3917
 1164THY    HP729089   9.033   8.247   5.414 -0.2153  0.6026  0.3034
 1164THY    CA329090   9.360   8.426   5.210  0.6822  0.2817  0.2119
 1164THY    HA329091   9.281   8.490   5.171  0.5811 -1.2307 -2.2055
 1164THY    CA429092   9.471   8.406   5.129  0.4477 -0.2843 -0.0412
 1164THY    HA429093   9.481   8.460   5.035  3.2235 -0.5326  0.0362
 1164THY    CA529094   9.579   8.331   5.174 -0.0890  0.3214 -0.4555
 1164THY    CM129095   9.700   8.301   5.091 -0.4578  0.3024 -0.1685
 1164THY    HM129096   9.695   8.207   5.034  1.2688 -0.9287  1.6023
 1164THY    HM229097   9.721   8.388   5.028  0.2048  0.0978 -0.2391
 1164THY    HM329098   9.786   8.295   5.159 -1.0504  1.3416  0.6865
 1164THY    CA629099   9.571   8.259   5.292 -0.5545  0.7521  0.4093
 1164THY    HA629100   9.645   8.182   5.309 -2.0950 -1.4715 -2.0694
 1165THY      O29101   8.281   0.358   1.968 -0.7754 -0.1693  0.1886
 1165THY     HO29102   8.301   0.282   1.911  0.4825  0.1632  0.1630
 1165THY    CA129103   8.324   0.480   1.920  0.0749  0.7282 -0.0537
 1165THY    CA229104   8.243   0.589   1.914  0.9831  0.7237 -0.4563
 1165THY    CP129105   8.098   0.593   1.971  0.5001 -0.5137 -0.0909
 1165THY    HP129106   8.052   0.496   1.991 -1.8798  0.5679  0.1121
 1165THY    CP229107   8.114   0.649   2.116  0.4610  0.3847 -0.3029
 1165THY    HP229108   8.168   0.745   2.113  3.7346 -1.2677  0.9319
 1165THY    HP329109   8.011   0.654   2.153  0.0263  0.0258 -1.3959
 1165THY    HP429110   8.172   0.581   2.179 -0.4992  0.6931  0.9566
 1165THY    CP329111   7.995   0.677   1.892 -0.3967  0.7437  0.0900
 1165THY    HP529112   8.006   0.639   1.790 -0.3380 -0.5037  0.5334
 1165THY    HP629113   7.893   0.669   1.931 -0.4830  2.3054  0.2476
 1165THY    HP729114   8.013   0.785   1.888 -3.9688  1.4133 -2.3888
 1165THY    CA329115   8.298   0.706   1.862  0.2101  0.0621  0.4606
 1165THY    HA329116   8.246   0.800   1.873 -0.0134  0.1515 -1.1218
 1165THY    CA429117   8.425   0.698   1.803 -0.1948 -0.2189  0.5635
 1165THY    HA429118   8.468   0.791   1.764 -0.9831 -0.0028  0.2033
 1165THY    CA529119   8.497   0.583   1.802  0.7965 -0.6268  0.3891
 1165THY    CM129120   8.640   0.589   1.745 -0.6591 -0.6713  0.0591
 1165THY    HM129121   8.611   0.604   1.640 -3.1982 -3.2688  0.2660
 1165THY    HM229122   8.703   0.672   1.779  0.2798 -0.0412 -2.8908
 1165THY    HM329123   8.701   0.499   1.755 -0.9400 -0.9178 -0.4135
 1165THY    CA629124   8.450   0.474   1.863  0.5850 -0.5376  0.4309
 1165THY    HA629125   8.518   0.390   1.870  3.1688  1.0559 -2.7921
 1166THY      O29126   8.736   1.316   1.861 -0.2498  0.7152  0.7944
 1166THY     HO29127   8.727   1.319   1.765 -2.2126  0.5186  0.9362
 1166THY    CA129128   8.860   1.366   1.888  0.4612 -0.0798 -1.1221
 1166THY    CA229129   8.912   1.384   2.019  0.1602 -0.3292 -0.6792
 1166THY    CP129130   8.823   1.331   2.130  0.2504 -0.0047 -0.5013
 1166THY    HP129131   8.724   1.293   2.100 -0.9396  0.2488  2.6547
 1166THY    CP229132   8.879   1.194   2.184 -0.3346  0.1996 -0.1154
 1166THY    HP229133   8.822   1.158   2.270 -1.2469  0.4017 -0.6232
 1166THY    HP329134   8.871   1.133   2.094  0.6691 -0.6859  0.3695
 1166THY    HP429135   8.986   1.214   2.202 -0.6451  1.2711  0.6480
 1166THY    CP329136   8.799   1.425   2.244  0.5178 -0.5530  0.0209
 1166THY    HP529137   8.707   1.402   2.299 -1.5674 -1.0795 -3.4107
 1166THY    HP629138   8.887   1.427   2.310  0.0306 -0.0892  0.6733
 1166THY    HP729139   8.801   1.530   2.213  0.1706  0.1257  2.1388
 1166THY    CA329140   9.040   1.432   2.040  0.0247 -0.5411  0.2074
 1166THY    HA329141   9.075   1.437   2.143  1.4603 -5.0284  0.1247
 1166THY    CA429142   9.124   1.463   1.926  0.4813  0.4986 -0.0029
 1166THY    HA429143   9.227   1.496   1.924  0.4659  0.5158 -0.7231
 1166THY    CA529144   9.067   1.454   1.798  0.0948  0.4801  0.1263
 1166THY    CM129145   9.146   1.495   1.675 -0.0491 -0.8074 -0.1365
 1166THY    HM129146   9.092   1.574   1.622  2.0276  3.1461  3.0248
 1166THY    HM229147   9.237   1.552   1.696 -0.2536  0.2940 -2.0489
 1166THY    HM329148   9.154   1.408   1.610 -2.2849 -2.4226  1.5633
 1166THY    CA629149   8.937   1.407   1.781  0.4837  0.3028 -0.2070
 1166THY    HA629150   8.900   1.407   1.678 -1.4460  0.6872  0.4470
 1167THY      O29151   1.059   7.391   7.061  0.3220 -0.1312 -0.1062
 1167THY     HO29152   0.989   7.404   6.995 -0.3820  0.9581  0.8283
 1167THY    CA129153   1.066   7.506   7.135  0.5931 -0.1027  0.9402
 1167THY    CA229154   1.090   7.516   7.272 -0.3705 -0.0455  0.1091
 1167THY    CP129155   1.104   7.386   7.356  0.0323  0.4137 -0.2819
 1167THY    HP129156   1.066   7.305   7.292  0.2061  1.0366 -1.1882
 1167THY    CP229157   1.260   7.362   7.379  0.1529  0.2814  0.3456
 1167THY    HP229158   1.312   7.431   7.446  1.5726  0.4230 -0.8535
 1167THY    HP329159   1.281   7.258   7.404 -0.7160 -0.6391 -2.4008
 1167THY    HP429160   1.310   7.359   7.282 -0.7501 -1.1606 -0.1061
 1167THY    CP329161   1.033   7.375   7.489  0.1585  0.3113  0.6424
 1167THY    HP529162   1.067   7.294   7.554 -3.9184 -3.1023 -1.0463
 1167THY    HP629163   1.043   7.467   7.548  2.1411  0.6660 -0.1431
 1167THY    HP729164   0.926   7.356   7.476  0.4381 -1.0649  0.2476
 1167THY    CA329165   1.090   7.645   7.331  0.4982 -0.6969 -0.1465
 1167THY    HA329166   1.106   7.655   7.438 -2.5424 -0.1374  0.3526
 1167THY    CA429167   1.080   7.761   7.256  0.2437 -0.6327 -0.2272
 1167THY    HA429168   1.054   7.859   7.293 -2.1958 -0.6456 -1.6521
 1167THY    CA529169   1.076   7.742   7.116 -0.0058 -0.9978 -0.0578
 1167THY    CM129170   1.089   7.853   7.014  0.6750  0.3785  0.7616
 1167THY    HM129171   0.991   7.896   6.993  0.0943 -1.7332 -1.3090
 1167THY    HM229172   1.150   7.933   7.057 -0.8440  1.4667  0.9520
 1167THY    HM329173   1.140   7.828   6.920  0.4354 -0.1155  0.7567
 1167THY    CA629174   1.062   7.621   7.055 -0.5552  0.5679  0.7928
 1167THY    HA629175   1.044   7.606   6.949 -1.8364  0.1877  1.0492
 1168THY      O29176   8.863   7.087   6.334  0.0149  0.5377 -0.1526
 1168THY     HO29177   8.905   6.999   6.340  0.0358  0.5882  0.5401
 1168THY    CA129178   8.733   7.059   6.305 -0.2836 -0.2497 -0.1796
 1168THY    CA229179   8.644   7.169   6.289 -0.2429 -0.3741  0.0660
 1168THY    CP129180   8.702   7.317   6.290  0.3322  0.1363  0.4326
 1168THY    HP129181   8.797   7.328   6.344  2.1556  1.4373 -2.7422
 1168THY    CP229182   8.725   7.363   6.149  0.5011  0.4631  0.3851
 1168THY    HP229183   8.778   7.458   6.138  0.2632  0.7436  1.5153
 1168THY    HP329184   8.777   7.276   6.108  0.6699  1.2875 -1.2165
 1168THY    HP429185   8.629   7.380   6.100  0.4362 -2.0164 -0.4748
 1168THY    CP329186   8.603   7.410   6.364 -0.4646 -0.6535  0.3859
 1168THY    HP529187   8.646   7.510   6.375 -0.8782 -0.4317  0.0245
 1168THY    HP629188   8.511   7.431   6.309  0.0207  2.0079  0.4511
 1168THY    HP729189   8.580   7.370   6.463 -1.6424  1.2649  0.9442
 1168THY    CA329190   8.510   7.143   6.271 -0.0239  0.4534 -0.3921
 1168THY    HA329191   8.449   7.230   6.248 -1.3151 -0.6949 -1.5131
 1168THY    CA429192   8.460   7.011   6.286 -0.7354  0.1191  0.2103
 1168THY    HA429193   8.358   6.986   6.260 -0.9832 -0.4412  1.6509
 1168THY    CA529194   8.545   6.905   6.299 -0.2881  0.7265 -0.1019
 1168THY    CM129195   8.498   6.763   6.297  0.4551  0.1116 -0.6109
 1168THY    HM129196   8.550   6.703   6.373  2.0923  2.5723  0.3498
 1168THY    HM229197   8.391   6.761   6.323  0.1902  1.6057 -1.4892
 1168THY    HM329198   8.513   6.710   6.203  0.6829  1.0241 -1.0985
 1168THY    CA629199   8.688   6.930   6.311  0.8559 -0.8680  0.3172
 1168THY    HA629200   8.755   6.848   6.334  0.5181 -0.4282  3.2538
 1169THY      O29201   9.515   7.675   7.593  0.9280 -0.7729  0.0488
 1169THY     HO29202   9.534   7.586   7.628 -0.3954 -1.9993 -2.0858
 1169THY    CA129203   9.596   7.690   7.482  0.4782 -0.2480  0.2223
 1169THY    CA229204   9.578   7.779   7.376  0.1246  0.6728  0.6275
 1169THY    CP129205   9.467   7.884   7.391 -0.3407  0.4249 -0.0892
 1169THY    HP129206   9.458   7.909   7.497 -0.2315  2.0966 -0.4457
 1169THY    CP229207   9.487   8.014   7.317  0.5573  0.7518 -0.5727
 1169THY    HP229208   9.566   8.063   7.375 -0.0821 -0.4957  1.4539
 1169THY    HP329209   9.499   7.999   7.209 -3.5469  0.0799 -1.0714
 1169THY    HP429210   9.399   8.078   7.325 -0.6391 -0.5742 -2.3710
 1169THY    CP329211   9.328   7.825   7.361 -0.5005  0.3099 -0.2765
 1169THY    HP529212   9.290   7.872   7.269 -2.1611  2.4185  1.4007
 1169THY    HP629213   9.337   7.718   7.338 -0.0028  0.5522 -1.3063
 1169THY    HP729214   9.257   7.847   7.441  0.3255  0.5339  0.4059
 1169THY    CA329215   9.664   7.772   7.259 -0.2103 -0.2367  0.0527
 1169THY    HA329216   9.643   7.843   7.179  1.1436  0.7669  0.5655
 1169THY    CA429217   9.766   7.680   7.255  0.4104  0.0006 -0.0553
 1169THY    HA429218   9.834   7.678   7.170  0.4796 -0.9717  0.0101
 1169THY    CA529219   9.772   7.586   7.360 -0.2428 -0.1472 -0.0082
 1169THY    CM129220   9.884   7.485   7.352 -0.3520 -0.2672 -0.5626
 1169THY    HM129221   9.901   7.440   7.451  0.0398 -1.2695 -1.0696
 1169THY    HM229222   9.852   7.394   7.299 -2.9608  0.0804  0.2475
 1169THY    HM329223   9.978   7.518   7.307  0.5627  0.2490  1.6166
 1169THY    CA629224   9.693   7.591   7.472  0.7613  0.9039  0.2976
 1169THY    HA629225   9.701   7.516   7.549 -1.0985 -0.4969 -0.7840
 1170THY      O29226   8.344   5.068   8.751 -0.3050  0.6643 -0.1578
 1170THY     HO29227   8.261   5.029   8.718 -0.0142 -0.8032  0.7203
 1170THY    CA129228   8.314   5.130   8.866 -0.1102  0.4379  0.5284
 1170THY    CA229229   8.411   5.185   8.957  0.3895  0.0539  0.5599
 1170THY    CP129230   8.565   5.163   8.928 -0.4495 -0.1330  0.0672
 1170THY    HP129231   8.585   5.088   8.850  3.0819  2.1056 -1.4125
 1170THY    CP229232   8.643   5.282   8.878 -0.5666  0.3356  0.2905
 1170THY    HP229233   8.742   5.260   8.836 -0.6294 -0.2061  0.4311
 1170THY    HP329234   8.593   5.333   8.794 -0.4912 -1.9594 -1.2277
 1170THY    HP429235   8.666   5.362   8.949 -0.4947 -0.4646  1.1675
 1170THY    CP329236   8.633   5.115   9.055  0.7227  0.3047  0.4169
 1170THY    HP529237   8.634   5.193   9.131 -1.4434  0.6705  0.1508
 1170THY    HP629238   8.583   5.025   9.092  0.8030  0.6846  1.4592
 1170THY    HP729239   8.733   5.078   9.032 -0.3524 -1.6257 -1.6225
 1170THY    CA329240   8.361   5.258   9.071 -0.1380 -0.2412  0.1470
 1170THY    HA329241   8.433   5.298   9.141  1.7433 -0.6933 -1.4239
 1170THY    CA429242   8.223   5.272   9.092  0.7368 -0.8533  0.0637
 1170THY    HA429243   8.191   5.320   9.184  0.7639 -0.3774 -0.1734
 1170THY    CA529244   8.129   5.219   9.005 -0.2561  0.4255  0.3374
 1170THY    CM129245   7.986   5.216   9.046  0.6824 -0.7173 -0.0167
 1170THY    HM129246   7.960   5.292   9.121  1.1429 -1.1129  0.5488
 1170THY    HM229247   7.918   5.226   8.961 -0.3200 -2.0882  0.5948
 1170THY    HM329248   7.968   5.118   9.090  1.7803 -1.4439 -1.1119
 1170THY    CA629249   8.178   5.147   8.894 -0.1200  0.0289  0.0685
 1170THY    HA629250   8.107   5.105   8.825  0.6714 -1.1246 -0.0706
 1171THY      O29251   8.228   6.578   5.696 -0.0132 -0.1115 -0.1598
 1171THY     HO29252   8.240   6.637   5.772 -1.0565 -1.3230  1.0029
 1171THY    CA129253   8.125   6.625   5.625  0.2911  0.2263 -0.8690
 1171THY    CA229254   8.053   6.547   5.540 -0.5023 -0.5698 -0.0483
 1171THY    CP129255   8.091   6.398   5.520 -0.1358 -0.0968 -0.2738
 1171THY    HP129256   8.166   6.370   5.595  1.0547  2.2843 -0.4572
 1171THY    CP229257   7.979   6.304   5.545  0.1097 -0.4978 -0.0511
 1171THY    HP229258   7.893   6.337   5.486 -1.3640 -2.0883  1.1278
 1171THY    HP329259   8.000   6.199   5.523 -1.3730 -0.9585  0.6106
 1171THY    HP429260   7.954   6.320   5.650 -1.5445 -0.5698 -0.4042
 1171THY    CP329261   8.147   6.378   5.382  0.5804 -0.6419 -0.6139
 1171THY    HP529262   8.242   6.434   5.379  0.2670  0.2013  2.3055
 1171THY    HP629263   8.144   6.272   5.354 -3.5452 -0.5536 -1.0395
 1171THY    HP729264   8.081   6.432   5.313  0.2191 -1.5834 -1.0251
 1171THY    CA329265   7.945   6.614   5.469  0.1009  0.3468 -1.1483
 1171THY    HA329266   7.882   6.566   5.394 -2.2788  2.1591 -0.4246
 1171THY    CA429267   7.916   6.755   5.501 -0.4275  0.4981 -0.0249
 1171THY    HA429268   7.847   6.812   5.439 -0.0307 -0.0190 -0.9657
 1171THY    CA529269   7.984   6.823   5.600 -0.3185 -0.3287  0.0691
 1171THY    CM129270   7.961   6.967   5.614  0.0130 -0.0070  0.3938
 1171THY    HM129271   7.865   7.006   5.651  0.2476 -0.1532  1.1866
 1171THY    HM229272   8.036   7.006   5.684 -1.6697 -1.1239  2.9764
 1171THY    HM329273   7.979   7.014   5.517 -2.0175 -1.9389 -1.0171
 1171THY    CA629274   8.095   6.757   5.655  0.3591 -0.8420  0.9741
 1171THY    HA629275   8.169   6.817   5.706  0.6140  0.8922 -1.2625
 1172THY      O29276   2.087   1.327   2.483 -0.2816  0.2291  0.3481
 1172THY     HO29277   2.041   1.250   2.522  0.3014 -0.2470  0.1175
 1172THY    CA129278   2.218   1.321   2.532  0.1680  0.0682  0.0722
 1172THY    CA229279   2.326   1.391   2.472 -0.4049  0.1399  0.1816
 1172THY    CP129280   2.303   1.484   2.347 -0.0382 -0.4644 -0.3471
 1172THY    HP129281   2.199   1.503   2.316 -0.3117  0.4919  1.0628
 1172THY    CP229282   2.365   1.627   2.384 -0.2363 -0.2437  0.2562
 1172THY    HP229283   2.301   1.685   2.452 -0.0071  0.5455 -0.1970
 1172THY    HP329284   2.467   1.616   2.423  0.1250 -2.0156 -1.0661
 1172THY    HP429285   2.370   1.692   2.297  1.3601  0.5744  0.9302
 1172THY    CP329286   2.382   1.433   2.221  0.4323  0.1242  0.1072
 1172THY    HP529287   2.352   1.334   2.184  2.1796 -0.2338 -0.4772
 1172THY    HP629288   2.346   1.497   2.140 -1.6502 -1.3179 -0.1957
 1172THY    HP729289   2.491   1.429   2.236  0.3048 -0.6450  0.9423
 1172THY    CA329290   2.463   1.362   2.516  0.6256  0.8061  0.1085
 1172THY    HA329291   2.547   1.413   2.472  0.1418  0.9034 -0.7154
 1172THY    CA429292   2.477   1.271   2.626 -0.7069 -0.6670 -0.7427
 1172THY    HA429293   2.569   1.272   2.683 -1.5937 -0.4868  0.7506
 1172THY    CA529294   2.364   1.206   2.682 -0.1822 -0.3198 -0.9551
 1172THY    CM129295   2.380   1.112   2.801 -0.0296 -0.2254  0.6241
 1172THY    HM129296   2.412   1.153   2.897  0.1476  0.1472  0.4083
 1172THY    HM229297   2.281   1.068   2.815  0.1850 -1.2316 -0.7944
 1172THY    HM329298   2.445   1.027   2.774 -1.3812 -1.1278  0.0850
 1172THY    CA629299   2.232   1.226   2.631  0.1553 -0.3860 -0.0232
 1172THY    HA629300   2.143   1.174   2.662 -1.1932  0.1637 -2.6418
 1173THY      O29301   4.071   5.569   6.260 -0.1909 -0.1122 -0.0937
 1173THY     HO29302   4.166   5.555   6.243  0.3430 -1.1507  3.0461
 1173THY    CA129303   4.055   5.488   6.370  0.0637 -0.2380  0.3999
 1173THY    CA229304   3.930   5.435   6.403 -0.4272 -0.0898  0.0391
 1173THY    CP129305   3.817   5.462   6.307 -0.1403  0.2594 -0.0757
 1173THY    HP129306   3.840   5.515   6.214 -2.3191  0.1321 -0.7489
 1173THY    CP229307   3.751   5.335   6.259 -0.4937 -0.6148 -0.3863
 1173THY    HP229308   3.822   5.253   6.244  1.0771  0.8838 -1.4265
 1173THY    HP329309   3.668   5.293   6.317 -0.1506 -1.2024 -0.3072
 1173THY    HP429310   3.714   5.352   6.158  0.6890  1.4911 -0.5102
 1173THY    CP329311   3.711   5.547   6.378  0.0612 -0.0526 -0.4710
 1173THY    HP529312   3.758   5.639   6.415 -0.5160 -0.2407  0.7828
 1173THY    HP629313   3.641   5.595   6.310 -0.6481 -0.5691 -0.1145
 1173THY    HP729314   3.658   5.504   6.464  1.0571  0.5318  0.4590
 1173THY    CA329315   3.911   5.339   6.513 -0.4107 -1.0943  0.5824
 1173THY    HA329316   3.813   5.297   6.529 -0.6561 -0.3865  0.9856
 1173THY    CA429317   4.025   5.311   6.584 -0.2675 -0.2425  0.6208
 1173THY    HA429318   4.026   5.236   6.662 -0.5458 -0.9822 -0.0718
 1173THY    CA529319   4.151   5.375   6.552  0.2495  0.1859  0.3168
 1173THY    CM129320   4.276   5.336   6.623  0.2531 -0.2266  0.8072
 1173THY    HM129321   4.261   5.257   6.697  1.4310  0.4049  1.7644
 1173THY    HM229322   4.348   5.292   6.554  0.7516 -0.5706  1.5287
 1173THY    HM329323   4.326   5.419   6.676  1.4985 -0.2806 -0.2456
 1173THY    CA629324   4.168   5.455   6.436 -0.0115 -0.0706 -0.4850
 1173THY    HA629325   4.266   5.498   6.419  0.6229 -0.2654  2.1731
 1174THY      O29326   8.407   0.244   0.816  0.3177 -0.2384 -0.1373
 1174THY     HO29327   8.349   0.185   0.765 -0.3422 -0.7994  1.1897
 1174THY    CA129328   8.381   0.214   0.945 -0.5366  0.2715 -0.2318
 1174THY    CA229329   8.431   0.290   1.056 -0.0283  1.0019 -0.3846
 1174THY    CP129330   8.513   0.413   1.041 -0.6213  0.3300  0.0955
 1174THY    HP129331   8.510   0.444   0.936  0.1663 -2.9181 -0.9799
 1174THY    CP229332   8.479   0.534   1.124  0.3773  0.4035 -0.1848
 1174THY    HP229333   8.518   0.524   1.226  2.0589 -3.1764 -1.0053
 1174THY    HP329334   8.529   0.621   1.080  1.3021  0.8670  1.6546
 1174THY    HP429335   8.371   0.551   1.132 -0.2409 -1.9958 -2.3450
 1174THY    CP329336   8.660   0.384   1.071  0.2199  0.0714 -0.2636
 1174THY    HP529337   8.682   0.281   1.041  1.6127  0.8672 -2.1662
 1174THY    HP629338   8.727   0.449   1.014  1.3000 -1.0879 -0.3718
 1174THY    HP729339   8.683   0.387   1.178 -0.2571  0.8095 -0.1781
 1174THY    CA329340   8.402   0.243   1.184  0.6914 -1.2169 -0.4241
 1174THY    HA329341   8.439   0.290   1.274 -2.0295 -0.0238  0.1793
 1174THY    CA429342   8.309   0.139   1.214 -0.2432 -0.3348  0.4712
 1174THY    HA429343   8.274   0.119   1.315  0.5803 -2.8045  0.3417
 1174THY    CA529344   8.250   0.081   1.102 -0.2771 -0.4865  0.0392
 1174THY    CM129345   8.131  -0.007   1.112  0.0121 -0.2910 -0.2807
 1174THY    HM129346   8.053   0.049   1.164  1.4803  0.9928  0.6436
 1174THY    HM229347   8.099  -0.055   1.019 -0.0012 -3.3648  1.1779
 1174THY    HM329348   8.161  -0.081   1.188  1.1233  0.7440  0.3376
 1174THY    CA629349   8.291   0.111   0.967  0.1082 -0.3292  0.2378
 1174THY    HA629350   8.240   0.053   0.890  0.9082 -0.1666 -0.4332
 1175THY      O29351   5.947   4.099   2.208  0.0658  0.0226 -0.0203
 1175THY     HO29352   5.946   4.063   2.298 -5.0407 -0.0661  0.1716
 1175THY    CA129353   5.866   4.212   2.218  0.4339  0.1155 -0.4084
 1175THY    CA229354   5.771   4.246   2.121 -0.1171  0.1055  0.2839
 1175THY    CP129355   5.750   4.162   1.999  0.0934 -0.9057  0.3038
 1175THY    HP129356   5.816   4.075   2.004  1.2900 -0.0404  0.1838
 1175THY    CP229357   5.605   4.118   1.995 -0.0481 -0.2541  0.4779
 1175THY    HP229358   5.585   4.047   1.914 -1.2731  0.0505  0.4970
 1175THY    HP329359   5.588   4.058   2.086 -3.6137  1.9009  1.4510
 1175THY    HP429360   5.536   4.200   2.017 -0.2978 -0.5265  0.7183
 1175THY    CP329361   5.792   4.249   1.877  0.2115 -0.3946 -0.0214
 1175THY    HP529362   5.797   4.182   1.791 -1.3357 -2.9281  1.7188
 1175THY    HP629363   5.731   4.339   1.861 -0.3061 -0.4372  1.5252
 1175THY    HP729364   5.896   4.276   1.896  0.5425 -2.3943  1.2969
 1175THY    CA329365   5.699   4.365   2.141  0.1320 -0.0232 -0.3618
 1175THY    HA329366   5.632   4.395   2.061  1.5222 -0.8590 -1.8816
 1175THY    CA429367   5.718   4.447   2.260  0.1375  0.0215 -0.2900
 1175THY    HA429368   5.669   4.543   2.271  3.8260  2.1424 -0.6639
 1175THY    CA529369   5.816   4.415   2.357  0.2463 -0.3118  0.4693
 1175THY    CM129370   5.840   4.503   2.477  0.5191 -0.4692  0.5293
 1175THY    HM129371   5.911   4.442   2.534  0.7198 -0.7659 -0.0317
 1175THY    HM229372   5.875   4.604   2.455  2.6276 -1.3706 -0.5861
 1175THY    HM329373   5.750   4.505   2.539  0.8582 -0.4434  1.0253
 1175THY    CA629374   5.889   4.292   2.338  0.4395 -0.0169 -0.1941
 1175THY    HA629375   5.957   4.261   2.416 -1.9310 -2.3231  1.1291
 1176THY      O29376   2.798   4.779   7.784  0.0062 -0.5426 -0.5022
 1176THY     HO29377   2.796   4.873   7.756  1.8026  0.5371  2.4666
 1176THY    CA129378   2.757   4.794   7.909  0.9096  0.2164  0.4170
 1176THY    CA229379   2.707   4.683   7.978  0.1252  0.2231  0.4272
 1176THY    CP129380   2.700   4.545   7.915  0.2881 -0.6793  0.0182
 1176THY    HP129381   2.678   4.556   7.808 -0.8353 -1.1395  0.1958
 1176THY    CP229382   2.840   4.470   7.919 -0.0329  1.0365 -0.6631
 1176THY    HP229383   2.930   4.526   7.891  3.0152 -2.2682  1.6488
 1176THY    HP329384   2.874   4.423   8.012  1.4018  1.0297 -1.1640
 1176THY    HP429385   2.845   4.398   7.837  1.3933  1.9621 -1.4279
 1176THY    CP329386   2.592   4.463   7.987 -0.4141  0.5073  0.9472
 1176THY    HP529387   2.561   4.378   7.925 -0.6710  0.3755  1.2477
 1176THY    HP629388   2.625   4.427   8.085  0.5451  1.1172  0.8603
 1176THY    HP729389   2.499   4.521   7.993  0.9030  2.5501  2.7905
 1176THY    CA329390   2.650   4.714   8.100  0.3783  0.1133 -0.1950
 1176THY    HA329391   2.597   4.639   8.157 -1.0223 -0.4398 -2.1207
 1176THY    CA429392   2.659   4.845   8.153  0.2341  0.7153  0.5763
 1176THY    HA429393   2.628   4.858   8.256 -0.2975  0.1733  0.4933
 1176THY    CA529394   2.717   4.947   8.083  0.1040  0.1253  0.0724
 1176THY    CM129395   2.723   5.087   8.142 -0.3202 -0.3071  0.1699
 1176THY    HM129396   2.661   5.154   8.082  1.3192 -0.4707 -1.7926
 1176THY    HM229397   2.683   5.089   8.244  1.9115 -0.1752  1.1037
 1176THY    HM329398   2.821   5.137   8.134 -0.8769  0.9645  0.8917
 1176THY    CA629399   2.752   4.926   7.957  0.0468 -0.1112 -0.2132
 1176THY    HA629400   2.806   5.006   7.907  1.2691  0.9824  2.6527
 1177THY      O29401   2.945   6.039   0.905  0.1381 -0.0885  0.4069
 1177THY     HO29402   3.016   6.103   0.888  0.3889 -0.4412  0.0783
 1177THY    CA129403   2.855   6.042   0.800 -0.2099 -0.6842 -0.3114
 1177THY    CA229404   2.833   5.921   0.723  0.3601  0.0013  0.3728
 1177THY    CP129405   2.904   5.790   0.759 -0.4916  0.8715 -1.3181
 1177THY    HP129406   2.984   5.819   0.829 -1.3603  2.8798 -1.1001
 1177THY    CP229407   2.808   5.698   0.852  0.1105  0.1986 -0.0258
 1177THY    HP229408   2.779   5.762   0.936  2.2142 -0.3088  1.1549
 1177THY    HP329409   2.725   5.667   0.787  0.6960  1.2452 -1.3255
 1177THY    HP429410   2.852   5.607   0.895 -0.3171 -0.2131 -0.4422
 1177THY    CP329411   2.959   5.722   0.638 -0.3080 -0.3583  0.0740
 1177THY    HP529412   2.998   5.621   0.650 -2.6230 -1.6373 -2.1901
 1177THY    HP629413   2.881   5.688   0.569  1.5083 -0.5985 -1.9820
 1177THY    HP729414   3.030   5.788   0.587 -0.2987  0.6909  1.3824
 1177THY    CA329415   2.740   5.925   0.616  0.1432  0.3851  0.0640
 1177THY    HA329416   2.708   5.840   0.557 -0.0409  0.7997 -0.4514
 1177THY    CA429417   2.684   6.049   0.579 -0.6044 -0.5095  0.0414
 1177THY    HA429418   2.614   6.059   0.497 -1.1477  1.0504  0.6504
 1177THY    CA529419   2.734   6.167   0.641 -1.2864 -0.1147  0.5498
 1177THY    CM129420   2.689   6.304   0.591 -0.3785 -0.6765 -0.0940
 1177THY    HM129421   2.632   6.352   0.671  0.1298  2.6737 -1.5955
 1177THY    HM229422   2.764   6.380   0.568  0.7642 -1.0120  2.2351
 1177THY    HM329423   2.628   6.292   0.501 -2.6640  1.0799  1.1418
 1177THY    CA629424   2.811   6.160   0.758 -0.5381 -0.5222 -0.7827
 1177THY    HA629425   2.833   6.252   0.810 -2.4947 -1.6343  2.2300
 1178THY      O29426   5.821   4.895   6.551  0.2214 -0.7226 -0.4118
 1178THY     HO29427   5.833   4.990   6.567  2.1715 -1.4799  4.0727
 1178THY    CA129428   5.690   4.884   6.506 -0.4147  0.5842  0.1073
 1178THY    CA229429   5.644   4.776   6.428 -0.0133 -0.6052  0.0497
 1178THY    CP129430   5.733   4.665   6.391 -0.1010  0.0540 -0.0951
 1178THY    HP129431   5.810   4.660   6.469 -0.5215 -1.1673  0.2746
 1178THY    CP229432   5.665   4.525   6.358  0.4264 -0.2452  0.7111
 1178THY    HP229433   5.748   4.459   6.329  0.2690 -0.1081 -0.0521
 1178THY    HP329434   5.612   4.487   6.447 -0.8743 -1.5261 -0.5654
 1178THY    HP429435   5.589   4.535   6.281  0.1757  0.3108  1.0279
 1178THY    CP329436   5.809   4.705   6.261 -0.4800 -0.1267 -0.1921
 1178THY    HP529437   5.841   4.809   6.273  1.8526 -0.6708 -1.1331
 1178THY    HP629438   5.895   4.640   6.241 -1.3149 -1.3551  0.1045
 1178THY    HP729439   5.742   4.694   6.176  0.7708 -2.2808 -0.9759
 1178THY    CA329440   5.508   4.787   6.380 -0.1135  0.2651 -0.2372
 1178THY    HA329441   5.465   4.723   6.304  1.7931  2.3627 -3.2747
 1178THY    CA429442   5.429   4.904   6.399 -0.7247  0.2633 -0.0392
 1178THY    HA429443   5.336   4.921   6.346 -0.7838 -1.4775 -0.5324
 1178THY    CA529444   5.475   5.002   6.491  0.1622  0.6322 -0.2973
 1178THY    CM129445   5.385   5.108   6.547  0.1538  0.4116 -0.0505
 1178THY    HM129446   5.279   5.094   6.523  0.0944 -0.4607  0.6904
 1178THY    HM229447   5.391   5.114   6.656  0.2723 -1.2977  0.0588
 1178THY    HM329448   5.421   5.207   6.515  2.4886 -0.9717 -2.0547
 1178THY    CA629449   5.605   4.985   6.543 -0.1873 -0.6482 -0.3993
 1178THY    HA629450   5.651   5.056   6.611 -1.1111 -1.2240  0.8567
 1179THY      O29451   2.615   7.422   0.382 -0.1315 -0.2224  0.1944
 1179THY     HO29452   2.646   7.378   0.300  1.3445 -0.0819  0.6556
 1179THY    CA129453   2.711   7.521   0.398  0.0698 -0.2812  0.2058
 1179THY    CA229454   2.699   7.614   0.502  0.2401 -0.2113 -0.2174
 1179THY    CP129455   2.579   7.608   0.603 -0.0131 -0.1115  0.4155
 1179THY    HP129456   2.490   7.568   0.554  0.3034 -0.9514  0.5029
 1179THY    CP229457   2.613   7.526   0.726  0.2938 -0.2381 -0.0328
 1179THY    HP229458   2.534   7.516   0.801  0.1771  1.8188  0.1703
 1179THY    HP329459   2.628   7.424   0.689  0.6868 -0.1706 -0.0651
 1179THY    HP429460   2.699   7.559   0.786  0.0801  0.5674 -0.1630
 1179THY    CP329461   2.551   7.740   0.664 -0.6506  0.0071 -0.1742
 1179THY    HP529462   2.526   7.822   0.595 -2.9642 -0.8793 -0.4811
 1179THY    HP629463   2.456   7.730   0.717  0.1133 -0.0684  1.2471
 1179THY    HP729464   2.620   7.787   0.735 -1.3435  2.0312 -0.7826
 1179THY    CA329465   2.802   7.710   0.509 -0.2801  0.2051 -0.5552
 1179THY    HA329466   2.787   7.795   0.574  1.1332  2.7228 -3.2695
 1179THY    CA429467   2.901   7.720   0.416 -0.3680 -0.4093  0.0591
 1179THY    HA429468   2.980   7.794   0.424  1.5856 -2.1388 -2.0119
 1179THY    CA529469   2.900   7.639   0.304 -0.7706 -0.3475  0.6847
 1179THY    CM129470   3.003   7.669   0.195  0.0137  0.0933 -0.0278
 1179THY    HM129471   2.997   7.773   0.161  0.4325  0.3967  0.8017
 1179THY    HM229472   3.102   7.667   0.241  0.2554 -1.9117 -0.5535
 1179THY    HM329473   2.994   7.606   0.106  2.8089 -0.0580 -0.2861
 1179THY    CA629474   2.808   7.537   0.294 -0.2933  0.2541 -0.2980
 1179THY    HA629475   2.809   7.466   0.212  1.0694 -0.3089  0.1896
 1180THY      O29476   5.474   8.312   1.504  0.3196  0.3797  0.8329
 1180THY     HO29477   5.383   8.333   1.479  0.8006  2.1157  0.3627
 1180THY    CA129478   5.483   8.298   1.639 -0.2009 -0.4965 -0.3676
 1180THY    CA229479   5.606   8.299   1.709  1.2015  0.0056 -0.0744
 1180THY    CP129480   5.747   8.314   1.651 -0.1804 -0.1323  0.1859
 1180THY    HP129481   5.738   8.345   1.546 -1.1266 -1.0048 -0.0057
 1180THY    CP229482   5.822   8.420   1.741  0.7602 -0.7672 -0.0156
 1180THY    HP229483   5.851   8.382   1.839  1.6874  1.7838  0.7817
 1180THY    HP329484   5.906   8.463   1.684 -0.9356 -1.7040 -3.4921
 1180THY    HP429485   5.748   8.501   1.748 -0.4104 -1.8708  0.8074
 1180THY    CP329486   5.833   8.190   1.649 -0.0197 -0.1012 -0.0126
 1180THY    HP529487   5.838   8.150   1.750 -0.0221 -0.4320 -0.1435
 1180THY    HP629488   5.788   8.117   1.581  1.2640 -2.1444  1.2295
 1180THY    HP729489   5.938   8.208   1.620  0.0784  0.9903  0.9310
 1180THY    CA329490   5.594   8.278   1.850  1.3270 -0.0708 -0.2072
 1180THY    HA329491   5.679   8.270   1.919 -0.0417  1.1415  1.7092
 1180THY    CA429492   5.467   8.260   1.914 -0.5234  0.0845  0.3640
 1180THY    HA429493   5.476   8.251   2.022  1.7940 -1.0708  0.1347
 1180THY    CA529494   5.355   8.272   1.844 -0.1693 -0.0719 -0.2642
 1180THY    CM129495   5.228   8.264   1.916  1.0001 -0.1999  0.1695
 1180THY    HM129496   5.210   8.357   1.971  0.0599 -0.5560  0.4960
 1180THY    HM229497   5.146   8.250   1.845  0.4486 -1.1772  0.9729
 1180THY    HM329498   5.239   8.175   1.981 -1.6209 -0.0764  0.9157
 1180THY    CA629499   5.359   8.290   1.704  0.4414  0.2085  0.3048
 1180THY    HA629500   5.261   8.299   1.658 -0.2639 -2.4786  1.0957
 1181THY      O29501   7.190   1.786   2.203  0.2844 -0.5626 -0.0332
 1181THY     HO29502   7.118   1.722   2.188  1.0856 -0.8788 -3.3688
 1181THY    CA129503   7.179   1.897   2.125  0.0813 -0.4594 -0.0001
 1181THY    CA229504   7.229   2.028   2.163 -0.2969 -0.5876 -0.8724
 1181THY    CP129505   7.298   2.044   2.302 -0.5391  0.9159  0.4785
 1181THY    HP129506   7.307   1.945   2.349 -1.8821  0.4002 -0.3187
 1181THY    CP229507   7.443   2.086   2.285 -0.4022 -0.4532  0.3915
 1181THY    HP229508   7.460   2.172   2.219  1.6416 -1.9769 -1.2281
 1181THY    HP329509   7.499   2.093   2.378 -0.4247  1.4035  0.3039
 1181THY    HP429510   7.504   2.016   2.227  3.0197  1.1125  1.8525
 1181THY    CP329511   7.212   2.128   2.391  0.0992  0.1723 -0.8616
 1181THY    HP529512   7.178   2.219   2.340  0.7646  0.1483 -1.3672
 1181THY    HP629513   7.120   2.073   2.411 -0.3722  1.4982  0.9631
 1181THY    HP729514   7.248   2.159   2.490 -2.2306 -2.1181  0.8248
 1181THY    CA329515   7.221   2.135   2.066  0.1493 -0.4140  0.3371
 1181THY    HA329516   7.277   2.227   2.078  0.6039  0.0858 -3.8903
 1181THY    CA429517   7.161   2.113   1.939 -0.3124 -0.1637  0.8735
 1181THY    HA429518   7.147   2.189   1.863 -0.9303 -0.9674  0.1601
 1181THY    CA529519   7.112   1.982   1.906  0.3255  0.2543  0.3834
 1181THY    CM129520   7.048   1.966   1.767  0.1539  0.1520 -0.8038
 1181THY    HM129521   7.099   2.007   1.680  1.1810 -1.7028 -1.1380
 1181THY    HM229522   7.027   1.860   1.745  0.3666 -0.4597  1.5794
 1181THY    HM329523   6.954   2.021   1.779  0.6848  0.5744  2.1446
 1181THY    CA629524   7.116   1.882   2.002  0.3391 -0.4090 -0.9200
 1181THY    HA629525   7.057   1.796   1.974 -0.7421 -0.2334  0.6473
 1182THY      O29526   1.294   6.613   1.200  0.2295 -0.5033 -0.3524
 1182THY     HO29527   1.359   6.631   1.270 -0.0109 -2.2880  0.3704
 1182THY    CA129528   1.357   6.626   1.080 -0.0431 -0.4608 -0.3168
 1182THY    CA229529   1.290   6.643   0.956 -0.1328  0.4708  1.0389
 1182THY    CP129530   1.142   6.655   0.948  0.0641  0.1891  0.1022
 1182THY    HP129531   1.080   6.631   1.036 -0.8132  2.1946  0.0957
 1182THY    CP229532   1.089   6.792   0.892 -0.2366 -0.0210 -0.2560
 1182THY    HP229533   1.117   6.795   0.786  0.4667  0.3642 -0.0630
 1182THY    HP329534   0.983   6.807   0.915 -0.4433  3.1722 -2.6385
 1182THY    HP429535   1.141   6.874   0.942  0.9898 -1.8579  1.6340
 1182THY    CP329536   1.089   6.561   0.839 -0.4061 -0.5610 -0.1537
 1182THY    HP529537   0.984   6.533   0.851 -0.7289  0.4849 -0.4343
 1182THY    HP629538   1.107   6.587   0.734 -0.3431 -1.5890 -0.4059
 1182THY    HP729539   1.129   6.462   0.865  1.1105 -0.4432 -1.8528
 1182THY    CA329540   1.371   6.639   0.838 -0.0001  0.3947 -0.1561
 1182THY    HA329541   1.328   6.655   0.739 -0.3553  1.0590  0.0987
 1182THY    CA429542   1.505   6.615   0.849  0.0437  0.8602  0.4841
 1182THY    HA429543   1.561   6.622   0.756  1.8465 -0.3419  1.4267
 1182THY    CA529544   1.567   6.601   0.973 -0.0959 -0.2169  0.2259
 1182THY    CM129545   1.714   6.582   0.990 -0.2436 -0.5228  0.0624
 1182THY    HM129546   1.765   6.677   1.008 -1.1182 -0.1459  0.6087
 1182THY    HM229547   1.738   6.503   1.062  1.4767  1.1886  1.4747
 1182THY    HM329548   1.757   6.534   0.901  3.1001  0.9417  0.7387
 1182THY    CA629549   1.492   6.607   1.089  0.5523  0.2307 -0.3341
 1182THY    HA629550   1.534   6.603   1.189 -0.1783  0.0012 -0.0330
 1183THY      O29551   9.130   0.217   3.839 -0.1917 -0.2635 -0.5592
 1183THY     HO29552   9.141   0.149   3.771 -0.1735  0.1772 -1.0012
 1183THY    CA129553   9.070   0.317   3.779  0.1106 -0.1751 -0.5725
 1183THY    CA229554   9.104   0.455   3.806 -1.4617  0.6850 -0.4112
 1183THY    CP129555   9.216   0.483   3.909 -0.2994  0.2807 -0.2275
 1183THY    HP129556   9.214   0.415   3.995 -0.0555  1.2459  0.5595
 1183THY    CP229557   9.361   0.450   3.859 -0.2070 -1.0148  0.5680
 1183THY    HP229558   9.393   0.521   3.781 -0.7120 -0.8138  0.5334
 1183THY    HP329559   9.433   0.459   3.940 -0.4157 -1.7604  0.8376
 1183THY    HP429560   9.377   0.347   3.825 -1.4702 -1.1831  0.4383
 1183THY    CP329561   9.211   0.617   3.975 -0.1631 -0.0721 -0.1744
 1183THY    HP529562   9.118   0.634   4.030 -1.6115  0.4980 -2.6766
 1183THY    HP629563   9.293   0.620   4.048  1.2951 -0.4465 -1.7310
 1183THY    HP729564   9.240   0.699   3.909  1.4253  0.4191  1.0749
 1183THY    CA329565   9.067   0.548   3.714  0.8513  0.3369  0.1888
 1183THY    HA329566   9.100   0.651   3.728 -0.2564  0.6925  0.2941
 1183THY    CA429567   8.974   0.512   3.612  0.1386 -0.1069 -0.9279
 1183THY    HA429568   8.941   0.598   3.555 -1.2664  0.4243  0.5857
 1183THY    CA529569   8.920   0.382   3.597 -0.2785 -0.2775 -0.0106
 1183THY    CM129570   8.807   0.342   3.499 -0.2652 -0.4409  0.2432
 1183THY    HM129571   8.754   0.434   3.470 -1.7864 -0.4548  2.6969
 1183THY    HM229572   8.855   0.302   3.409  1.6015 -2.0232  1.8589
 1183THY    HM329573   8.748   0.264   3.548 -0.1330 -0.4536  0.3822
 1183THY    CA629574   8.981   0.285   3.675 -0.6065  0.2242  0.3484
 1183THY    HA629575   8.964   0.178   3.667  1.4457 -0.1265  0.1285
 1184THY      O29576   1.253   1.187   2.878  0.4747 -0.3382 -0.2693
 1184THY     HO29577   1.316   1.251   2.838  3.2199 -1.6474  1.6744
 1184THY    CA129578   1.139   1.176   2.810 -0.1733  0.4275  0.2174
 1184THY    CA229579   1.062   1.054   2.809 -0.3003 -0.7165 -0.4927
 1184THY    CP129580   1.124   0.939   2.893 -0.0503 -0.6903  0.1908
 1184THY    HP129581   1.233   0.951   2.890 -0.2123  1.2381  0.8719
 1184THY    CP229582   1.088   0.949   3.030 -0.4134  0.2807 -0.4037
 1184THY    HP229583   1.147   1.025   3.081 -0.6885  1.2658 -1.5304
 1184THY    HP329584   0.981   0.974   3.029 -0.2334  1.2375  1.1453
 1184THY    HP429585   1.109   0.849   3.070 -0.0556  0.1398 -0.9317
 1184THY    CP329586   1.095   0.800   2.840  0.4898  0.2745 -0.0468
 1184THY    HP529587   1.170   0.723   2.858 -0.2958 -0.9104 -1.5972
 1184THY    HP629588   0.994   0.770   2.873 -0.2570  2.5217 -0.0752
 1184THY    HP729589   1.097   0.803   2.731 -0.8227  0.8170 -0.0863
 1184THY    CA329590   0.941   1.051   2.743 -0.6023 -0.2136  0.2327
 1184THY    HA329591   0.883   0.962   2.764 -3.0301  1.1039 -0.4169
 1184THY    CA429592   0.894   1.173   2.677 -0.6870  0.7543 -0.1578
 1184THY    HA429593   0.801   1.169   2.621 -0.6459  1.4867 -0.2770
 1184THY    CA529594   0.974   1.285   2.671  0.6133  0.2827  0.5127
 1184THY    CM129595   0.921   1.409   2.609  0.1790  0.4389 -0.1274
 1184THY    HM129596   0.934   1.419   2.501  1.1828  0.5092 -0.0121
 1184THY    HM229597   0.819   1.420   2.647  0.8876  0.6806  1.8441
 1184THY    HM329598   0.975   1.488   2.663 -0.0402  0.1024  0.5978
 1184THY    CA629599   1.093   1.285   2.738  0.4763  0.4592  0.0448
 1184THY    HA629600   1.145   1.381   2.736 -1.6917  1.6907  0.2007
 1185THY      O29601   8.231   2.630   3.320 -0.4943  0.2355  0.2897
 1185THY     HO29602   8.199   2.540   3.339  0.4008 -0.4385 -1.2230
 1185THY    CA129603   8.130   2.682   3.246  0.1440  0.4411 -0.2923
 1185THY    CA229604   8.149   2.757   3.131 -0.6535  0.4823 -0.2351
 1185THY    CP129605   8.287   2.780   3.077 -0.8015  0.5298 -0.4542
 1185THY    HP129606   8.360   2.705   3.111 -0.3308  1.2237  0.0947
 1185THY    CP229607   8.294   2.760   2.925 -0.1639  0.3741  0.0530
 1185THY    HP229608   8.238   2.832   2.863 -1.8638 -0.3104  0.7382
 1185THY    HP329609   8.397   2.755   2.887 -0.2521  2.3525 -0.5539
 1185THY    HP429610   8.235   2.670   2.905  0.1026  0.1781  0.1327
 1185THY    CP329611   8.331   2.924   3.103  0.7087 -0.1364 -0.2638
 1185THY    HP529612   8.319   2.945   3.210  2.0967 -3.1419  0.5867
 1185THY    HP629613   8.433   2.950   3.072 -0.0002  1.3233 -1.5338
 1185THY    HP729614   8.271   2.997   3.048  1.2170  1.2386  0.9332
 1185THY    CA329615   8.034   2.807   3.072  0.0405 -0.1009  0.4789
 1185THY    HA329616   8.041   2.881   2.992  0.7702  1.8125  2.2342
 1185THY    CA429617   7.908   2.775   3.113  0.1827  0.2491 -0.3751
 1185THY    HA429618   7.824   2.823   3.064  0.7263  0.0129 -1.6054
 1185THY    CA529619   7.893   2.686   3.222 -0.4742  0.1389  0.3097
 1185THY    CM129620   7.752   2.645   3.269 -0.2109 -0.0145  0.3586
 1185THY    HM129621   7.683   2.680   3.191  0.4846  0.3280 -0.1139
 1185THY    HM229622   7.732   2.537   3.271  0.2307 -0.0962  1.8171
 1185THY    HM329623   7.726   2.681   3.369 -1.3088 -3.4234  1.4415
 1185THY    CA629624   8.004   2.641   3.290  0.1113  0.3703 -0.4703
 1185THY    HA629625   7.993   2.571   3.373  0.0436  0.1042 -0.7026
 1186THY      O29626   3.289   8.729   5.059  0.1142 -0.2659  0.1057
 1186THY     HO29627   3.368   8.782   5.037 -0.6732  0.5156 -0.9782
 1186THY    CA129628   3.192   8.772   4.970  0.1999 -0.2017 -0.7922
 1186THY    CA229629   3.086   8.682   4.931  0.6135 -0.6956 -0.1198
 1186THY    CP129630   3.098   8.538   4.964  0.1614 -0.6400  0.0622
 1186THY    HP129631   3.191   8.518   5.019  0.4356  2.1998  0.7782
 1186THY    CP229632   2.977   8.496   5.044  0.2024 -0.6114  0.0167
 1186THY    HP229633   2.964   8.566   5.128  3.2016 -0.2393  0.2713
 1186THY    HP329634   2.886   8.475   4.987 -1.5733  3.1349  1.1355
 1186THY    HP429635   3.005   8.402   5.094  3.2006  0.5475  0.7025
 1186THY    CP329636   3.107   8.442   4.837 -0.3420 -0.2372 -0.0997
 1186THY    HP529637   3.104   8.338   4.871  1.4989 -1.3855 -3.0559
 1186THY    HP629638   3.028   8.451   4.762 -0.4414 -1.2470 -0.1332
 1186THY    HP729639   3.198   8.451   4.776  0.7006  0.5133  1.4757
 1186THY    CA329640   2.983   8.729   4.847  0.0052 -0.1922 -0.3309
 1186THY    HA329641   2.905   8.660   4.816  1.4030 -1.3123 -1.5228
 1186THY    CA429642   2.979   8.868   4.811  0.3099 -0.1795  0.9065
 1186THY    HA429643   2.901   8.922   4.758  0.0043  0.2084  1.7367
 1186THY    CA529644   3.082   8.956   4.854  0.3337  0.1204 -0.0695
 1186THY    CM129645   3.078   9.100   4.809  0.1973  0.5464  0.2213
 1186THY    HM129646   3.174   9.147   4.835  1.4760  0.1162 -3.1856
 1186THY    HM229647   3.065   9.091   4.700  0.7406 -1.5068  0.2821
 1186THY    HM329648   2.992   9.153   4.851  1.1512  1.2597  1.3286
 1186THY    CA629649   3.188   8.907   4.937  0.8037 -0.0425 -0.7457
 1186THY    HA629650   3.269   8.968   4.973  0.2777 -0.3939  1.1475
 1187THY      O29651   4.794   3.140   9.084  0.1304 -0.4109 -0.2661
 1187THY     HO29652   4.788   3.226   9.129 -0.5124 -0.3011 -0.5381
 1187THY    CA129653   4.913   3.089   9.121  0.0530  0.2275 -0.3769
 1187THY    CA229654   4.924   2.952   9.157  0.3098 -0.4519  0.4675
 1187THY    CP129655   4.805   2.858   9.141 -0.1032 -0.1616  0.0374
 1187THY    HP129656   4.708   2.909   9.134 -0.1183  0.0710  1.5581
 1187THY    CP229657   4.828   2.755   9.031 -0.2345 -0.4646  0.5095
 1187THY    HP229658   4.781   2.790   8.938  0.3657  2.6486  1.2478
 1187THY    HP329659   4.935   2.739   9.015 -0.1169 -0.5050  1.3174
 1187THY    HP429660   4.773   2.663   9.055 -0.8144 -0.1544  0.4099
 1187THY    CP329661   4.792   2.790   9.275  0.0515 -0.1307 -0.7102
 1187THY    HP529662   4.691   2.747   9.277  0.4504 -1.0510  0.0212
 1187THY    HP629663   4.868   2.715   9.297 -0.5743  0.2027  3.5374
 1187THY    HP729664   4.793   2.865   9.355 -0.7807 -1.3049  0.4517
 1187THY    CA329665   5.051   2.902   9.194  0.3498 -0.1728 -0.3542
 1187THY    HA329666   5.063   2.796   9.215  0.1849 -0.4952 -1.7589
 1187THY    CA429667   5.161   2.989   9.196  0.1436 -0.0173 -0.6836
 1187THY    HA429668   5.252   2.947   9.237 -0.5248  0.2195  1.1351
 1187THY    CA529669   5.146   3.121   9.150  0.2499 -0.5659  0.6862
 1187THY    CM129670   5.270   3.209   9.142 -0.3612 -0.3329  0.6736
 1187THY    HM129671   5.274   3.260   9.238  1.2493 -0.2319  0.5753
 1187THY    HM229672   5.357   3.143   9.137 -0.1820 -0.2300  2.1213
 1187THY    HM329673   5.259   3.284   9.062 -1.1982 -0.5211  0.5952
 1187THY    CA629674   5.023   3.175   9.112 -0.0289  0.7278 -0.6698
 1187THY    HA629675   5.016   3.278   9.076 -0.6173  0.2077 -2.1391
 1188THY      O29676   9.603   2.502   2.972  0.3722 -0.3013  1.0214
 1188THY     HO29677   9.580   2.596   2.971 -1.8404 -0.4331 -5.1631
 1188THY    CA129678   9.730   2.491   3.005  0.7242  0.2368  0.5304
 1188THY    CA229679   9.800   2.367   2.993  0.8094 -0.0176 -1.1096
 1188THY    CP129680   9.729   2.243   2.954 -0.1052  0.4142  0.2603
 1188THY    HP129681   9.624   2.264   2.933 -0.5444 -0.5060  1.4441
 1188THY    CP229682   9.774   2.186   2.824  0.6940  0.2351 -0.2317
 1188THY    HP229683   9.762   2.260   2.745 -1.1980  0.3767  0.1397
 1188THY    HP329684   9.877   2.149   2.827  0.2857 -0.9332  1.8858
 1188THY    HP429685   9.709   2.100   2.802  3.4897 -1.8059 -1.0932
 1188THY    CP329686   9.721   2.141   3.069  0.3219 -0.7741 -0.2840
 1188THY    HP529687   9.671   2.051   3.031 -0.3069 -0.3002 -0.5932
 1188THY    HP629688   9.817   2.109   3.113 -0.0405 -1.6215 -0.0842
 1188THY    HP729689   9.661   2.191   3.145  2.2764  0.7299  0.3656
 1188THY    CA329690   9.938   2.365   3.001  0.2908 -0.1693 -0.0076
 1188THY    HA329691   9.995   2.274   2.983  2.5749  0.7934  1.7762
 1188THY    CA429692  10.007   2.484   3.040  0.2460  0.2269  0.2757
 1188THY    HA429693  10.115   2.484   3.043  0.2802 -0.3843 -0.6784
 1188THY    CA529694   9.936   2.602   3.068  0.4583  0.2686 -0.1902
 1188THY    CM129695   9.994   2.737   3.092  0.1102  0.6896  0.7365
 1188THY    HM129696  10.019   2.794   3.002 -0.3768  0.6349  0.5609
 1188THY    HM229697   9.933   2.809   3.148  1.6527  1.3236  1.6476
 1188THY    HM329698  10.090   2.732   3.144 -0.0332  0.3450  0.9680
 1188THY    CA629699   9.796   2.597   3.048 -0.1161 -0.3532 -0.4555
 1188THY    HA629700   9.746   2.692   3.066 -0.5077 -0.2666 -1.8747
 1189THY      O29701   3.057   2.533   2.473  0.0098 -0.3225 -0.8166
 1189THY     HO29702   3.123   2.563   2.539 -0.7953  0.8467 -0.5173
 1189THY    CA129703   2.978   2.457   2.546  0.6876  0.2143 -0.5092
 1189THY    CA229704   2.959   2.318   2.523  0.0038  0.4675  0.0373
 1189THY    CP129705   3.021   2.252   2.401 -0.2012 -0.6201  0.4182
 1189THY    HP129706   3.064   2.326   2.332 -1.7546  0.3900  0.4822
 1189THY    CP229707   3.100   2.131   2.436 -0.0674 -0.4229  0.0588
 1189THY    HP229708   3.037   2.061   2.492 -0.3648 -0.5057 -0.3762
 1189THY    HP329709   3.134   2.093   2.339  0.7868  1.9289 -0.6286
 1189THY    HP429710   3.189   2.155   2.494 -0.6197  2.7747 -0.2132
 1189THY    CP329711   2.907   2.204   2.309 -0.8653  0.2793 -0.2475
 1189THY    HP529712   2.829   2.275   2.277 -2.4623 -0.6581  1.4009
 1189THY    HP629713   2.944   2.167   2.212 -0.5412  0.3613 -0.1551
 1189THY    HP729714   2.841   2.128   2.353 -0.7084 -1.3809 -2.6649
 1189THY    CA329715   2.876   2.253   2.612  0.7034  0.3574  0.0767
 1189THY    HA329716   2.864   2.147   2.592  1.2236  0.1539  0.7687
 1189THY    CA429717   2.818   2.320   2.720 -0.6411  0.0799  0.3464
 1189THY    HA429718   2.746   2.265   2.780 -1.0882  0.8633  0.5553
 1189THY    CA529719   2.832   2.452   2.730 -0.2921 -0.5600 -0.2493
 1189THY    CM129720   2.772   2.520   2.849 -0.1407  0.2344 -0.0212
 1189THY    HM129721   2.663   2.516   2.862  0.1469 -1.9709  2.4396
 1189THY    HM229722   2.813   2.479   2.942 -0.6677  1.8446  0.9452
 1189THY    HM329723   2.781   2.629   2.850 -0.7054  0.2816  0.5665
 1189THY    CA629724   2.915   2.525   2.642 -0.0947  0.7496 -0.1423
 1189THY    HA629725   2.937   2.630   2.659 -0.0447  1.2212 -2.7534
 1190THY      O29726   3.324   6.758   2.088 -0.4725  0.2362 -0.0122
 1190THY     HO29727   3.258   6.699   2.129 -0.9229 -0.0622 -1.1479
 1190THY    CA129728   3.275   6.883   2.106 -0.4023  0.0031  0.1026
 1190THY    CA229729   3.343   6.995   2.050  0.1197 -0.3170 -0.1797
 1190THY    CP129730   3.468   6.978   1.960  0.0340  0.9399 -0.4122
 1190THY    HP129731   3.513   6.879   1.971 -2.6300 -0.4110 -0.9472
 1190THY    CP229732   3.437   6.985   1.811 -0.3192 -0.2755  0.2535
 1190THY    HP229733   3.370   6.909   1.771  0.1340 -0.8116  0.5041
 1190THY    HP329734   3.394   7.078   1.772 -1.0073 -0.6761  0.0403
 1190THY    HP429735   3.534   6.969   1.763  1.6239  2.0920  2.9970
 1190THY    CP329736   3.581   7.083   1.990  0.2371 -0.4572  0.6121
 1190THY    HP529737   3.560   7.178   1.940  1.5953  0.1079  1.0618
 1190THY    HP629738   3.582   7.101   2.098 -0.7058 -3.7527  1.2843
 1190THY    HP729739   3.674   7.043   1.949  0.5521 -0.2744  1.1386
 1190THY    CA329740   3.295   7.121   2.081  0.6768  0.0459  0.1581
 1190THY    HA329741   3.333   7.209   2.030  0.3599  0.5766  0.8222
 1190THY    CA429742   3.186   7.136   2.174 -0.8237 -0.3601  0.5803
 1190THY    HA429743   3.165   7.240   2.198  3.8775  0.9254  0.0811
 1190THY    CA529744   3.126   7.022   2.226  0.0327  0.2632  0.4377
 1190THY    CM129745   3.012   7.045   2.313  1.0295  0.0760 -0.0810
 1190THY    HM129746   3.000   7.145   2.356  0.9655  0.6254 -1.3369
 1190THY    HM229747   2.921   7.018   2.259  0.9937 -0.6459  0.3192
 1190THY    HM329748   3.015   6.978   2.400  2.0481  1.0037  0.6355
 1190THY    CA629749   3.164   6.891   2.191  0.5325  0.1168  0.2943
 1190THY    HA629750   3.120   6.805   2.240  1.5425 -0.2275  0.6196
 1191THY      O29751   9.637   0.451   0.489 -0.0285 -0.1448 -0.5109
 1191THY     HO29752   9.595   0.462   0.576  0.3159  1.6613 -0.5393
 1191THY    CA129753   9.767   0.480   0.509  0.3309  0.0465 -0.3638
 1191THY    CA229754   9.851   0.522   0.404 -0.3390 -0.2736 -0.5468
 1191THY    CP129755   9.794   0.557   0.270 -0.3474 -1.0861  0.1869
 1191THY    HP129756   9.722   0.480   0.240 -0.8995  0.5962 -3.2099
 1191THY    CP229757   9.730   0.698   0.259  0.4604 -0.1903  0.0646
 1191THY    HP229758   9.654   0.713   0.336 -0.7744  2.0783 -1.4904
 1191THY    HP329759   9.811   0.770   0.277 -0.2957  0.3867  1.2767
 1191THY    HP429760   9.679   0.719   0.165  0.2696  0.5543  0.3301
 1191THY    CP329761   9.888   0.541   0.156  0.2446  0.2947 -0.6443
 1191THY    HP529762   9.954   0.629   0.149  0.8628 -0.0170  0.9370
 1191THY    HP629763   9.942   0.446   0.164 -0.8130 -0.2748 -0.1963
 1191THY    HP729764   9.836   0.544   0.059  0.6628  1.6760 -0.8482
 1191THY    CA329765   9.986   0.556   0.442  0.1422  0.3189  0.4143
 1191THY    HA329766  10.045   0.597   0.361 -0.3974  2.7515  1.1587
 1191THY    CA429767  10.039   0.518   0.565 -0.1979 -0.9686 -0.6054
 1191THY    HA429768  10.145   0.533   0.578 -0.4085 -0.6425  0.8604
 1191THY    CA529769   9.955   0.481   0.675 -0.1978 -0.0391  0.3725
 1191THY    CM129770  10.014   0.423   0.806 -0.3066  0.1574  0.1791
 1191THY    HM129771  10.041   0.512   0.866  0.4535 -0.2003  0.3826
 1191THY    HM229772   9.949   0.357   0.865  1.3898 -0.1662  1.7969
 1191THY    HM329773  10.104   0.366   0.782 -0.5328  0.6966 -2.1275
 1191THY    CA629774   9.815   0.472   0.644 -0.2447 -0.3351  0.1274
 1191THY    HA629775   9.747   0.453   0.726 -0.4785  0.1678  0.0503
 1192THY      O29776   3.376   2.662   4.401 -0.0564  0.1665 -0.4751
 1192THY     HO29777   3.333   2.749   4.401  1.2271  0.8300  0.0702
 1192THY    CA129778   3.370   2.619   4.533 -0.3120 -0.5319 -0.2637
 1192THY    CA229779   3.429   2.498   4.582  0.4399 -0.0620  0.4672
 1192THY    CP129780   3.490   2.401   4.479 -0.0913  0.1799  0.4226
 1192THY    HP129781   3.508   2.448   4.382  1.5874 -1.0179  0.1144
 1192THY    CP229782   3.631   2.356   4.535 -0.3730 -0.1729 -0.1308
 1192THY    HP229783   3.692   2.445   4.556 -0.3268 -0.7684  2.5622
 1192THY    HP329784   3.622   2.303   4.630  0.8251 -1.1243 -0.5195
 1192THY    HP429785   3.682   2.296   4.458  0.3117  1.9910 -1.4795
 1192THY    CP329786   3.399   2.267   4.465 -0.5817 -0.3590 -0.0081
 1192THY    HP529787   3.416   2.221   4.563  0.0679 -0.4489 -0.1604
 1192THY    HP629788   3.293   2.289   4.448 -0.8605 -1.9732 -0.4958
 1192THY    HP729789   3.441   2.203   4.387  1.4192  1.9857 -0.9951
 1192THY    CA329790   3.403   2.456   4.714 -0.1108 -0.2934 -0.0701
 1192THY    HA329791   3.436   2.356   4.740 -1.5888 -0.5319  1.0210
 1192THY    CA429792   3.311   2.526   4.791  0.5799  0.7664 -0.1435
 1192THY    HA429793   3.281   2.490   4.889  1.3401  0.0058 -0.1719
 1192THY    CA529794   3.254   2.642   4.741  0.2813  0.0685  0.6056
 1192THY    CM129795   3.158   2.712   4.829 -0.4480 -0.4271  0.1060
 1192THY    HM129796   3.109   2.803   4.791 -2.0046 -1.2077  0.1227
 1192THY    HM229797   3.068   2.650   4.845 -0.7446  0.2124  1.0104
 1192THY    HM329798   3.205   2.732   4.925 -1.0149 -0.6398  0.4348
 1192THY    CA629799   3.283   2.692   4.613 -0.1454  0.1007  0.1416
 1192THY    HA629800   3.236   2.783   4.576  0.1027 -0.5330 -1.8464
 1193THY      O29801   6.321   1.190   6.234  0.1378 -0.5088 -0.1672
 1193THY     HO29802   6.329   1.151   6.146  0.6507  1.2425 -0.9434
 1193THY    CA129803   6.428   1.272   6.242  0.7409 -0.7738  0.4006
 1193THY    CA229804   6.470   1.325   6.362  0.0321 -0.6132 -0.6353
 1193THY    CP129805   6.413   1.271   6.492 -0.3637 -0.6583  0.0274
 1193THY    HP129806   6.353   1.181   6.475 -0.9002 -0.0351 -1.5050
 1193THY    CP229807   6.514   1.214   6.585 -0.0273  0.5198 -0.0452
 1193THY    HP229808   6.468   1.155   6.665  0.8595  0.4027  0.4022
 1193THY    HP329809   6.580   1.142   6.534 -0.3563  0.8946 -1.0127
 1193THY    HP429810   6.568   1.291   6.643  2.0056 -0.7214 -0.1651
 1193THY    CP329811   6.315   1.371   6.566 -0.2714  0.6430 -0.1327
 1193THY    HP529812   6.271   1.325   6.655 -0.7835  1.6993  0.1732
 1193THY    HP629813   6.363   1.466   6.590 -0.4390  1.0889 -1.4722
 1193THY    HP729814   6.234   1.387   6.494  0.1731  0.6305 -0.6389
 1193THY    CA329815   6.567   1.426   6.374  0.6585 -0.3063 -0.2223
 1193THY    HA329816   6.617   1.443   6.468 -0.0250 -1.1942  0.3127
 1193THY    CA429817   6.620   1.476   6.255  0.4524 -0.6701 -0.1458
 1193THY    HA429818   6.708   1.540   6.254 -0.1590  0.2647 -2.6039
 1193THY    CA529819   6.565   1.433   6.121 -0.2075  0.1880 -0.7451
 1193THY    CM129820   6.622   1.487   5.999 -0.8076 -0.1863 -0.3970
 1193THY    HM129821   6.729   1.462   5.999 -0.9961 -1.0868 -1.9151
 1193THY    HM229822   6.581   1.441   5.909 -0.1887  2.2625 -2.0299
 1193THY    HM329823   6.604   1.595   5.997 -0.3806 -0.0965  0.2071
 1193THY    CA629824   6.473   1.333   6.123  0.4586  0.6016  0.4112
 1193THY    HA629825   6.450   1.290   6.026  2.7508  1.4735 -0.5817
 1194THY      O29826   0.067   5.333   3.259  0.2381  0.2250 -0.2163
 1194THY     HO29827   0.027   5.342   3.170 -1.5814 -0.3769  0.4918
 1194THY    CA129828   0.195   5.361   3.239 -0.0037  0.8274 -0.2337
 1194THY    CA229829   0.288   5.387   3.346 -0.6994  0.3189  0.5128
 1194THY    CP129830   0.250   5.374   3.491 -0.0115 -0.1748  0.4236
 1194THY    HP129831   0.157   5.317   3.501 -1.7096  2.4447  0.3894
 1194THY    CP229832   0.348   5.290   3.577 -0.3393  1.2384  0.1222
 1194THY    HP229833   0.388   5.200   3.530 -1.2986 -0.7291  2.8160
 1194THY    HP329834   0.438   5.346   3.604  1.0295 -0.9556  0.3113
 1194THY    HP429835   0.302   5.259   3.672  0.3045 -1.8084 -0.4580
 1194THY    CP329836   0.209   5.507   3.553  0.4502 -0.1208  0.7118
 1194THY    HP529837   0.149   5.487   3.643  0.0891  0.9179  0.7174
 1194THY    HP629838   0.296   5.568   3.576 -0.8095  0.8741  3.2861
 1194THY    HP729839   0.137   5.558   3.488  1.9054 -1.2391 -1.9226
 1194THY    CA329840   0.416   5.433   3.316 -0.0212  0.6543  0.5932
 1194THY    HA329841   0.482   5.469   3.394 -0.0392  3.3836 -0.5508
 1194THY    CA429842   0.451   5.445   3.182 -0.3323 -0.2058  0.0603
 1194THY    HA429843   0.547   5.481   3.147  0.5375 -0.3928  2.1112
 1194THY    CA529844   0.362   5.415   3.080  0.1615  1.2805  0.8506
 1194THY    CM129845   0.399   5.440   2.940  0.0371 -0.1204  0.3216
 1194THY    HM129846   0.319   5.406   2.872  0.6949 -1.4588  0.1952
 1194THY    HM229847   0.427   5.543   2.916  0.5564 -0.8054 -2.3810
 1194THY    HM329848   0.485   5.374   2.922  1.4174  1.1066  2.0749
 1194THY    CA629849   0.235   5.368   3.112 -0.5130 -0.3353  0.0918
 1194THY    HA629850   0.165   5.337   3.035  0.2399  0.2267 -0.8467
 1195THY      O29851   3.718   8.509   3.156  0.2208  0.5617 -0.1153
 1195THY     HO29852   3.808   8.533   3.184  0.4736 -2.3953  2.0192
 1195THY    CA129853   3.664   8.615   3.095 -0.2101 -0.3551 -0.6529
 1195THY    CA229854   3.534   8.670   3.121  0.1864  0.2443  0.1534
 1195THY    CP129855   3.431   8.595   3.201  0.9839  0.1480 -0.7288
 1195THY    HP129856   3.472   8.501   3.242  4.0685  1.6043 -0.1687
 1195THY    CP229857   3.395   8.667   3.330  0.4438  0.1023  0.0163
 1195THY    HP229858   3.372   8.772   3.308 -0.7983 -0.4515 -1.4098
 1195THY    HP329859   3.310   8.619   3.379 -0.6295  2.6391  0.8137
 1195THY    HP429860   3.491   8.665   3.384  0.9787 -2.0103 -0.9118
 1195THY    CP329861   3.303   8.573   3.113  0.6400 -0.0135  0.2931
 1195THY    HP529862   3.335   8.535   3.016 -0.6284 -1.1871  0.2999
 1195THY    HP629863   3.248   8.493   3.165 -0.9581  0.9105  0.0975
 1195THY    HP729864   3.239   8.662   3.113  0.0900 -0.4019 -0.7400
 1195THY    CA329865   3.503   8.800   3.078 -0.1801 -0.1323 -0.4224
 1195THY    HA329866   3.403   8.839   3.097  0.9224  2.7250  0.1348
 1195THY    CA429867   3.588   8.863   2.984  0.3213  0.0745  0.6161
 1195THY    HA429868   3.557   8.950   2.926 -0.6350 -0.4420  0.3414
 1195THY    CA529869   3.711   8.806   2.961 -0.6101 -0.2585 -0.0894
 1195THY    CM129870   3.808   8.877   2.861 -0.5046  0.0476 -0.0698
 1195THY    HM129871   3.907   8.834   2.847 -0.1162  0.7825  0.3595
 1195THY    HM229872   3.759   8.879   2.763 -0.2442  2.7809 -0.2082
 1195THY    HM329873   3.823   8.978   2.900  0.5984 -0.9142  2.2079
 1195THY    CA629874   3.750   8.686   3.018 -0.0879 -0.6575 -1.0982
 1195THY    HA629875   3.854   8.666   2.997  0.3462 -0.5063  0.7343
 1196THY      O29876   9.506   8.143   3.599  0.4855 -0.7134  0.1155
 1196THY     HO29877   9.597   8.123   3.571  0.2630 -0.6786 -0.6382
 1196THY    CA129878   9.459   8.255   3.535 -0.1162  0.4659  0.5229
 1196THY    CA229879   9.438   8.379   3.606  0.4321  0.2800 -0.5398
 1196THY    CP129880   9.477   8.388   3.758 -0.4309 -0.2603  0.7134
 1196THY    HP129881   9.483   8.290   3.806  0.2834 -0.2060  0.7474
 1196THY    CP229882   9.623   8.440   3.761 -0.8222  0.1339 -0.6078
 1196THY    HP229883   9.692   8.372   3.710 -0.6832 -0.0660 -0.1596
 1196THY    HP329884   9.623   8.546   3.730  0.1447 -0.1333 -1.5970
 1196THY    HP429885   9.645   8.437   3.868 -1.6293 -0.1905 -0.4485
 1196THY    CP329886   9.386   8.481   3.847  0.2710  0.0862 -0.2242
 1196THY    HP529887   9.392   8.464   3.955 -1.1468  0.6739 -0.0283
 1196THY    HP629888   9.401   8.587   3.820 -0.7554 -0.0894 -1.6076
 1196THY    HP729889   9.282   8.448   3.833 -0.4366  0.6874  2.9319
 1196THY    CA329890   9.380   8.489   3.537 -0.2077 -0.2702 -0.0177
 1196THY    HA329891   9.367   8.585   3.587  0.2356  0.5678 -1.4730
 1196THY    CA429892   9.349   8.482   3.399  0.1361 -0.1345 -0.1714
 1196THY    HA429893   9.294   8.567   3.358 -2.7556 -1.4241  0.8032
 1196THY    CA529894   9.375   8.364   3.328  0.0078  0.2513  0.3129
 1196THY    CM129895   9.338   8.347   3.183 -0.7081  1.3470 -1.1052
 1196THY    HM129896   9.228   8.344   3.178 -0.6854  0.5195 -1.0824
 1196THY    HM229897   9.383   8.432   3.129  1.8038  0.6948 -0.1561
 1196THY    HM329898   9.383   8.253   3.148  3.4276  2.5657  0.3426
 1196THY    CA629899   9.426   8.247   3.397 -0.1284  0.0322  0.4047
 1196THY    HA629900   9.450   8.157   3.340 -0.0624 -0.1759  0.7552
 1197THY      O29901   3.481   0.118   6.059  0.5276 -0.2434  0.1550
 1197THY     HO29902   3.407   0.056   6.074  1.3705 -0.8057  2.2908
 1197THY    CA129903   3.496   0.174   6.176 -0.2091 -0.2444  0.0156
 1197THY    CA229904   3.575   0.292   6.194  0.6684 -0.4094  0.1545
 1197THY    CP129905   3.661   0.347   6.080  0.4594  0.2190 -0.3915
 1197THY    HP129906   3.619   0.315   5.984  1.5795  0.1520 -0.8735
 1197THY    CP229907   3.648   0.496   6.071 -0.5332 -0.1680  0.2477
 1197THY    HP229908   3.656   0.531   5.968 -1.7239  1.0922  0.5651
 1197THY    HP329909   3.547   0.534   6.088 -0.6059 -0.1777 -0.1614
 1197THY    HP429910   3.727   0.548   6.127  0.4373 -2.3466  1.0351
 1197THY    CP329911   3.808   0.317   6.092  0.0995 -0.8645  0.1747
 1197THY    HP529912   3.860   0.355   6.004 -1.0110 -0.2343 -0.2287
 1197THY    HP629913   3.842   0.356   6.188 -1.1991 -1.8414  1.0648
 1197THY    HP729914   3.824   0.208   6.092  1.6240 -0.7090 -1.7382
 1197THY    CA329915   3.569   0.354   6.320  0.1864  0.7696 -0.4682
 1197THY    HA329916   3.617   0.451   6.328  0.7548  0.6275 -1.7799
 1197THY    CA429917   3.488   0.298   6.422  0.0335 -0.1443 -0.6284
 1197THY    HA429918   3.461   0.353   6.513  0.7697 -0.2940 -0.3088
 1197THY    CA529919   3.416   0.187   6.402 -0.1564  0.8843  0.2019
 1197THY    CM129920   3.317   0.151   6.512 -0.0887  0.0963 -0.2263
 1197THY    HM129921   3.270   0.054   6.492 -0.7346  0.0963  1.1493
 1197THY    HM229922   3.362   0.146   6.612 -0.3217  1.0618 -0.0604
 1197THY    HM329923   3.238   0.227   6.518 -0.2780 -0.1617  0.9713
 1197THY    CA629924   3.426   0.114   6.281 -0.1836 -0.0857 -0.1053
 1197THY    HA629925   3.375   0.019   6.269  0.1151 -0.1701 -0.7441
 1198THY      O29926   1.130   4.767   8.517 -0.3439 -0.2055  0.0575
 1198THY     HO29927   1.146   4.677   8.483  2.0537 -0.2244  1.0740
 1198THY    CA129928   1.085   4.750   8.644  0.1295  0.2811 -0.0440
 1198THY    CA229929   0.965   4.812   8.688  0.0506 -0.2891  0.2338
 1198THY    CP129930   0.892   4.901   8.584 -0.2244 -0.0064 -0.7526
 1198THY    HP129931   0.935   4.907   8.483 -1.4989  0.0052 -1.3227
 1198THY    CP229932   0.743   4.849   8.557  0.6334 -0.0969 -0.6331
 1198THY    HP229933   0.682   4.927   8.510 -1.3854 -2.2113 -1.7746
 1198THY    HP329934   0.762   4.763   8.490 -1.3029  0.5935 -2.1511
 1198THY    HP429935   0.694   4.805   8.645 -0.2828  1.7937 -0.1670
 1198THY    CP329936   0.882   5.036   8.646  1.0575  0.6481 -0.7277
 1198THY    HP529937   0.836   5.033   8.746  1.2864  2.1669 -0.5578
 1198THY    HP629938   0.979   5.088   8.647  2.5613 -1.9136 -1.7943
 1198THY    HP729939   0.820   5.093   8.576 -1.0665 -0.5876  0.0585
 1198THY    CA329940   0.921   4.796   8.819  0.0763 -0.7252  0.1368
 1198THY    HA329941   0.827   4.837   8.854 -0.2800 -2.7074  1.7534
 1198THY    CA429942   0.999   4.704   8.897 -0.4584 -0.4527 -0.2115
 1198THY    HA429943   0.976   4.674   8.999  1.8255 -1.6267  0.0366
 1198THY    CA529944   1.111   4.633   8.859 -0.1084 -0.0697  0.6786
 1198THY    CM129945   1.181   4.521   8.936 -0.2671 -0.2292  0.2451
 1198THY    HM129946   1.142   4.518   9.039 -1.4461 -0.0735 -0.1737
 1198THY    HM229947   1.162   4.421   8.897  1.4569  0.0141 -1.3271
 1198THY    HM329948   1.289   4.530   8.921 -0.5215 -0.2139 -1.9096
 1198THY    CA629949   1.158   4.657   8.728 -0.1114 -0.3168  0.1438
 1198THY    HA629950   1.239   4.596   8.690  0.0784  0.7551 -1.2781
 1199THY      O29951   1.448   9.674   8.214 -0.4302  0.1464 -0.1708
 1199THY     HO29952   1.494   9.759   8.223  0.6466 -0.0836 -2.6449
 1199THY    CA129953   1.481   9.636   8.088 -0.0435  0.1915  0.2377
 1199THY    CA229954   1.459   9.502   8.045 -0.1956  0.5152  0.8296
 1199THY    CP129955   1.407   9.404   8.150  0.6502 -0.0200 -0.2532
 1199THY    HP129956   1.468   9.423   8.240 -2.0364  0.7748  1.5173
 1199THY    CP229957   1.255   9.422   8.179 -0.3200  0.4045 -0.1257
 1199THY    HP229958   1.245   9.515   8.236 -1.0833 -0.5257  1.3173
 1199THY    HP329959   1.188   9.438   8.093 -0.7049  0.4309  0.1776
 1199THY    HP429960   1.220   9.334   8.235  0.1991  0.3944  0.1853
 1199THY    CP329961   1.440   9.261   8.112  0.0730  0.9785 -0.3070
 1199THY    HP529962   1.549   9.256   8.101  0.1114  1.2080 -0.0462
 1199THY    HP629963   1.409   9.202   8.199  0.2068 -1.9118 -2.0511
 1199THY    HP729964   1.381   9.228   8.025  2.0529  1.3877 -1.8746
 1199THY    CA329965   1.478   9.462   7.911 -0.2181 -0.1094 -0.4546
 1199THY    HA329966   1.455   9.360   7.882  0.2548 -0.5762  0.7457
 1199THY    CA429967   1.530   9.563   7.828  0.5429  0.0309  0.5194
 1199THY    HA429968   1.539   9.522   7.728  1.2034  0.0470  0.5710
 1199THY    CA529969   1.569   9.694   7.867  0.2175  0.8689  0.7766
 1199THY    CM129970   1.634   9.790   7.769 -0.5471  0.0286  0.6126
 1199THY    HM129971   1.743   9.785   7.764 -0.6263 -1.1674 -0.2732
 1199THY    HM229972   1.599   9.759   7.670 -1.7712 -2.4258  1.7374
 1199THY    HM329973   1.598   9.891   7.795  1.9116  1.3400 -0.6789
 1199THY    CA629974   1.548   9.728   8.001 -0.0219  0.1796  0.3031
 1199THY    HA629975   1.566   9.829   8.034 -1.0774  0.0826  1.2800
 1200THY      O29976   2.437   0.583   5.103  0.3072 -0.0965  0.1663
 1200THY     HO29977   2.384   0.609   5.025  1.7669 -0.0839 -0.8565
 1200THY    CA129978   2.487   0.701   5.152  0.1560 -0.1888  0.0642
 1200THY    CA229979   2.565   0.705   5.273 -0.4052  0.3862  0.4128
 1200THY    CP129980   2.608   0.572   5.339 -1.0706 -0.1612 -1.1421
 1200THY    HP129981   2.600   0.493   5.263 -1.9089 -1.4190  0.1859
 1200THY    CP229982   2.762   0.578   5.384 -0.6582 -0.1138 -0.0540
 1200THY    HP229983   2.806   0.485   5.421  0.3686  0.3091 -0.1530
 1200THY    HP329984   2.827   0.622   5.307 -0.1857  0.6059  0.7333
 1200THY    HP429985   2.767   0.658   5.459 -1.3573  1.8101 -1.9534
 1200THY    CP329986   2.509   0.529   5.453 -0.0108 -0.2776  0.3146
 1200THY    HP529987   2.490   0.608   5.527 -1.0101  0.0262 -0.2548
 1200THY    HP629988   2.413   0.527   5.400  0.3617 -1.0493 -0.3604
 1200THY    HP729989   2.531   0.430   5.493 -1.1795 -1.3608 -1.5701
 1200THY    CA329990   2.616   0.828   5.303  1.1034  0.6273 -0.0795
 1200THY    HA329991   2.670   0.844   5.396 -0.0081 -0.7492  0.8531
 1200THY    CA429992   2.560   0.943   5.244 -0.4313 -0.0567  0.2236
 1200THY    HA429993   2.593   1.041   5.277 -2.7833  0.7630  0.3381
 1200THY    CA529994   2.479   0.939   5.129 -0.6672  0.4596  0.5819
 1200THY    CM129995   2.422   1.058   5.049 -0.3540 -0.2828 -0.2212
 1200THY    HM129996   2.448   1.041   4.944  0.5018  0.5720 -0.1650
 1200THY    HM229997   2.313   1.051   5.039 -0.2856 -1.6710 -0.2791
 1200THY    HM329998   2.451   1.159   5.080  1.7069 -0.8707 -0.0509
 1200THY    CA629999   2.446   0.811   5.088 -0.2438 -0.1246  0.2934
 1200THY    HA630000   2.379   0.809   5.003 -0.5777 -1.2247  0.5636
 1201THY      O30001   7.964   1.926   7.272  0.0826 -0.0596 -0.4130
 1201THY     HO30002   7.926   1.841   7.296  0.7576 -0.2605 -0.0387
 1201THY    CA130003   7.870   2.018   7.284 -0.0213  0.9403  0.0578
 1201THY    CA230004   7.895   2.154   7.260 -0.3672  0.2037  0.1914
 1201THY    CP130005   8.037   2.217   7.254  0.1330 -0.9804 -0.5255
 1201THY    HP130006   8.111   2.141   7.230  1.8387  0.7252 -0.8628
 1201THY    CP230007   8.051   2.318   7.141  0.1660  0.2565  0.1530
 1201THY    HP230008   8.012   2.274   7.049 -0.6007 -0.2452  0.7018
 1201THY    HP330009   8.002   2.415   7.156  2.2239  1.3768 -0.0743
 1201THY    HP430010   8.157   2.335   7.120 -0.0091  0.3418 -0.6593
 1201THY    CP330011   8.081   2.282   7.385  0.3400  0.5496  0.0887
 1201THY    HP530012   8.015   2.367   7.409  1.7085  2.2013 -1.6748
 1201THY    HP630013   8.076   2.208   7.466 -2.8631  0.3657 -0.1229
 1201THY    HP730014   8.184   2.319   7.383  0.0217  1.5441  0.9761
 1201THY    CA330015   7.787   2.243   7.279 -0.2544  0.1476  0.3868
 1201THY    HA330016   7.804   2.350   7.286 -1.9478  0.5237 -0.7561
 1201THY    CA430017   7.656   2.191   7.298 -0.0440 -0.1503 -0.0128
 1201THY    HA430018   7.572   2.260   7.308  0.8358  0.9153  0.2854
 1201THY    CA530019   7.638   2.056   7.301  0.4351 -0.7922 -0.0647
 1201THY    CM130020   7.494   2.003   7.299  0.1531  0.0490 -0.6847
 1201THY    HM130021   7.436   2.039   7.214 -0.0321 -0.6581 -0.8586
 1201THY    HM230022   7.495   1.895   7.315 -2.3354  0.0970  0.2257
 1201THY    HM330023   7.448   2.043   7.390 -1.8855  0.3681 -1.7951
 1201THY    CA630024   7.740   1.969   7.290  0.6999  0.1510 -0.4743
 1201THY    HA630025   7.724   1.862   7.281 -0.9959  0.4877 -2.0532
 1202THY      O30026   0.697   2.443   6.081 -0.6088  0.6999 -1.0090
 1202THY     HO30027   0.770   2.405   6.133 -3.1181 -1.6872  1.0871
 1202THY    CA130028   0.601   2.403   6.165  0.4157 -0.5140  0.5084
 1202THY    CA230029   0.467   2.371   6.123  0.1134 -0.1998 -0.7831
 1202THY    CP130030   0.431   2.393   5.980  0.1859  0.0218  0.1939
 1202THY    HP130031   0.509   2.352   5.914 -0.0360  0.1342 -0.1428
 1202THY    CP230032   0.307   2.316   5.936 -0.1519  0.0074  0.9008
 1202THY    HP230033   0.223   2.357   5.994 -1.3805 -2.2386  0.8438
 1202THY    HP330034   0.283   2.318   5.830  2.4038 -1.3090  0.2213
 1202THY    HP430035   0.320   2.213   5.970 -1.4403 -0.3431  0.4134
 1202THY    CP330036   0.406   2.546   5.957 -0.3839 -0.3069  0.0639
 1202THY    HP530037   0.372   2.571   5.856  1.5243  0.8266 -0.3605
 1202THY    HP630038   0.348   2.587   6.041  0.8633  1.4385  0.1255
 1202THY    HP730039   0.497   2.604   5.976  0.8783 -1.3232 -2.4736
 1202THY    CA330040   0.382   2.309   6.212 -0.8109 -0.3562  0.9240
 1202THY    HA330041   0.281   2.287   6.178 -0.3941 -0.0005 -0.5994
 1202THY    CA430042   0.420   2.280   6.346 -0.8570 -0.3658 -0.1601
 1202THY    HA430043   0.351   2.235   6.416 -0.0850 -0.9905  0.2157
 1202THY    CA530044   0.549   2.324   6.385  0.2125  0.5475 -0.0189
 1202THY    CM130045   0.589   2.314   6.526  0.6762 -0.0172 -0.4035
 1202THY    HM130046   0.640   2.223   6.556 -0.1323  0.1442  1.6019
 1202THY    HM230047   0.653   2.400   6.548  0.6921 -0.3090  0.7499
 1202THY    HM330048   0.498   2.328   6.587  1.6736 -0.7917  1.3111
 1202THY    CA630049   0.643   2.386   6.297  0.2359 -0.3301 -0.1036
 1202THY    HA630050   0.736   2.431   6.331 -0.6147  2.7761 -1.5010
 1203THY      O30051   0.505   6.985   3.474  0.2507 -0.1951  0.3261
 1203THY     HO30052   0.504   6.920   3.402  1.0633 -0.0391  0.1657
 1203THY    CA130053   0.398   7.059   3.453  0.3916 -0.2603 -0.1457
 1203THY    CA230054   0.369   7.154   3.556  0.8550 -0.5914  0.1034
 1203THY    CP130055   0.465   7.187   3.672 -0.0908 -0.3233  0.0654
 1203THY    HP130056   0.567   7.151   3.650  0.5164  0.8016  0.9560
 1203THY    CP230057   0.473   7.338   3.680  0.0704 -0.6959 -0.4600
 1203THY    HP230058   0.564   7.374   3.730 -1.6371  0.8551  1.7400
 1203THY    HP330059   0.483   7.374   3.578  0.1318  2.8145  0.6761
 1203THY    HP430060   0.397   7.388   3.742  2.5307 -0.6462  2.8099
 1203THY    CP330061   0.425   7.121   3.801  0.3060  0.0298 -0.8859
 1203THY    HP530062   0.417   7.012   3.792  1.6696 -0.1031 -0.5866
 1203THY    HP630063   0.506   7.131   3.873  1.1027 -1.4578 -1.5234
 1203THY    HP730064   0.330   7.166   3.833  0.6686  0.3502 -0.2308
 1203THY    CA330065   0.241   7.218   3.551 -0.7014  0.1088 -0.4178
 1203THY    HA330066   0.206   7.284   3.630 -1.3353 -0.3617 -0.3040
 1203THY    CA430067   0.159   7.199   3.437  0.0085 -0.1419  0.2371
 1203THY    HA430068   0.064   7.252   3.432  0.0084 -0.0281  1.2792
 1203THY    CA530069   0.195   7.114   3.337  0.6266  0.1522  0.1779
 1203THY    CM130070   0.114   7.114   3.216 -0.1856 -0.5322 -0.0887
 1203THY    HM130071   0.179   7.144   3.133 -0.8959  1.2982 -0.0095
 1203THY    HM230072   0.091   7.010   3.190  0.2330 -1.3208  2.4281
 1203THY    HM330073   0.018   7.165   3.222 -0.4183 -1.1298  2.0247
 1203THY    CA630074   0.309   7.042   3.345 -0.3659 -0.0258  0.0360
 1203THY    HA630075   0.335   6.977   3.262  1.7860  1.1170 -0.2589
 1204THY      O30076   7.500   6.166   8.958  0.1964 -0.2249 -0.0041
 1204THY     HO30077   7.563   6.119   9.017 -0.4775 -0.1244  0.8087
 1204THY    CA130078   7.386   6.091   8.956  0.6340  0.4141 -0.4450
 1204THY    CA230079   7.259   6.120   9.021 -0.1299  0.3672  0.3653
 1204THY    CP130080   7.244   6.250   9.097 -0.1831  0.2865  0.0861
 1204THY    HP130081   7.335   6.309   9.107  0.9069 -1.2807 -0.3286
 1204THY    CP230082   7.138   6.340   9.025 -0.4121  0.0284 -0.2538
 1204THY    HP230083   7.176   6.368   8.927  0.4407  1.4893  0.4607
 1204THY    HP330084   7.045   6.284   9.013 -0.5351  0.5310 -1.8564
 1204THY    HP430085   7.113   6.430   9.082 -0.0326 -0.1817  0.2521
 1204THY    CP330086   7.196   6.232   9.249 -0.2090  0.0018 -0.2827
 1204THY    HP530087   7.088   6.212   9.245 -0.1495 -0.2224 -3.6120
 1204THY    HP630088   7.252   6.155   9.302 -2.2342  0.0111  2.0419
 1204THY    HP730089   7.207   6.326   9.304 -1.2772  0.8943 -1.4863
 1204THY    CA330090   7.153   6.040   9.007  0.4284 -0.5647  0.5204
 1204THY    HA330091   7.057   6.068   9.051 -1.3147  1.6804 -4.0357
 1204THY    CA430092   7.165   5.925   8.931 -0.7672  0.1914  0.6342
 1204THY    HA430093   7.080   5.858   8.925 -1.4691  1.2107 -2.5633
 1204THY    CA530094   7.284   5.894   8.863 -0.2949  0.2455  0.4325
 1204THY    CM130095   7.287   5.763   8.787  0.3552  0.1935  0.0496
 1204THY    HM130096   7.185   5.727   8.774  1.5667 -2.9164 -2.2680
 1204THY    HM230097   7.337   5.770   8.690 -0.4562  0.8800 -0.3249
 1204THY    HM330098   7.338   5.695   8.857  1.4513  1.1696  0.2290
 1204THY    CA630099   7.396   5.984   8.869 -0.8678  0.4701  0.3983
 1204THY    HA630100   7.486   5.956   8.815 -1.2591 -1.4559  0.6658
 1205THY      O30101   3.879   4.710   6.781  0.1057 -0.1311 -0.4116
 1205THY     HO30102   3.860   4.621   6.816 -1.5251  0.8588  1.4800
 1205THY    CA130103   3.761   4.750   6.730  0.1340  0.2029  1.1737
 1205THY    CA230104   3.752   4.821   6.608 -0.2885 -0.5692 -0.4961
 1205THY    CP130105   3.880   4.856   6.525  0.2089 -0.0275  0.1088
 1205THY    HP130106   3.962   4.854   6.598 -0.6401 -2.0238  1.0721
 1205THY    CP230107   3.918   4.746   6.425 -0.3259  0.1691  0.5011
 1205THY    HP230108   4.009   4.774   6.370  0.3851 -0.0434  1.5373
 1205THY    HP330109   3.929   4.650   6.477 -1.7055  0.5445  1.5275
 1205THY    HP430110   3.835   4.724   6.357 -1.0286 -0.6110  1.5927
 1205THY    CP330111   3.863   4.997   6.461 -0.5201 -0.3089 -0.2610
 1205THY    HP530112   3.795   5.054   6.525 -0.7653 -0.4042 -0.4369
 1205THY    HP630113   3.957   5.052   6.469 -1.5247  1.3464  0.7475
 1205THY    HP730114   3.818   5.000   6.361 -0.0880  4.6394 -0.5836
 1205THY    CA330115   3.618   4.847   6.559  0.4645  0.4611 -0.3982
 1205THY    HA330116   3.608   4.917   6.476 -0.2570  1.7191  0.7037
 1205THY    CA430117   3.506   4.802   6.633  0.4073  0.2696 -1.1124
 1205THY    HA430118   3.402   4.810   6.602 -0.2203 -2.4917  0.0051
 1205THY    CA530119   3.516   4.750   6.766  0.0688  0.2164 -0.1205
 1205THY    CM130120   3.395   4.710   6.845 -0.2311 -0.1304  0.2043
 1205THY    HM130121   3.416   4.699   6.952  1.7505 -1.2635 -0.2486
 1205THY    HM230122   3.322   4.790   6.827 -1.1464 -1.3947 -2.0874
 1205THY    HM330123   3.342   4.623   6.805 -0.1022  0.6617 -1.8145
 1205THY    CA630124   3.646   4.727   6.807  0.5765  0.9023  0.0807
 1205THY    HA630125   3.661   4.672   6.900 -0.4829 -0.6095 -0.6003
 1206THY      O30126   0.409   3.497   5.555  0.1488  0.0882  0.1587
 1206THY     HO30127   0.475   3.561   5.588 -1.7782  0.3296  4.1039
 1206THY    CA130128   0.322   3.568   5.486  0.0614  0.3505  0.6949
 1206THY    CA230129   0.240   3.504   5.390 -0.4794  0.8400 -0.4669
 1206THY    CP130130   0.257   3.355   5.364 -0.0574  1.1679 -0.4697
 1206THY    HP130131   0.359   3.316   5.373 -1.0595 -1.3597  0.9858
 1206THY    CP230132   0.177   3.264   5.464  0.8873  0.7060  0.6813
 1206THY    HP230133   0.071   3.292   5.456  1.3063  2.1659 -0.0470
 1206THY    HP330134   0.200   3.158   5.449 -0.3201  0.4070  0.8201
 1206THY    HP430135   0.207   3.296   5.564 -0.8993  2.2098  0.7790
 1206THY    CP330136   0.209   3.313   5.219 -0.1931  0.4156  0.0576
 1206THY    HP530137   0.100   3.312   5.207 -0.4195  0.2854  1.8656
 1206THY    HP630138   0.246   3.380   5.140 -0.5591 -1.3026 -1.6352
 1206THY    HP730139   0.251   3.214   5.199 -2.3100 -0.8903  1.7295
 1206THY    CA330140   0.129   3.582   5.337  0.3712  0.2445 -0.5629
 1206THY    HA330141   0.058   3.533   5.271  0.4578 -1.1900  0.3685
 1206THY    CA430142   0.114   3.713   5.382  0.2407  0.1135  0.8366
 1206THY    HA430143   0.024   3.763   5.348  0.8449  0.2877 -0.5536
 1206THY    CA530144   0.188   3.766   5.476  0.6925 -0.0901  0.7850
 1206THY    CM130145   0.158   3.910   5.517  0.5353  0.2995  0.1471
 1206THY    HM130146   0.239   3.983   5.521  0.2932  0.5817 -0.0298
 1206THY    HM230147   0.075   3.956   5.461 -1.1331 -1.0755  1.3767
 1206THY    HM330148   0.124   3.904   5.621  2.7871  0.0017  0.9090
 1206THY    CA630149   0.296   3.700   5.529 -0.1837  0.7080  0.1699
 1206THY    HA630150   0.368   3.744   5.597 -0.1332 -0.2504  0.7568
 1207THY      O30151   6.819   9.313   2.823 -0.2800 -0.0891 -0.5898
 1207THY     HO30152   6.814   9.297   2.919  0.5390 -0.1266 -0.5458
 1207THY    CA130153   6.939   9.265   2.792  0.1316  0.6070  0.6444
 1207THY    CA230154   7.005   9.305   2.676 -1.0118 -0.2001  0.2558
 1207THY    CP130155   6.952   9.396   2.568 -0.2154 -0.7614  0.6844
 1207THY    HP130156   7.040   9.422   2.508  0.9806 -4.5222  0.5506
 1207THY    CP230157   6.860   9.315   2.479  0.3242  0.0622 -0.0493
 1207THY    HP230158   6.917   9.254   2.408  0.3530 -0.6543  0.5740
 1207THY    HP330159   6.787   9.254   2.533 -0.7600  0.6841 -0.7773
 1207THY    HP430160   6.802   9.375   2.408 -0.6877 -1.0529 -0.1927
 1207THY    CP330161   6.877   9.527   2.604  0.1693  0.0179  0.4108
 1207THY    HP530162   6.776   9.524   2.646 -1.4249  0.0858 -3.0401
 1207THY    HP630163   6.940   9.588   2.670 -0.1018  0.8107 -0.0482
 1207THY    HP730164   6.870   9.593   2.517  0.8692  1.0061  1.0679
 1207THY    CA330165   7.133   9.245   2.656  0.0528 -0.2274  0.1761
 1207THY    HA330166   7.186   9.273   2.566  1.8258 -0.9334  0.9330
 1207THY    CA430167   7.186   9.148   2.747  0.1214  0.2713  0.5303
 1207THY    HA430168   7.283   9.103   2.731 -0.7321 -1.8371  0.9427
 1207THY    CA530169   7.117   9.117   2.860  0.2716  0.6867 -0.0076
 1207THY    CM130170   7.177   9.008   2.949 -0.2389 -0.2109  0.1723
 1207THY    HM130171   7.149   9.019   3.055  0.2726  1.0163  0.1964
 1207THY    HM230172   7.127   8.917   2.914 -0.6655  0.2383 -0.4075
 1207THY    HM330173   7.286   9.005   2.944 -0.2895 -1.2104 -0.6731
 1207THY    CA630174   6.992   9.171   2.882  0.2136 -0.7583  0.1517
 1207THY    HA630175   6.936   9.132   2.967  0.0299 -0.2835  0.2503
 1208THY      O30176   6.242   5.209   9.045 -0.0862 -0.0391  0.6197
 1208THY     HO30177   6.182   5.222   8.970 -0.5134 -0.6616  0.8421
 1208THY    CA130178   6.328   5.112   9.013 -0.8630  0.4061  0.0548
 1208THY    CA230179   6.438   5.066   9.097 -0.6580  0.3283  0.5361
 1208THY    CP130180   6.437   5.122   9.241  0.1084  0.1236  0.4157
 1208THY    HP130181   6.350   5.187   9.258  1.3410  1.7102  0.9094
 1208THY    CP230182   6.445   5.018   9.351  0.0234 -1.1716  0.5146
 1208THY    HP230183   6.347   4.972   9.370 -0.9377  1.4149  2.4940
 1208THY    HP330184   6.528   4.948   9.332  0.1059 -1.0249  0.3400
 1208THY    HP430185   6.469   5.074   9.442 -1.9751 -0.2303  0.5085
 1208THY    CP330186   6.551   5.218   9.249  0.4966 -0.4257 -0.5459
 1208THY    HP530187   6.544   5.300   9.176 -3.2458 -0.0609  0.0090
 1208THY    HP630188   6.549   5.269   9.346  0.1377 -1.4971  0.0221
 1208THY    HP730189   6.651   5.174   9.245  1.8040  2.3009 -0.4498
 1208THY    CA330190   6.523   4.964   9.056 -0.1808  0.3758  1.0805
 1208THY    HA330191   6.601   4.926   9.120  0.0049  0.0665  0.6696
 1208THY    CA430192   6.514   4.920   8.923 -0.0629 -0.2254  0.7544
 1208THY    HA430193   6.592   4.853   8.887 -0.9869 -0.6968 -0.4233
 1208THY    CA530194   6.414   4.958   8.837 -0.4549 -0.1462 -0.2239
 1208THY    CM130195   6.404   4.890   8.700  0.5416 -0.0189 -0.5246
 1208THY    HM130196   6.303   4.862   8.669  0.0801  0.4472  0.5312
 1208THY    HM230197   6.455   4.949   8.623  0.4553 -0.8380 -1.2239
 1208THY    HM330198   6.460   4.795   8.699  0.6677  0.0555 -0.5436
 1208THY    CA630199   6.325   5.053   8.883 -0.2906  0.1747  0.6561
 1208THY    HA630200   6.233   5.070   8.828 -1.6948 -1.8702  2.2341
 1209THY      O30201   2.658   7.107   1.644  0.2219 -0.7236 -0.0525
 1209THY     HO30202   2.693   7.106   1.554 -0.9037 -1.6010 -0.5152
 1209THY    CA130203   2.560   7.017   1.624  0.2091  0.6303 -0.1137
 1209THY    CA230204   2.448   7.015   1.707  0.1383 -0.7178 -1.6967
 1209THY    CP130205   2.434   7.107   1.833 -0.3562  0.2933  0.2795
 1209THY    HP130206   2.528   7.160   1.852  1.2173 -1.6421 -1.6607
 1209THY    CP230207   2.311   7.206   1.812 -0.0311 -0.0009  0.6322
 1209THY    HP230208   2.331   7.276   1.730 -0.2766 -1.3748 -0.6445
 1209THY    HP330209   2.214   7.160   1.792  0.6279 -0.9336 -0.5337
 1209THY    HP430210   2.290   7.260   1.906  1.1166 -0.8177  1.3935
 1209THY    CP330211   2.415   7.022   1.962 -0.1742 -0.3876 -0.5015
 1209THY    HP530212   2.335   6.948   1.964 -3.0302  2.5128  0.2589
 1209THY    HP630213   2.513   6.979   1.986 -0.8740 -1.5755  0.2688
 1209THY    HP730214   2.383   7.088   2.043 -0.2109 -0.6567 -0.2985
 1209THY    CA330215   2.347   6.922   1.682 -0.0904  0.0801  0.4227
 1209THY    HA330216   2.258   6.920   1.745 -0.1576 -1.3027  0.3191
 1209THY    CA430217   2.366   6.821   1.583  0.5877  0.1476  0.8493
 1209THY    HA430218   2.285   6.754   1.558 -0.1209  1.2869  0.0203
 1209THY    CA530219   2.472   6.832   1.493 -0.3219  0.4580  0.3620
 1209THY    CM130220   2.478   6.741   1.366  0.2106 -0.2010 -0.0789
 1209THY    HM130221   2.574   6.745   1.312 -0.3569 -0.4156 -1.1220
 1209THY    HM230222   2.466   6.636   1.394 -1.5272 -0.5303 -1.8268
 1209THY    HM330223   2.396   6.758   1.295 -0.4346 -0.4687  0.5918
 1209THY    CA630224   2.571   6.930   1.516  0.1849  0.1448  0.2182
 1209THY    HA630225   2.661   6.926   1.455  0.6855  0.8181  0.8856
 1210THY      O30226   6.530   7.225   3.367 -0.3216 -0.1942 -0.5778
 1210THY     HO30227   6.504   7.161   3.436  1.4861 -0.0171  0.3132
 1210THY    CA130228   6.616   7.301   3.426  0.3231 -0.7100 -0.6682
 1210THY    CA230229   6.696   7.384   3.354 -0.0798  0.0678  0.1772
 1210THY    CP130230   6.661   7.408   3.197  0.2503 -0.5516  0.4916
 1210THY    HP130231   6.601   7.330   3.150  3.0827 -2.2647 -0.5290
 1210THY    CP230232   6.569   7.532   3.183 -0.1101  0.7773 -0.1092
 1210THY    HP230233   6.627   7.623   3.201  1.5025 -0.1567 -0.4123
 1210THY    HP330234   6.529   7.528   3.081 -1.1602 -0.7714  0.3245
 1210THY    HP430235   6.486   7.534   3.255 -1.3904 -1.6906 -1.3943
 1210THY    CP330236   6.786   7.426   3.115 -0.1367  0.1884  0.7989
 1210THY    HP530237   6.808   7.533   3.121 -0.8426  0.2798  2.1147
 1210THY    HP630238   6.870   7.364   3.150 -0.8198 -1.2631 -0.0444
 1210THY    HP730239   6.763   7.398   3.012 -0.8116 -0.7133  1.1805
 1210THY    CA330240   6.797   7.459   3.419  0.7323 -0.4680 -0.5418
 1210THY    HA330241   6.857   7.532   3.365 -0.1236  1.1993  0.6889
 1210THY    CA430242   6.813   7.451   3.556  0.1320  0.2339 -0.1504
 1210THY    HA430243   6.896   7.503   3.603  1.8987 -2.2006 -0.3849
 1210THY    CA530244   6.740   7.354   3.630 -0.6417  0.2808  0.0993
 1210THY    CM130245   6.784   7.334   3.766 -0.1774 -0.5604 -0.1809
 1210THY    HM130246   6.801   7.226   3.775  0.8836 -0.7733 -3.4437
 1210THY    HM230247   6.877   7.381   3.798  0.1421 -1.1215 -0.2849
 1210THY    HM330248   6.699   7.363   3.829  0.4887 -1.4828  1.1847
 1210THY    CA630249   6.642   7.280   3.564  0.4121 -0.2387 -0.9577
 1210THY    HA630250   6.591   7.193   3.605 -0.1375 -0.8140 -2.7622
 1211THY      O30251   3.085   1.764   2.315  0.5947  0.0084  0.0998
 1211THY     HO30252   3.169   1.715   2.322  0.0626 -1.1889 -1.2887
 1211THY    CA130253   2.999   1.664   2.286 -0.3814  0.3954 -0.6209
 1211THY    CA230254   2.861   1.674   2.304 -0.3646  0.0374  0.7837
 1211THY    CP130255   2.800   1.813   2.332  0.3492  0.1143 -0.5084
 1211THY    HP130256   2.885   1.882   2.326  0.2736  0.2340 -0.1740
 1211THY    CP230257   2.694   1.856   2.225  0.3808  0.3659 -0.5247
 1211THY    HP230258   2.735   1.822   2.129  0.1970 -1.5989  0.0377
 1211THY    HP330259   2.590   1.826   2.242  0.3154 -0.2288 -1.7994
 1211THY    HP430260   2.710   1.964   2.226  1.2184  0.2631 -1.0374
 1211THY    CP330261   2.746   1.815   2.475 -0.0687  0.5183  0.4447
 1211THY    HP530262   2.680   1.902   2.472 -0.4828  0.2129 -1.9712
 1211THY    HP630263   2.683   1.729   2.498 -0.9474  1.3953  1.3769
 1211THY    HP730264   2.821   1.836   2.552 -1.3235  0.3619  1.7547
 1211THY    CA330265   2.782   1.558   2.274 -0.2748  0.2089 -0.5011
 1211THY    HA330266   2.674   1.568   2.273 -0.1886  1.3387 -1.2474
 1211THY    CA430267   2.845   1.436   2.256  0.0996 -0.3773 -0.2598
 1211THY    HA430268   2.790   1.343   2.244 -0.6954 -0.2724  2.0722
 1211THY    CA530269   2.985   1.429   2.251 -0.0918  0.0552 -0.1315
 1211THY    CM130270   3.056   1.299   2.235 -0.1657  0.2069  0.5480
 1211THY    HM130271   3.054   1.274   2.129 -0.2920  0.2799  0.5319
 1211THY    HM230272   3.158   1.305   2.274 -0.2031  2.8127  0.4533
 1211THY    HM330273   3.006   1.213   2.280 -1.6435  0.2458 -0.9279
 1211THY    CA630274   3.062   1.546   2.260 -0.0566  0.2625 -0.8028
 1211THY    HA630275   3.170   1.544   2.261 -0.0552 -0.3094 -1.6172
 1212THY      O30276   7.446   0.171   9.570  0.5693 -0.3513 -0.0410
 1212THY     HO30277   7.492   0.103   9.623 -1.2273 -0.6429  1.2496
 1212THY    CA130278   7.476   0.143   9.443  0.1996  0.3228 -0.3010
 1212THY    CA230279   7.408   0.204   9.335  0.1162 -0.3521  0.3626
 1212THY    CP130280   7.300   0.310   9.366  0.0714  0.1453  0.3115
 1212THY    HP130281   7.287   0.336   9.472  1.4923  1.2090  0.2532
 1212THY    CP230282   7.333   0.447   9.296  0.7060  0.2592  0.0022
 1212THY    HP230283   7.314   0.432   9.189  1.2736 -1.0567  0.0676
 1212THY    HP330284   7.262   0.529   9.314 -2.0491 -1.7947 -0.7580
 1212THY    HP430285   7.439   0.470   9.307  0.9803 -0.9599  0.0944
 1212THY    CP330286   7.160   0.264   9.330  0.0027  0.1726 -0.2288
 1212THY    HP530287   7.143   0.167   9.380 -0.8954  0.9498  1.0395
 1212THY    HP630288   7.088   0.331   9.379 -1.4732 -3.0262  2.4092
 1212THY    HP730289   7.147   0.257   9.222  0.7596  0.4471 -0.3406
 1212THY    CA330290   7.432   0.164   9.198  0.1214 -0.0664 -0.0647
 1212THY    HA330291   7.371   0.200   9.115  0.0484 -2.0530 -0.9394
 1212THY    CA430292   7.525   0.061   9.181  0.7923  0.1635 -0.4840
 1212THY    HA430293   7.542   0.024   9.080  1.0996  1.3357 -0.8708
 1212THY    CA530294   7.583  -0.006   9.289  0.3522 -0.1428 -0.2484
 1212THY    CM130295   7.675  -0.119   9.277  0.0107  0.0553 -0.3434
 1212THY    HM130296   7.748  -0.114   9.358 -1.0236  0.9525  0.5720
 1212THY    HM230297   7.626  -0.217   9.277  2.8861 -1.5214 -1.4656
 1212THY    HM330298   7.717  -0.124   9.176  0.0721  2.3247 -0.4769
 1212THY    CA630299   7.564   0.038   9.423  0.7357 -0.0495 -0.2170
 1212THY    HA630300   7.612  -0.007   9.509  0.4899 -0.6049 -0.3638
 1213THY      O30301   1.545   6.466   4.561 -0.0776 -0.5408  0.1636
 1213THY     HO30302   1.569   6.405   4.489 -1.6827 -1.8661  0.6663
 1213THY    CA130303   1.648   6.547   4.590  1.0744  0.4008 -0.1525
 1213THY    CA230304   1.650   6.634   4.700 -0.3177  0.2818  0.1875
 1213THY    CP130305   1.539   6.642   4.802  0.7990 -0.2806  0.2813
 1213THY    HP130306   1.466   6.561   4.785 -1.3700  1.7011 -0.3345
 1213THY    CP230307   1.577   6.630   4.951 -0.9386 -0.0073  0.0335
 1213THY    HP230308   1.649   6.549   4.967  0.9956  1.7495  0.6321
 1213THY    HP330309   1.625   6.721   4.988 -0.5616 -0.2146  0.0627
 1213THY    HP430310   1.486   6.618   5.011 -0.4455 -0.1105  0.7682
 1213THY    CP330311   1.454   6.768   4.780 -0.2448  0.4721 -0.3658
 1213THY    HP530312   1.435   6.791   4.675 -1.4496  0.2089 -0.2216
 1213THY    HP630313   1.358   6.776   4.832 -0.0380 -0.4222  0.1723
 1213THY    HP730314   1.514   6.849   4.822 -0.3514  0.5608 -0.3843
 1213THY    CA330315   1.763   6.726   4.709 -0.2786  0.2875 -0.3572
 1213THY    HA330316   1.782   6.795   4.791  2.5202 -1.7287  0.8952
 1213THY    CA430317   1.858   6.726   4.608 -0.4034 -0.1865 -0.0449
 1213THY    HA430318   1.941   6.796   4.620  0.4899 -0.8204 -2.1671
 1213THY    CA530319   1.854   6.640   4.504  0.8062  0.2870 -0.5698
 1213THY    CM130320   1.961   6.643   4.394  0.0577  0.3579  0.1368
 1213THY    HM130321   1.917   6.642   4.294  1.8005  0.5271 -0.6569
 1213THY    HM230322   2.015   6.738   4.395 -0.0808  0.4670 -1.1330
 1213THY    HM330323   2.036   6.563   4.396 -0.1227  0.1873  1.7865
 1213THY    CA630324   1.750   6.552   4.495 -0.6108 -0.3100  0.2458
 1213THY    HA630325   1.756   6.489   4.407  0.5674  0.2885 -0.1169
 1214THY      O30326   0.158   1.474   1.319 -0.2318 -0.3398 -0.5187
 1214THY     HO30327   0.222   1.482   1.246 -0.6296 -0.6962 -0.9096
 1214THY    CA130328   0.099   1.361   1.298  0.2016  0.8337 -0.3770
 1214THY    CA230329   0.067   1.278   1.409  0.0583 -0.0415 -0.3500
 1214THY    CP130330   0.117   1.302   1.552 -0.1557 -0.0735 -0.3599
 1214THY    HP130331   0.166   1.399   1.554  2.0349 -1.1198 -0.4796
 1214THY    CP230332  -0.001   1.317   1.653 -0.3122  0.3308  0.1628
 1214THY    HP230333  -0.043   1.228   1.701  0.1205 -0.2594 -0.5291
 1214THY    HP330334   0.027   1.378   1.739 -1.1438  0.0873  0.6191
 1214THY    HP430335  -0.077   1.375   1.599  1.7792  2.0256 -1.1585
 1214THY    CP330336   0.217   1.195   1.594 -0.1495  1.0130  0.0564
 1214THY    HP530337   0.262   1.151   1.505  1.8933  1.0374  1.0136
 1214THY    HP630338   0.306   1.230   1.648  1.4227 -1.7305 -0.5496
 1214THY    HP730339   0.171   1.120   1.659  0.5485  0.5597  0.0457
 1214THY    CA330340  -0.004   1.159   1.380 -0.4909 -0.8317 -0.3060
 1214THY    HA330341  -0.022   1.090   1.462  0.4594 -2.3371 -1.3195
 1214THY    CA430342  -0.026   1.129   1.245  0.0773  0.2999 -0.9009
 1214THY    HA430343  -0.070   1.031   1.226 -1.4114  0.1872  2.4208
 1214THY    CA530344   0.011   1.213   1.143  0.1557  0.3761  0.1448
 1214THY    CM130345  -0.008   1.179   1.000 -0.3629 -0.0138  0.2667
 1214THY    HM130346   0.053   1.235   0.928  0.0195 -1.6884 -0.7510
 1214THY    HM230347   0.019   1.074   0.983 -0.7328 -0.6317  3.0100
 1214THY    HM330348  -0.114   1.194   0.973 -0.2946 -1.8560 -1.2228
 1214THY    CA630349   0.072   1.327   1.167 -0.3314 -0.1632  0.4075
 1214THY    HA630350   0.107   1.392   1.087  0.0460  0.2816  0.9256
 1215THY      O30351   0.173   3.954   5.873 -0.2450  0.6988  0.3381
 1215THY     HO30352   0.198   3.860   5.864 -0.1549  0.9633 -4.1620
 1215THY    CA130353   0.276   4.012   5.808  0.3756 -0.0442  0.8643
 1215THY    CA230354   0.273   4.141   5.759 -0.3142  0.6277 -0.1644
 1215THY    CP130355   0.150   4.229   5.774  0.0387 -0.2162  0.2560
 1215THY    HP130356   0.089   4.199   5.860  2.4114  0.2389  2.2218
 1215THY    CP230357   0.192   4.372   5.828  0.7213  0.0306  0.3609
 1215THY    HP230358   0.219   4.434   5.742  0.4880  1.4689  1.2943
 1215THY    HP330359   0.101   4.422   5.864  1.0671  0.1032  1.1471
 1215THY    HP430360   0.263   4.363   5.911 -0.2781 -0.1979  1.2291
 1215THY    CP330361   0.079   4.247   5.646  0.4163  0.1167 -0.5319
 1215THY    HP530362   0.003   4.325   5.654  1.8192  1.3726  1.1593
 1215THY    HP630363   0.144   4.275   5.561 -0.6789 -0.8465 -1.7327
 1215THY    HP730364   0.031   4.154   5.612 -0.7375  0.3439  0.4339
 1215THY    CA330365   0.388   4.189   5.694 -0.1966 -0.6467  0.0402
 1215THY    HA330366   0.400   4.290   5.658  1.6454 -1.0597 -0.6117
 1215THY    CA430367   0.504   4.106   5.691  0.1209  0.0691 -0.0831
 1215THY    HA430368   0.599   4.140   5.651 -0.2029  0.1120 -0.8254
 1215THY    CA530369   0.502   3.982   5.747  0.9197  0.5276  0.0347
 1215THY    CM130370   0.630   3.897   5.751 -1.1134 -0.0400  0.0681
 1215THY    HM130371   0.630   3.824   5.833 -1.0830  2.5874  2.5548
 1215THY    HM230372   0.639   3.856   5.650  0.4079  3.3743 -1.3415
 1215THY    HM330373   0.714   3.967   5.753 -0.4714 -0.8201  1.5697
 1215THY    CA630374   0.389   3.933   5.809 -0.8356 -0.3202  0.4474
 1215THY    HA630375   0.392   3.835   5.857  1.5553 -1.4229 -1.6793
 1216THY      O30376   8.834   7.158   8.650  0.4815 -0.0434 -0.1771
 1216THY     HO30377   8.926   7.143   8.676  0.0911 -0.1319  1.2157
 1216THY    CA130378   8.750   7.135   8.753  0.0441 -0.2297  1.1358
 1216THY    CA230379   8.618   7.094   8.726  0.1413  0.3052 -0.4497
 1216THY    CP130380   8.563   7.085   8.577 -0.7219 -0.1869  1.1945
 1216THY    HP130381   8.595   7.169   8.514 -2.8164 -1.1348 -1.3204
 1216THY    CP230382   8.606   6.960   8.501 -0.0075  0.3010 -0.2765
 1216THY    HP230383   8.550   6.941   8.409 -0.0262 -1.2794  0.0274
 1216THY    HP330384   8.714   6.967   8.488 -0.3125  1.0219 -3.0175
 1216THY    HP430385   8.591   6.868   8.559 -0.8419  1.2582  1.0798
 1216THY    CP330386   8.408   7.087   8.570  0.0413  0.0800 -0.1747
 1216THY    HP530387   8.382   7.091   8.464  0.5410  0.3668 -0.2919
 1216THY    HP630388   8.362   6.999   8.615 -1.0433  1.7972  2.3607
 1216THY    HP730389   8.374   7.178   8.622 -1.6301 -0.2286 -0.6895
 1216THY    CA330390   8.532   7.073   8.843 -0.1119 -0.3583 -0.6287
 1216THY    HA330391   8.425   7.055   8.834 -0.7399  2.2871  0.6220
 1216THY    CA430392   8.583   7.086   8.968 -0.3942  0.0740  0.4170
 1216THY    HA430393   8.508   7.071   9.045 -0.2105 -0.6728  0.4601
 1216THY    CA530394   8.715   7.123   8.991  0.9828  0.2615 -0.1882
 1216THY    CM130395   8.763   7.132   9.138 -0.1203 -0.4612  0.2855
 1216THY    HM130396   8.755   7.034   9.186  0.8013 -1.6550 -1.8260
 1216THY    HM230397   8.871   7.153   9.136 -0.3275  0.5787 -0.4115
 1216THY    HM330398   8.719   7.205   9.206  2.7515  0.1842  1.5981
 1216THY    CA630399   8.797   7.146   8.879 -0.1005 -0.0800  0.6616
 1216THY    HA630400   8.902   7.172   8.889 -0.0477 -0.3974  0.9262
 1217THY      O30401   4.713   0.022   3.751  0.6601 -0.1810 -0.4016
 1217THY     HO30402   4.791  -0.026   3.783  0.8293  0.8487  0.8217
 1217THY    CA130403   4.694   0.006   3.619 -0.0307  0.1427  0.0046
 1217THY    CA230404   4.616   0.100   3.546  0.4534  0.3128 -0.3028
 1217THY    CP130405   4.552   0.213   3.628 -0.2934  0.1723 -0.6495
 1217THY    HP130406   4.545   0.194   3.736  0.6650  3.2572  0.0399
 1217THY    CP230407   4.644   0.337   3.631  0.1998  0.1749  0.7970
 1217THY    HP230408   4.678   0.371   3.533 -2.2304  0.7654  0.0941
 1217THY    HP330409   4.593   0.425   3.670 -1.0446 -0.3075  0.3032
 1217THY    HP430410   4.724   0.301   3.697  0.7196 -0.9393 -0.3963
 1217THY    CP330411   4.404   0.246   3.591  0.2068 -0.2332 -0.1064
 1217THY    HP530412   4.359   0.301   3.675  0.1224  0.2444 -0.4576
 1217THY    HP630413   4.405   0.312   3.503  0.4513 -1.7517 -1.2830
 1217THY    HP730414   4.355   0.152   3.564  0.8416 -0.5425 -0.1946
 1217THY    CA330415   4.597   0.083   3.405 -0.3742 -0.3012 -0.7055
 1217THY    HA330416   4.526   0.147   3.353 -0.9094 -0.8418 -0.6614
 1217THY    CA430417   4.660  -0.024   3.339  0.7994  0.4563 -0.3780
 1217THY    HA430418   4.650  -0.037   3.231 -2.6743  0.8082 -0.2036
 1217THY    CA530419   4.732  -0.118   3.420 -0.3279 -0.6971  0.4468
 1217THY    CM130420   4.803  -0.230   3.347  0.2630  0.0301 -0.2871
 1217THY    HM130421   4.738  -0.293   3.284  0.5567  0.4350 -1.0100
 1217THY    HM230422   4.871  -0.193   3.269  1.1390  0.7151  0.7774
 1217THY    HM330423   4.853  -0.292   3.422 -0.5068 -1.1424 -0.7077
 1217THY    CA630424   4.747  -0.103   3.558 -0.8064  0.8632  0.0095
 1217THY    HA630425   4.814  -0.165   3.617 -1.2865  0.5687  0.2421
 1218THY      O30426   9.401   6.805   4.161  0.0158 -0.4488 -0.2976
 1218THY     HO30427   9.384   6.847   4.076 -0.0866 -0.1586 -0.1341
 1218THY    CA130428   9.344   6.889   4.244  0.9260  0.0526 -0.5321
 1218THY    CA230429   9.255   6.844   4.343  0.4478  0.0873 -0.1952
 1218THY    CP130430   9.211   6.699   4.349  0.2863 -0.1134  1.3902
 1218THY    HP130431   9.217   6.663   4.246  1.1115  0.7081  1.1377
 1218THY    CP230432   9.314   6.627   4.432 -0.0973  0.1106 -0.8732
 1218THY    HP230433   9.298   6.518   4.430  0.5049 -0.0585  1.0508
 1218THY    HP330434   9.415   6.648   4.395  0.6816 -0.8459  0.5944
 1218THY    HP430435   9.312   6.675   4.531 -2.3766 -2.3555  0.4235
 1218THY    CP330436   9.074   6.669   4.406  0.0202  0.4069  0.2720
 1218THY    HP530437   9.084   6.695   4.512 -1.0941  1.5263  0.1366
 1218THY    HP630438   9.004   6.746   4.370  1.4630  0.5760 -2.3911
 1218THY    HP730439   9.044   6.567   4.378 -0.0703 -0.2307  2.5245
 1218THY    CA330440   9.206   6.938   4.437  0.1279  0.5049  0.4582
 1218THY    HA330441   9.134   6.909   4.513  0.9221  0.2677  1.1383
 1218THY    CA430442   9.237   7.076   4.415 -0.2574  0.3182 -0.1837
 1218THY    HA430443   9.188   7.150   4.478 -2.0079 -0.8926 -0.0585
 1218THY    CA530444   9.333   7.116   4.315  0.7757  0.1033 -0.6236
 1218THY    CM130445   9.382   7.257   4.315  0.0330  0.9120 -0.3891
 1218THY    HM130446   9.305   7.327   4.349  1.8727  1.5470  2.8681
 1218THY    HM230447   9.460   7.263   4.391 -0.2391 -0.3106  0.0151
 1218THY    HM330448   9.416   7.274   4.212 -0.4288 -0.0875 -0.7193
 1218THY    CA630449   9.373   7.025   4.219  0.5070 -0.5738 -0.0362
 1218THY    HA630450   9.436   7.055   4.136 -0.3873  2.3511  0.2138
 1219THY      O30451   8.817   5.200   9.442 -0.4134  0.9617  0.2962
 1219THY     HO30452   8.861   5.285   9.426  0.1886  0.8123  1.0986
 1219THY    CA130453   8.908   5.106   9.442  0.4509 -0.3983  0.3306
 1219THY    CA230454   8.888   4.977   9.395 -0.1809  0.0492 -0.0348
 1219THY    CP130455   8.747   4.940   9.342  0.2922  0.0062 -0.3899
 1219THY    HP130456   8.697   5.029   9.304  1.0586  0.6482  0.0809
 1219THY    CP230457   8.750   4.844   9.222  0.2249 -0.0040 -0.0564
 1219THY    HP230458   8.826   4.870   9.148 -1.5557 -1.5030 -2.5263
 1219THY    HP330459   8.760   4.738   9.247  4.9577  0.3871  0.5360
 1219THY    HP430460   8.656   4.850   9.166  0.7140  0.5266 -0.8339
 1219THY    CP330461   8.648   4.889   9.449 -0.5379  0.3613  0.1825
 1219THY    HP530462   8.633   4.982   9.506  0.1154  0.3711  0.3517
 1219THY    HP630463   8.550   4.861   9.410 -1.1591  1.4071  0.9307
 1219THY    HP730464   8.700   4.813   9.509  0.9537  1.4553  0.3480
 1219THY    CA330465   8.998   4.885   9.414 -0.3743  0.4247 -0.0657
 1219THY    HA330466   8.996   4.779   9.390 -1.2313 -0.1213  2.2463
 1219THY    CA430467   9.117   4.925   9.474  0.3551 -0.3533 -0.0054
 1219THY    HA430468   9.201   4.859   9.490  2.0290  1.4730 -0.8715
 1219THY    CA530469   9.135   5.058   9.510  0.2451 -0.2637  0.0643
 1219THY    CM130470   9.268   5.109   9.552  0.8271 -0.0346  0.0283
 1219THY    HM130471   9.316   5.044   9.626  0.4093 -1.6105 -1.0053
 1219THY    HM230472   9.329   5.126   9.462 -1.4180  0.9649 -1.3869
 1219THY    HM330473   9.253   5.209   9.591 -1.1755  0.7424 -2.4305
 1219THY    CA630474   9.024   5.147   9.496 -0.3258  0.6418 -1.6215
 1219THY    HA630475   9.038   5.254   9.508  0.4643  0.4128 -0.3783
 1220THY      O30476   9.379   6.196   0.216  0.0477 -0.0634 -0.0380
 1220THY     HO30477   9.444   6.220   0.284 -0.7330  2.3363 -0.0383
 1220THY    CA130478   9.325   6.317   0.190  1.0505  0.0937 -1.0441
 1220THY    CA230479   9.255   6.350   0.069 -0.1695 -0.4167  0.8213
 1220THY    CP130480   9.257   6.239  -0.034  0.0494 -0.1625  0.5359
 1220THY    HP130481   9.358   6.195  -0.031  0.1043 -0.0379  0.5577
 1220THY    CP230482   9.156   6.123  -0.007 -0.1776  0.0037  0.1395
 1220THY    HP230483   9.166   6.049  -0.087 -0.5632  0.8110 -0.6703
 1220THY    HP330484   9.170   6.062   0.083 -3.6327 -0.4853  0.4705
 1220THY    HP430485   9.050   6.147  -0.019  0.0704  1.3847  0.5526
 1220THY    CP330486   9.240   6.280  -0.182  0.1314  0.2884  0.2495
 1220THY    HP530487   9.251   6.197  -0.253  1.5609  0.8402 -0.2270
 1220THY    HP630488   9.142   6.323  -0.203  0.5807  0.6024 -1.3324
 1220THY    HP730489   9.325   6.346  -0.204  1.2085 -0.5308  1.7602
 1220THY    CA330490   9.182   6.471   0.054  0.2799 -0.1421 -0.2935
 1220THY    HA330491   9.133   6.508  -0.036  0.5240  1.9608  0.3937
 1220THY    CA430492   9.182   6.553   0.170 -0.3914 -0.1614  0.6117
 1220THY    HA430493   9.144   6.655   0.165  1.5676  0.7182  2.0440
 1220THY    CA530494   9.240   6.515   0.294 -0.3640  0.5914  0.6595
 1220THY    CM130495   9.225   6.599   0.416 -0.0672  0.1284 -0.0850
 1220THY    HM130496   9.213   6.703   0.383  1.7406 -0.1134 -1.6659
 1220THY    HM230497   9.135   6.570   0.473  0.2774 -1.7665 -0.4381
 1220THY    HM330498   9.314   6.591   0.479  0.9179 -1.5302 -1.5887
 1220THY    CA630499   9.304   6.392   0.302  1.2823  0.5944 -0.0990
 1220THY    HA630500   9.358   6.363   0.391  2.0141  0.9287 -0.4242
 1221THY      O30501   0.691   3.361   9.655 -0.4115 -0.7031  0.2153
 1221THY     HO30502   0.761   3.427   9.672 -0.1907 -0.3237 -1.9766
 1221THY    CA130503   0.580   3.376   9.733 -0.5073 -0.4928 -0.3700
 1221THY    CA230504   0.467   3.299   9.714 -0.9018  0.5935 -0.1101
 1221THY    CP130505   0.446   3.215   9.582 -0.4560  0.0021 -0.0953
 1221THY    HP130506   0.534   3.225   9.518  1.2828 -2.1527  1.7972
 1221THY    CP230507   0.432   3.064   9.606  0.1152 -0.3105 -0.3101
 1221THY    HP230508   0.505   3.031   9.681 -1.5430 -4.5660 -0.2698
 1221THY    HP330509   0.342   3.037   9.663  0.4470 -0.5575  0.1034
 1221THY    HP430510   0.444   3.008   9.513  1.2964 -2.4807  1.0519
 1221THY    CP330511   0.334   3.269   9.497  1.0546  0.9680  0.0843
 1221THY    HP530512   0.243   3.254   9.558  0.1349  0.8886 -1.2624
 1221THY    HP630513   0.344   3.373   9.465 -1.7663  1.4430  0.4426
 1221THY    HP730514   0.314   3.214   9.404  1.4710 -0.8645  1.0114
 1221THY    CA330515   0.365   3.296   9.812 -0.0505 -0.0685 -0.6886
 1221THY    HA330516   0.268   3.249   9.803  0.1214 -0.6409  0.3229
 1221THY    CA430517   0.381   3.379   9.926  0.1627 -0.1760  0.2845
 1221THY    HA430518   0.294   3.383   9.990 -0.2577 -2.6206 -0.0269
 1221THY    CA530519   0.497   3.457   9.946 -0.3291  0.1902 -0.4826
 1221THY    CM130520   0.503   3.555  10.062  0.1101  0.2918 -0.0133
 1221THY    HM130521   0.528   3.655  10.026  2.8376 -0.7320 -1.2028
 1221THY    HM230522   0.409   3.556  10.119  0.2541 -1.9792  0.3871
 1221THY    HM330523   0.574   3.514  10.134 -0.1975 -1.2238 -0.5258
 1221THY    CA630524   0.596   3.453   9.850  0.4391  0.4303 -0.0410
 1221THY    HA630525   0.683   3.517   9.863 -0.2104  1.7520 -1.8574
 1222THY      O30526   8.527   3.461   1.191  0.3192 -0.1085  0.0652
 1222THY     HO30527   8.471   3.480   1.114  1.0979  0.5417 -0.3591
 1222THY    CA130528   8.540   3.581   1.260 -0.6626  0.3136 -0.0952
 1222THY    CA230529   8.644   3.601   1.349  0.5065  0.8036 -0.3565
 1222THY    CP130530   8.767   3.513   1.338 -0.6595  0.1088  0.2114
 1222THY    HP130531   8.756   3.438   1.258 -0.4160 -0.6187  0.8408
 1222THY    CP230532   8.872   3.599   1.271  0.2002  0.2857 -0.3567
 1222THY    HP230533   8.890   3.683   1.339 -1.7947  0.1977  0.3531
 1222THY    HP330534   8.954   3.527   1.277 -0.8385 -0.8119  1.4879
 1222THY    HP430535   8.846   3.631   1.169 -2.0389 -0.6864 -0.1479
 1222THY    CP330536   8.807   3.433   1.465 -0.5858 -0.7459  0.0811
 1222THY    HP530537   8.896   3.372   1.448  1.5133  1.6599  1.7129
 1222THY    HP630538   8.824   3.501   1.550  0.9448 -0.4797 -0.4084
 1222THY    HP730539   8.721   3.370   1.492 -1.3076  0.5270  0.8685
 1222THY    CA330540   8.627   3.704   1.452  0.0699  1.0462  0.5055
 1222THY    HA330541   8.710   3.734   1.515  1.6374  0.8887 -1.3763
 1222THY    CA430542   8.504   3.766   1.458 -0.5827 -0.5870 -0.2030
 1222THY    HA430543   8.493   3.844   1.533  2.9367  0.1690 -0.2865
 1222THY    CA530544   8.409   3.750   1.362 -0.2429 -0.6047  0.3239
 1222THY    CM130545   8.289   3.848   1.371 -0.6328  0.0960  0.3321
 1222THY    HM130546   8.244   3.873   1.275 -0.2158  2.1331  0.6185
 1222THY    HM230547   8.220   3.793   1.437 -0.6319 -0.0551  0.2085
 1222THY    HM330548   8.314   3.947   1.409 -0.9882  0.1520  0.4275
 1222THY    CA630549   8.423   3.656   1.265  0.6808 -0.3351 -0.7409
 1222THY    HA630550   8.343   3.627   1.198 -0.5907  2.4259 -0.5362
 1223THY      O30551   3.029   0.888   0.238  0.0844  0.0447 -0.0186
 1223THY     HO30552   2.957   0.872   0.301  1.2287 -1.5295  0.9658
 1223THY    CA130553   3.042   0.776   0.160  0.3562 -0.9466 -0.2859
 1223THY    CA230554   3.167   0.726   0.117  0.7952 -0.1215 -0.0480
 1223THY    CP130555   3.295   0.792   0.165 -0.2346  0.7525 -0.3389
 1223THY    HP130556   3.267   0.868   0.238  0.3210 -2.5402  3.6787
 1223THY    CP230557   3.389   0.690   0.229  1.0173 -0.1826 -0.0397
 1223THY    HP230558   3.419   0.616   0.154  0.2470  0.0684 -0.6076
 1223THY    HP330559   3.481   0.733   0.271  1.1199 -0.0318 -0.4168
 1223THY    HP430560   3.345   0.631   0.310 -0.5134 -0.4717 -1.0400
 1223THY    CP330561   3.362   0.871   0.055  0.2586  0.0726 -0.3796
 1223THY    HP530562   3.295   0.948   0.015  2.0333  0.5987 -2.5381
 1223THY    HP630563   3.447   0.915   0.109 -1.2256 -0.0431  2.2391
 1223THY    HP730564   3.391   0.798  -0.021 -1.1476  1.0581 -1.9282
 1223THY    CA330565   3.173   0.608   0.040 -0.6572  0.9666  0.1455
 1223THY    HA330566   3.270   0.575   0.003 -0.7469 -2.5668  2.5841
 1223THY    CA430567   3.060   0.542  -0.004 -0.4404 -0.1038  0.3650
 1223THY    HA430568   3.068   0.452  -0.064  1.1175 -0.5476  1.1869
 1223THY    CA530569   2.933   0.582   0.047  0.0663  0.0556 -0.4228
 1223THY    CM130570   2.808   0.506   0.020 -0.1063  0.3616 -0.0310
 1223THY    HM130571   2.734   0.527   0.097  1.7164  2.5705  1.2255
 1223THY    HM230572   2.762   0.524  -0.078 -2.5381 -0.5120  0.8629
 1223THY    HM330573   2.823   0.398   0.036  0.9920  0.2073 -1.7790
 1223THY    CA630574   2.927   0.697   0.137 -0.1780  0.2213  0.3431
 1223THY    HA630575   2.830   0.716   0.183  0.5540 -0.8317  2.4532
 1224THY      O30576   7.855   7.716   8.082  0.0966  0.0787  0.3679
 1224THY     HO30577   7.922   7.648   8.063 -0.3790 -0.4608  0.5854
 1224THY    CA130578   7.807   7.693   8.204  0.1318  0.2158  0.1834
 1224THY    CA230579   7.715   7.784   8.264 -0.8231  0.4520 -0.2895
 1224THY    CP130580   7.660   7.906   8.189  0.0181  0.4738 -0.2541
 1224THY    HP130581   7.741   7.945   8.126 -0.0052  0.7677 -0.1049
 1224THY    CP230582   7.543   7.861   8.099 -0.2213 -0.3139 -0.1038
 1224THY    HP230583   7.504   7.946   8.042 -0.1042  0.9523  1.6259
 1224THY    HP330584   7.572   7.780   8.031  0.0115  0.2190 -0.6516
 1224THY    HP430585   7.458   7.835   8.163  1.7323 -1.8451  2.0615
 1224THY    CP330586   7.623   8.016   8.275 -0.4982  0.3050  0.5300
 1224THY    HP530587   7.686   8.026   8.365  0.8168 -2.0158 -0.0311
 1224THY    HP630588   7.627   8.109   8.219  1.4721  1.8207  2.9712
 1224THY    HP730589   7.522   8.004   8.315 -0.4072 -0.3609  0.5751
 1224THY    CA330590   7.657   7.749   8.385  0.0396  0.8424 -0.5259
 1224THY    HA330591   7.580   7.812   8.428 -0.5412  0.1783 -0.5830
 1224THY    CA430592   7.705   7.631   8.461 -0.0202 -0.6386  0.3719
 1224THY    HA430593   7.667   7.616   8.561  0.9335  1.6829  1.1662
 1224THY    CA530594   7.789   7.541   8.389  0.1158  0.3500  0.6363
 1224THY    CM130595   7.811   7.411   8.451  0.6724 -0.1013 -0.1716
 1224THY    HM130596   7.808   7.414   8.560  0.3948  5.0215 -0.0555
 1224THY    HM230597   7.744   7.334   8.411  1.5290  0.0669 -2.0783
 1224THY    HM330598   7.906   7.371   8.415 -0.1626 -0.4861 -2.1114
 1224THY    CA630599   7.835   7.574   8.262 -0.5351 -0.5623 -1.1760
 1224THY    HA630600   7.884   7.495   8.208 -1.3794 -1.9543  0.0132
 1225THY      O30601   2.809   0.749   8.978  0.5482 -0.1927  0.1600
 1225THY     HO30602   2.752   0.741   9.056  0.3772 -1.5625 -0.0661
 1225THY    CA130603   2.779   0.871   8.926 -0.9953  0.5039 -0.3902
 1225THY    CA230604   2.839   0.921   8.807  0.0185  0.3297 -0.4233
 1225THY    CP130605   2.927   0.830   8.724 -0.1162  0.4208  0.0856
 1225THY    HP130606   2.970   0.749   8.784 -0.6658  0.1208  0.0816
 1225THY    CP230607   2.853   0.779   8.602  0.3398  0.2146  0.9129
 1225THY    HP230608   2.921   0.709   8.553 -1.2291 -0.0807 -0.9822
 1225THY    HP330609   2.757   0.733   8.630 -1.0734  2.3164 -0.1541
 1225THY    HP430610   2.816   0.867   8.548 -0.0674 -0.3798  0.1938
 1225THY    CP330611   3.054   0.908   8.678  0.2345  0.3002  0.1581
 1225THY    HP530612   3.109   0.930   8.771 -2.3758  0.2800  1.8138
 1225THY    HP630613   3.118   0.836   8.626 -0.4910 -1.5788  1.7534
 1225THY    HP730614   3.030   0.995   8.616 -0.8526  0.1466  0.3516
 1225THY    CA330615   2.794   1.044   8.751 -0.3412 -0.1462 -0.8403
 1225THY    HA330616   2.829   1.082   8.655  1.1320  3.4461  0.9168
 1225THY    CA430617   2.708   1.124   8.836  0.2066 -0.2967  0.2360
 1225THY    HA430618   2.664   1.211   8.788  1.7060  0.3363 -0.0408
 1225THY    CA530619   2.662   1.077   8.957 -0.3542  0.1261 -0.0231
 1225THY    CM130620   2.572   1.162   9.044  0.8073 -0.0663 -0.4256
 1225THY    HM130621   2.467   1.130   9.035  0.3419  1.5211 -1.0480
 1225THY    HM230622   2.610   1.161   9.146 -1.0728  0.3779  0.3131
 1225THY    HM330623   2.578   1.265   9.009 -2.0216  0.4980  0.5160
 1225THY    CA630624   2.694   0.951   9.010 -0.1967  0.3809  0.0736
 1225THY    HA630625   2.655   0.920   9.107  0.2010  2.5861  0.9821
 1226THY      O30626   8.542   1.054   9.435 -0.0349 -0.1846 -0.3579
 1226THY     HO30627   8.607   1.060   9.507 -2.4053  1.2978  1.7966
 1226THY    CA130628   8.542   1.165   9.366 -0.1579 -0.3679  0.4479
 1226THY    CA230629   8.502   1.170   9.231 -0.0387  0.2854 -0.2762
 1226THY    CP130630   8.445   1.038   9.167  0.2660 -0.3227 -1.0423
 1226THY    HP130631   8.412   0.965   9.241  0.1515  0.0678 -0.7026
 1226THY    CP230632   8.326   1.060   9.076 -0.8202  0.8119 -0.1430
 1226THY    HP230633   8.362   1.086   8.975 -0.1475 -1.7138 -0.6404
 1226THY    HP330634   8.268   0.968   9.069 -1.2936  1.0103  1.1041
 1226THY    HP430635   8.255   1.135   9.110 -0.9217  0.1565  1.1351
 1226THY    CP330636   8.557   0.974   9.084  0.9508 -0.1799 -0.2575
 1226THY    HP530637   8.618   1.053   9.038  1.1009 -0.6306 -0.8418
 1226THY    HP630638   8.619   0.912   9.150  2.0669 -1.4228 -2.3912
 1226THY    HP730639   8.516   0.901   9.014  0.5694  1.6126 -2.0156
 1226THY    CA330640   8.491   1.296   9.169 -0.4308 -0.2260  0.6901
 1226THY    HA330641   8.441   1.303   9.073 -1.4287 -1.4077  1.0869
 1226THY    CA430642   8.554   1.405   9.229  0.8471  0.1653  0.5117
 1226THY    HA430643   8.556   1.494   9.167  2.9369  0.8228  1.4288
 1226THY    CA530644   8.609   1.399   9.354  0.5030  0.1238 -0.8754
 1226THY    CM130645   8.666   1.516   9.421 -0.1484  0.6200 -0.2814
 1226THY    HM130646   8.604   1.568   9.496  2.3519  3.3142  0.1224
 1226THY    HM230647   8.760   1.476   9.460 -0.5654 -1.3809 -1.1895
 1226THY    HM330648   8.692   1.600   9.356 -1.7872  1.3675 -0.0250
 1226THY    CA630649   8.591   1.278   9.425 -0.4463 -0.0099 -0.0724
 1226THY    HA630650   8.644   1.270   9.520  2.6885  1.7192 -1.5100
 1227THY      O30651   6.638   5.224   5.948  0.8334  0.0369  0.3270
 1227THY     HO30652   6.572   5.163   5.987 -0.5764  0.4356 -1.3259
 1227THY    CA130653   6.572   5.277   5.842 -0.3285 -0.3434  0.3473
 1227THY    CA230654   6.636   5.376   5.759  0.8751 -0.2290  0.0239
 1227THY    CP130655   6.764   5.444   5.812 -0.5527 -0.1122 -0.3236
 1227THY    HP130656   6.776   5.426   5.919 -2.1626  1.4317  0.1569
 1227THY    CP230657   6.885   5.389   5.734  0.5240  0.3338 -0.8305
 1227THY    HP230658   6.885   5.279   5.737  1.7726  0.3247 -0.3077
 1227THY    HP330659   6.884   5.406   5.626  0.0955 -3.2476 -1.5193
 1227THY    HP430660   6.976   5.415   5.789 -0.3902 -1.0733  1.4998
 1227THY    CP330661   6.770   5.593   5.796  0.0351  0.0191  0.6709
 1227THY    HP530662   6.695   5.637   5.862  0.8844  0.0851  1.6229
 1227THY    HP630663   6.866   5.640   5.822 -0.5680  2.6135 -1.3512
 1227THY    HP730664   6.764   5.636   5.695  0.7283  1.7063  1.3113
 1227THY    CA330665   6.570   5.412   5.635 -0.5802  0.3469 -0.6939
 1227THY    HA330666   6.611   5.482   5.562 -2.7414 -0.9084 -3.2996
 1227THY    CA430667   6.470   5.325   5.592  0.1187 -0.0024  0.0589
 1227THY    HA430668   6.430   5.332   5.491 -1.7586 -2.7222  0.5174
 1227THY    CA530669   6.408   5.227   5.672  0.2634 -0.6042  0.0457
 1227THY    CM130670   6.299   5.141   5.616 -0.3288 -0.4702 -0.0791
 1227THY    HM130671   6.298   5.149   5.506 -1.2314 -0.5188 -0.0830
 1227THY    HM230672   6.319   5.035   5.635  1.4618 -0.4192 -1.4687
 1227THY    HM330673   6.198   5.162   5.654  0.1337 -1.7938  2.0203
 1227THY    CA630674   6.456   5.206   5.801 -0.9786  0.3182  0.8292
 1227THY    HA630675   6.409   5.125   5.856 -3.6442 -0.9188 -2.9152
 1228THY      O30676   8.296   2.718   7.925 -0.0124  0.1182  0.0198
 1228THY     HO30677   8.255   2.654   7.986 -0.3620  1.6941  1.4866
 1228THY    CA130678   8.336   2.668   7.808 -0.1039  0.2538 -0.1903
 1228THY    CA230679   8.360   2.761   7.698  0.0442 -0.1908 -0.3322
 1228THY    CP130680   8.344   2.915   7.727 -0.2629 -0.1362 -0.6721
 1228THY    HP130681   8.361   2.930   7.834  0.6281 -2.0713 -0.4893
 1228THY    CP230682   8.451   2.998   7.659  0.0435  0.2654  0.7235
 1228THY    HP230683   8.554   2.968   7.684 -0.5741 -2.4862  0.2471
 1228THY    HP330684   8.431   2.982   7.553 -1.9185 -0.9647  1.2289
 1228THY    HP430685   8.435   3.105   7.680 -1.4159 -0.4039  3.5279
 1228THY    CP330686   8.203   2.959   7.703 -0.0034  0.8146  0.1442
 1228THY    HP530687   8.123   2.900   7.749 -0.5033  0.3415 -1.2541
 1228THY    HP630688   8.185   3.053   7.757 -2.5570  0.5000 -0.0272
 1228THY    HP730689   8.167   2.965   7.599  0.0219 -3.1543 -0.2563
 1228THY    CA330690   8.388   2.715   7.568 -0.6800 -0.1470  0.1245
 1228THY    HA330691   8.396   2.787   7.487  0.6714 -0.7477 -0.3029
 1228THY    CA430692   8.413   2.580   7.550  0.4519 -0.3734 -0.5059
 1228THY    HA430693   8.443   2.540   7.453  1.4315  0.0269 -0.3816
 1228THY    CA530694   8.396   2.491   7.657 -0.7239 -0.4549  0.0864
 1228THY    CM130695   8.409   2.349   7.622  0.6852  0.5237 -0.5978
 1228THY    HM130696   8.506   2.326   7.577  0.9247 -1.3821  0.7721
 1228THY    HM230697   8.399   2.295   7.717  0.3946 -0.2110 -1.0322
 1228THY    HM330698   8.333   2.315   7.550 -0.9096  1.3708  0.6208
 1228THY    CA630699   8.359   2.532   7.788 -0.6052 -0.0808 -0.1112
 1228THY    HA630700   8.346   2.454   7.862 -0.3904 -1.0303 -1.0392
 1229THY      O30701   2.318   1.305   3.518  0.2141  0.7235 -0.8331
 1229THY     HO30702   2.338   1.217   3.555 -1.6636  0.4000 -0.5102
 1229THY    CA130703   2.233   1.360   3.611  0.2510  0.4578  0.1617
 1229THY    CA230704   2.269   1.491   3.657  0.1779  0.0384  0.4884
 1229THY    CP130705   2.377   1.568   3.569  0.9511  0.5163 -0.2061
 1229THY    HP130706   2.372   1.537   3.464  1.9597  0.7727 -0.3461
 1229THY    CP230707   2.350   1.721   3.570 -0.1130 -0.1066 -0.3404
 1229THY    HP230708   2.246   1.749   3.549 -0.3434 -0.2086  0.6175
 1229THY    HP330709   2.371   1.758   3.671  0.0138  2.4577 -1.2339
 1229THY    HP430710   2.406   1.776   3.494 -2.3518 -0.1386 -2.1233
 1229THY    CP330711   2.523   1.547   3.609 -0.6426  0.3569  0.5724
 1229THY    HP530712   2.585   1.610   3.544  1.3353 -0.9414  1.1142
 1229THY    HP630713   2.537   1.581   3.712 -1.9546 -0.9386  1.2287
 1229THY    HP730714   2.556   1.443   3.625 -0.6958  0.5555  2.0371
 1229THY    CA330715   2.197   1.549   3.765 -0.4625 -0.4733 -0.2088
 1229THY    HA330716   2.208   1.649   3.806 -1.2426 -0.5819  0.3023
 1229THY    CA430717   2.110   1.462   3.834  0.1938 -0.0257 -0.0776
 1229THY    HA430718   2.052   1.509   3.913  1.2406 -0.1959  0.8104
 1229THY    CA530719   2.084   1.332   3.795  0.1160  0.4119  0.1251
 1229THY    CM130720   1.973   1.252   3.866  0.1982 -0.0096 -0.6118
 1229THY    HM130721   1.964   1.151   3.823  1.0546  0.1774 -1.2553
 1229THY    HM230722   1.987   1.238   3.974  2.2942 -2.9491 -1.1251
 1229THY    HM330723   1.875   1.293   3.840  0.1460  0.6041  0.5115
 1229THY    CA630724   2.147   1.282   3.686  0.5066 -0.1931  0.4820
 1229THY    HA630725   2.122   1.182   3.653 -2.3247  0.6019  0.0067
 1230THY      O30726   2.714   6.047   3.058 -0.1113 -0.2626  0.5415
 1230THY     HO30727   2.794   6.014   3.013  0.1142  0.3879  0.4499
 1230THY    CA130728   2.658   5.944   3.121 -0.5278  0.2015 -0.2945
 1230THY    CA230729   2.523   5.947   3.155 -0.2919  0.4564 -0.2598
 1230THY    CP130730   2.435   6.079   3.135 -0.2450 -0.1325 -0.1174
 1230THY    HP130731   2.485   6.135   3.056 -0.4823 -0.3925 -0.4539
 1230THY    CP230732   2.287   6.062   3.095  0.0803 -0.0805 -0.3121
 1230THY    HP230733   2.270   5.961   3.058 -0.2397 -0.8804  1.9191
 1230THY    HP330734   2.217   6.090   3.174  0.4318 -1.1649  0.3934
 1230THY    HP430735   2.266   6.137   3.017  0.5488 -0.4889 -0.8381
 1230THY    CP330736   2.437   6.159   3.260  0.3159 -0.3248 -0.3161
 1230THY    HP530737   2.396   6.259   3.241 -0.1399 -0.1362  1.4740
 1230THY    HP630738   2.395   6.115   3.351  1.0174  0.5891  0.4698
 1230THY    HP730739   2.542   6.176   3.288  0.4309 -1.6190  0.1056
 1230THY    CA330740   2.466   5.847   3.238 -0.4735  0.1062 -0.9690
 1230THY    HA330741   2.364   5.854   3.274 -0.7712 -3.0586 -0.9791
 1230THY    CA430742   2.552   5.743   3.293 -0.6079 -0.1581  0.4862
 1230THY    HA430743   2.510   5.669   3.360 -2.2447  1.0307  0.8570
 1230THY    CA530744   2.683   5.733   3.249  0.1208  0.7762 -0.1827
 1230THY    CM130745   2.756   5.613   3.297 -0.0084  0.2338  0.2491
 1230THY    HM130746   2.717   5.517   3.259  0.3834 -0.6958  2.0411
 1230THY    HM230747   2.856   5.620   3.253  0.1982  3.5769  0.9752
 1230THY    HM330748   2.764   5.602   3.406 -1.0412 -0.4843  0.2719
 1230THY    CA630749   2.737   5.835   3.172  0.0448 -0.6738  0.4764
 1230THY    HA630750   2.841   5.822   3.142 -0.4092  0.8572 -2.0768
 1231THY      O30751   9.418   1.222   2.822 -0.2835  0.0898  0.1690
 1231THY     HO30752   9.350   1.231   2.753 -1.4964 -0.5964  1.2218
 1231THY    CA130753   9.532   1.279   2.779 -0.0909 -0.2594  0.8214
 1231THY    CA230754   9.650   1.266   2.849 -1.0703 -0.4824  0.0127
 1231THY    CP130755   9.661   1.170   2.971  0.1971  0.2696  0.6044
 1231THY    HP130756   9.569   1.175   3.030 -1.3255 -0.6211 -1.5583
 1231THY    CP230757   9.678   1.032   2.914 -0.4844 -0.6300  0.2410
 1231THY    HP230758   9.690   0.960   2.996 -1.1308 -0.0025  0.8919
 1231THY    HP330759   9.590   1.007   2.854 -0.1746  0.1140 -0.5397
 1231THY    HP430760   9.762   1.030   2.843  0.0079 -0.6156  0.8187
 1231THY    CP330761   9.780   1.194   3.062 -0.9197 -0.2046  0.0733
 1231THY    HP530762   9.775   1.135   3.154 -1.2829  0.0780  0.2378
 1231THY    HP630763   9.871   1.168   3.007 -1.4756 -0.6969 -0.6419
 1231THY    HP730764   9.779   1.299   3.094 -1.8839 -0.1035 -0.2526
 1231THY    CA330765   9.757   1.344   2.806 -0.2275 -0.0758 -0.0214
 1231THY    HA330766   9.851   1.340   2.861 -0.1235  0.7137 -0.1314
 1231THY    CA430767   9.750   1.432   2.700 -0.2972 -0.2268 -0.1621
 1231THY    HA430768   9.838   1.490   2.674  1.0398 -0.9911  2.3481
 1231THY    CA530769   9.630   1.444   2.624 -0.0150  0.4324  0.7706
 1231THY    CM130770   9.601   1.546   2.514 -0.1901  0.9110  0.6930
 1231THY    HM130771   9.497   1.539   2.480 -0.0400 -0.5792  0.4968
 1231THY    HM230772   9.629   1.649   2.541 -0.5197  1.1505  0.1423
 1231THY    HM330773   9.652   1.529   2.418 -2.8801 -2.6461 -0.3009
 1231THY    CA630774   9.520   1.373   2.669 -0.5563 -0.1226  0.0525
 1231THY    HA630775   9.426   1.386   2.616  0.0593  1.2273 -0.7596
 1232THY      O30776   4.924   3.338   0.223 -0.1312  0.7186  0.6218
 1232THY     HO30777   4.987   3.282   0.271  1.0443 -0.4966 -2.1243
 1232THY    CA130778   4.878   3.429   0.314  0.3372  0.5937  0.3942
 1232THY    CA230779   4.770   3.513   0.278 -0.1220 -0.0306  0.0889
 1232THY    CP130780   4.695   3.511   0.147 -0.3310 -0.0204  0.3402
 1232THY    HP130781   4.725   3.419   0.095 -0.8369 -0.5021  0.8903
 1232THY    CP230782   4.538   3.503   0.148  0.5240 -0.3127  0.1705
 1232THY    HP230783   4.516   3.419   0.216  2.0384 -1.2236 -0.4012
 1232THY    HP330784   4.505   3.600   0.186  1.0435 -0.7837  1.9314
 1232THY    HP430785   4.498   3.473   0.051  1.0730 -1.0419  0.1534
 1232THY    CP330786   4.740   3.631   0.058  0.0152 -0.0232 -0.9267
 1232THY    HP530787   4.848   3.645   0.061 -0.1540  1.3870  1.7127
 1232THY    HP630788   4.710   3.611  -0.045  0.7535 -1.3148 -0.9143
 1232THY    HP730789   4.696   3.727   0.089  1.6065  0.1855  0.8618
 1232THY    CA330790   4.726   3.610   0.376 -0.5297  0.0819  0.1940
 1232THY    HA330791   4.651   3.684   0.349 -1.3043 -0.7146  0.1148
 1232THY    CA430792   4.801   3.618   0.490  0.1357  0.3643  0.4046
 1232THY    HA430793   4.765   3.699   0.554  0.6463  0.2880  0.7890
 1232THY    CA530794   4.900   3.529   0.534 -0.1581 -0.4792 -0.0282
 1232THY    CM130795   4.959   3.535   0.676  0.2731  0.4151  0.0526
 1232THY    HM130796   4.935   3.444   0.732  0.3720  0.7100  0.5759
 1232THY    HM230797   5.065   3.562   0.668  0.7008 -0.5392  2.0026
 1232THY    HM330798   4.910   3.621   0.724  0.3018  1.1352 -1.1526
 1232THY    CA630799   4.944   3.432   0.438  0.8004 -0.7559  0.1840
 1232THY    HA630800   5.021   3.362   0.469  1.5864  0.6155  1.4823
 1233THY      O30801   8.832   0.055   5.990 -0.4786  0.6322  0.2591
 1233THY     HO30802   8.814   0.146   5.960  0.3314  1.2136  1.4577
 1233THY    CA130803   8.826  -0.028   5.888 -0.0764 -0.1089 -0.1207
 1233THY    CA230804   8.829  -0.168   5.896 -0.1628 -0.3538 -0.2297
 1233THY    CP130805   8.822  -0.240   6.027  0.3751 -0.2331 -0.1218
 1233THY    HP130806   8.848  -0.156   6.093 -1.6664  1.8429 -1.8078
 1233THY    CP230807   8.688  -0.306   6.066 -0.6662  0.2796  0.3099
 1233THY    HP230808   8.676  -0.394   6.002  0.5501 -0.1861  0.7012
 1233THY    HP330809   8.696  -0.343   6.168 -1.8328 -0.9475 -0.0197
 1233THY    HP430810   8.612  -0.228   6.051  2.1162  3.3831  1.1656
 1233THY    CP330811   8.939  -0.340   6.054  0.1604  0.1332  0.0840
 1233THY    HP530812   8.954  -0.373   6.157  1.2816  1.5088  0.3834
 1233THY    HP630813   8.917  -0.428   5.991 -1.8284  0.7844 -0.2019
 1233THY    HP730814   9.035  -0.298   6.020 -0.8061  1.7281 -0.7885
 1233THY    CA330815   8.830  -0.247   5.777  0.3074  0.0208  0.2172
 1233THY    HA330816   8.842  -0.355   5.770  0.2171  0.0810 -1.1832
 1233THY    CA430817   8.824  -0.179   5.651 -0.1462  0.2167  0.1918
 1233THY    HA430818   8.827  -0.237   5.559  1.5050  0.9005 -0.2374
 1233THY    CA530819   8.834  -0.042   5.641 -0.5695 -0.1903 -0.0036
 1233THY    CM130820   8.829   0.027   5.508 -1.2722 -0.0082  0.2724
 1233THY    HM130821   8.737   0.082   5.486 -0.7132  0.6143 -0.5649
 1233THY    HM230822   8.912   0.099   5.495  0.2908 -1.6485  0.7585
 1233THY    HM330823   8.852  -0.039   5.424  0.7725 -0.0928  0.8492
 1233THY    CA630824   8.835   0.036   5.762  0.4704 -0.5194  0.6019
 1233THY    HA630825   8.836   0.144   5.748  0.5481 -0.3466  1.8180
 1234THY      O30826   8.848   4.295   7.303 -0.3940  0.1209 -0.5372
 1234THY     HO30827   8.844   4.312   7.207 -0.9486  0.3914 -0.4692
 1234THY    CA130828   8.730   4.227   7.331 -0.1694 -0.0101 -0.6886
 1234THY    CA230829   8.705   4.200   7.469 -0.8726  0.7834 -0.6902
 1234THY    CP130830   8.792   4.255   7.592  1.1084 -0.4187 -0.0801
 1234THY    HP130831   8.879   4.308   7.550 -1.0090  1.9311 -1.7512
 1234THY    CP230832   8.705   4.370   7.664 -0.6304 -0.2770  0.0134
 1234THY    HP230833   8.662   4.438   7.590  2.6949  0.7543 -1.1580
 1234THY    HP330834   8.619   4.330   7.719 -0.8937  0.9644  0.5406
 1234THY    HP430835   8.765   4.422   7.741  0.9870 -1.6469 -0.2480
 1234THY    CP330836   8.822   4.140   7.696 -0.1981  0.3774  0.1967
 1234THY    HP530837   8.844   4.176   7.797  0.3024  3.3161 -0.8639
 1234THY    HP630838   8.730   4.085   7.721 -1.0352  1.1236 -1.1463
 1234THY    HP730839   8.910   4.082   7.663 -0.4663  1.1659 -2.0588
 1234THY    CA330840   8.580   4.136   7.499  0.5533 -0.0962 -0.0687
 1234THY    HA330841   8.548   4.122   7.601 -2.2327  2.6295 -0.4218
 1234THY    CA430842   8.498   4.109   7.389 -0.1030  0.0623  0.6160
 1234THY    HA430843   8.396   4.075   7.407  0.1246  0.4879  3.0802
 1234THY    CA530844   8.530   4.131   7.259  0.5619 -0.4546  0.8172
 1234THY    CM130845   8.434   4.104   7.143  0.3011  0.1327 -0.7465
 1234THY    HM130846   8.468   4.012   7.093  4.5889  1.8129 -1.4455
 1234THY    HM230847   8.333   4.088   7.181  0.3043  1.5979 -0.0781
 1234THY    HM330848   8.446   4.184   7.069  1.6376  0.3994 -0.2718
 1234THY    CA630849   8.648   4.196   7.224 -0.0509  0.2990  0.2454
 1234THY    HA630850   8.682   4.206   7.121 -1.4689  0.0390 -0.2625
 1235THY      O30851   2.918   9.740   2.194 -0.4495 -0.2404 -0.9148
 1235THY     HO30852   2.944   9.767   2.283  2.7957 -1.4375 -1.3636
 1235THY    CA130853   3.039   9.718   2.141 -0.2658 -0.0653  0.1237
 1235THY    CA230854   3.048   9.679   2.006  0.1148 -0.2086  0.1394
 1235THY    CP130855   2.920   9.682   1.914  0.7073  0.3608  0.0963
 1235THY    HP130856   2.854   9.762   1.950  1.7168 -0.0458  3.0656
 1235THY    CP230857   2.944   9.722   1.770  0.0048 -0.1995 -0.1246
 1235THY    HP230858   3.004   9.645   1.720  1.6064  1.5218 -0.9861
 1235THY    HP330859   2.859   9.759   1.712  0.1657  0.7581  0.2430
 1235THY    HP430860   3.019   9.802   1.777  1.2103 -1.2599 -0.3846
 1235THY    CP330861   2.843   9.550   1.921  0.1287 -0.5098 -0.8147
 1235THY    HP530862   2.781   9.549   2.011 -1.4345  1.4108 -1.7834
 1235THY    HP630863   2.769   9.540   1.841 -0.4774 -2.0266 -0.0911
 1235THY    HP730864   2.914   9.467   1.915  0.5275 -0.2556  0.3041
 1235THY    CA330865   3.179   9.651   1.945 -0.4474  0.5148 -0.9425
 1235THY    HA330866   3.198   9.644   1.838  2.7097 -1.8510 -0.3780
 1235THY    CA430867   3.291   9.642   2.031 -0.0920  0.9526 -0.0446
 1235THY    HA430868   3.389   9.636   1.986  0.1921  2.3344  0.3581
 1235THY    CA530869   3.278   9.680   2.166  0.2321 -0.1004  0.1323
 1235THY    CM130870   3.400   9.693   2.255 -0.4235 -0.6469  0.7754
 1235THY    HM130871   3.434   9.591   2.275  0.0286 -0.7095 -0.2850
 1235THY    HM230872   3.471   9.760   2.207 -1.0911 -0.2409  0.3364
 1235THY    HM330873   3.365   9.750   2.343 -0.1691 -1.8382  1.6786
 1235THY    CA630874   3.150   9.717   2.218 -1.2831  0.8042 -0.7349
 1235THY    HA630875   3.149   9.737   2.325 -2.8317 -2.4892  0.0006
 1236THY      O30876   2.311   3.103   1.266  0.0937 -0.6150 -0.0236
 1236THY     HO30877   2.300   3.068   1.356  1.1755 -1.0290 -0.0270
 1236THY    CA130878   2.439   3.134   1.242 -0.4923 -0.2623  0.8637
 1236THY    CA230879   2.483   3.169   1.120  0.5247 -0.1167 -0.1368
 1236THY    CP130880   2.376   3.178   1.014  0.1047 -0.1155  0.1369
 1236THY    HP130881   2.306   3.096   1.027 -0.5937  0.3650 -0.5593
 1236THY    CP230882   2.302   3.308   1.031  0.5807  0.5439  0.2204
 1236THY    HP230883   2.224   3.324   0.956 -0.6510 -2.4117  0.7174
 1236THY    HP330884   2.251   3.300   1.128  4.9420 -1.8670  2.6445
 1236THY    HP430885   2.379   3.386   1.037  1.5873 -0.3062 -1.2263
 1236THY    CP330886   2.420   3.165   0.872 -0.5237 -0.3114  0.1474
 1236THY    HP530887   2.499   3.091   0.856  0.3713  0.8851 -1.1508
 1236THY    HP630888   2.340   3.143   0.799  0.5229  0.3003 -1.2248
 1236THY    HP730889   2.464   3.262   0.849  1.7875 -0.9766  1.4841
 1236THY    CA330890   2.619   3.203   1.101 -0.0555  0.5094 -0.0493
 1236THY    HA330891   2.649   3.235   1.002 -1.9357 -0.1357 -0.8659
 1236THY    CA430892   2.715   3.182   1.201 -1.0449 -0.1331 -0.1546
 1236THY    HA430893   2.821   3.205   1.194 -0.1331 -2.5935  3.0654
 1236THY    CA530894   2.667   3.137   1.326  0.4085 -0.3914 -0.3729
 1236THY    CM130895   2.764   3.109   1.432  0.4991  0.1526  0.5409
 1236THY    HM130896   2.716   3.142   1.524 -0.5192  1.0363 -0.2815
 1236THY    HM230897   2.791   3.003   1.438 -2.4064 -0.6372  0.7056
 1236THY    HM330898   2.856   3.169   1.422  0.9578 -0.5413  0.5208
 1236THY    CA630899   2.532   3.115   1.348 -0.1353 -0.0999  0.2784
 1236THY    HA630900   2.500   3.079   1.446 -1.4038  1.6336  0.5448
 1237THY      O30901   9.527   7.851   5.582  0.2550  0.0917 -0.0321
 1237THY     HO30902   9.477   7.870   5.663  0.4535 -0.1900  0.1570
 1237THY    CA130903   9.627   7.945   5.578  0.1625 -0.5172  0.1173
 1237THY    CA230904   9.714   7.946   5.468  0.3254 -0.7041  0.5618
 1237THY    CP130905   9.701   7.849   5.352 -0.2187  0.0543  0.6258
 1237THY    HP130906   9.611   7.786   5.351  1.6717 -2.8404 -0.2107
 1237THY    CP230907   9.715   7.902   5.207  0.5974 -0.0744  0.2129
 1237THY    HP230908   9.820   7.918   5.180  0.2543  1.4333 -0.3092
 1237THY    HP330909   9.675   7.828   5.136 -0.6132 -1.2889  2.0709
 1237THY    HP430910   9.653   7.992   5.207 -3.3691 -2.5756  0.1343
 1237THY    CP330911   9.807   7.736   5.355 -0.0914 -0.7379 -0.0769
 1237THY    HP530912   9.799   7.678   5.448 -0.1652 -1.0451 -0.2763
 1237THY    HP630913   9.785   7.661   5.278 -1.8531 -2.6467  2.1442
 1237THY    HP730914   9.909   7.777   5.349 -0.9284  1.3607 -4.8516
 1237THY    CA330915   9.816   8.045   5.465 -0.3012 -0.2850 -0.4427
 1237THY    HA330916   9.890   8.041   5.385  0.6015  0.5849  0.3106
 1237THY    CA430917   9.826   8.141   5.562 -0.5387  0.4552 -0.2105
 1237THY    HA430918   9.910   8.209   5.572  0.1264 -0.4262  0.3938
 1237THY    CA530919   9.736   8.135   5.674  0.2332  0.1541  0.8929
 1237THY    CM130920   9.742   8.225   5.799  0.6340 -0.7368  0.2937
 1237THY    HM130921   9.734   8.158   5.886 -0.9421 -1.2492 -0.2008
 1237THY    HM230922   9.839   8.276   5.802  0.9992 -1.3987 -0.0026
 1237THY    HM330923   9.659   8.297   5.800 -0.2157 -1.5762 -2.0934
 1237THY    CA630924   9.634   8.043   5.675  0.4860  0.0753 -0.5164
 1237THY    HA630925   9.556   8.039   5.750  1.0463 -0.6427  0.0436
 1238THY      O30926   9.392   0.882   6.687 -0.1091  0.6607 -0.4194
 1238THY     HO30927   9.405   0.869   6.783 -1.0852  0.7857 -0.2566
 1238THY    CA130928   9.434   0.756   6.637  0.1885  0.9157 -0.3412
 1238THY    CA230929   9.466   0.738   6.504  0.1703 -0.6880  0.0244
 1238THY    CP130930   9.471   0.852   6.402  0.1091 -0.3402  0.2318
 1238THY    HP130931   9.489   0.940   6.464  1.2964 -0.5760  0.2601
 1238THY    CP230932   9.584   0.852   6.292 -0.0193 -0.1371  0.9058
 1238THY    HP230933   9.581   0.939   6.226  1.9428 -0.1623  0.7241
 1238THY    HP330934   9.689   0.855   6.324  0.2315 -1.2929  0.2550
 1238THY    HP430935   9.576   0.759   6.235 -1.9618  0.7460 -0.3586
 1238THY    CP330936   9.333   0.854   6.326 -1.2254  0.5905  0.3704
 1238THY    HP530937   9.263   0.879   6.406 -2.4764 -0.1613 -0.4589
 1238THY    HP630938   9.330   0.934   6.251 -0.0582  0.5908  0.2973
 1238THY    HP730939   9.310   0.755   6.286 -3.9367  0.4882  1.9308
 1238THY    CA330940   9.496   0.605   6.456 -0.0978 -0.3274 -0.2151
 1238THY    HA330941   9.524   0.584   6.354  1.1529 -3.5566  0.6664
 1238THY    CA430942   9.500   0.497   6.536  0.6413  0.3647  0.2510
 1238THY    HA430943   9.530   0.403   6.491 -0.0774  0.7219 -0.9999
 1238THY    CA530944   9.463   0.514   6.667  1.2420  0.0110 -0.2118
 1238THY    CM130945   9.453   0.399   6.757 -0.4165  0.0114  0.1508
 1238THY    HM130946   9.353   0.393   6.802  0.2862 -0.0140  1.7598
 1238THY    HM230947   9.463   0.305   6.701  0.7845  0.2546 -0.0587
 1238THY    HM330948   9.529   0.419   6.833  0.9472 -0.2666 -1.0914
 1238THY    CA630949   9.426   0.643   6.721 -0.1216 -0.3389  0.1445
 1238THY    HA630950   9.388   0.650   6.822 -0.6433 -1.0151  0.0032
 1239THY      O30951   2.088   5.198   0.861 -1.0718 -0.6520  0.1357
 1239THY     HO30952   2.133   5.235   0.783  0.4292  1.0228  1.6942
 1239THY    CA130953   2.108   5.293   0.945  0.5269  0.1686  0.3865
 1239THY    CA230954   2.187   5.287   1.064  0.0299  0.3716 -0.7211
 1239THY    CP130955   2.217   5.153   1.131  0.4721 -0.4136 -0.1612
 1239THY    HP130956   2.179   5.069   1.072 -0.4085  0.5969 -1.0700
 1239THY    CP230957   2.359   5.123   1.144  0.0555 -0.3369  0.2066
 1239THY    HP230958   2.369   5.022   1.186  0.3898  0.4576  2.1911
 1239THY    HP330959   2.410   5.110   1.048 -0.4675 -0.1487 -0.0973
 1239THY    HP430960   2.408   5.196   1.210  1.1722  0.6035 -1.5837
 1239THY    CP330961   2.144   5.145   1.266  0.2620  0.0119  0.1099
 1239THY    HP530962   2.151   5.043   1.306 -2.4656 -0.2131  0.2204
 1239THY    HP630963   2.184   5.218   1.337  0.3309 -0.2865  0.3794
 1239THY    HP730964   2.037   5.163   1.250 -0.0797 -1.7446  0.2373
 1239THY    CA330965   2.207   5.409   1.125 -0.1702 -0.4625 -0.8060
 1239THY    HA330966   2.266   5.412   1.216 -0.4567 -0.0940 -0.6257
 1239THY    CA430967   2.167   5.529   1.074 -0.2962 -0.1259 -0.2530
 1239THY    HA430968   2.191   5.622   1.124  0.7691 -0.4873 -0.0834
 1239THY    CA530969   2.083   5.525   0.961 -0.7882  0.5901  0.5781
 1239THY    CM130970   2.031   5.653   0.908 -0.5841  0.0838  0.4097
 1239THY    HM130971   1.942   5.694   0.958 -0.2849  0.1230  0.9249
 1239THY    HM230972   2.108   5.730   0.920 -0.7096  0.3587 -0.4926
 1239THY    HM330973   1.989   5.650   0.807 -0.9992  0.9258  0.5463
 1239THY    CA630974   2.061   5.410   0.895  0.2307 -0.0521 -0.0192
 1239THY    HA630975   1.991   5.407   0.812  0.7018 -2.3547 -0.3978
 1240THY      O30976   7.059   7.829   6.117  0.3116  0.3995  0.2734
 1240THY     HO30977   7.132   7.880   6.156  0.4969  3.0923 -3.1185
 1240THY    CA130978   6.974   7.927   6.098 -0.0928 -0.0158 -0.5358
 1240THY    CA230979   6.846   7.917   6.031  0.2805  0.3708 -0.3834
 1240THY    CP130980   6.795   7.785   5.979  0.0280 -0.1719  0.4043
 1240THY    HP130981   6.833   7.706   6.045  3.4870  0.0766 -1.0872
 1240THY    CP230982   6.639   7.766   5.981  0.6727 -0.2984 -0.8877
 1240THY    HP230983   6.594   7.797   5.886 -0.1451  0.1926 -0.3518
 1240THY    HP330984   6.618   7.659   5.989 -1.9522  0.1662 -0.4887
 1240THY    HP430985   6.586   7.804   6.069 -1.3137 -2.0000 -1.2884
 1240THY    CP330986   6.855   7.740   5.839 -0.1193 -0.6206 -0.6817
 1240THY    HP530987   6.943   7.677   5.854  0.0403 -0.4538 -0.9179
 1240THY    HP630988   6.792   7.670   5.783 -0.6562  0.4797 -1.4929
 1240THY    HP730989   6.887   7.824   5.776 -0.9369 -0.0602 -0.3628
 1240THY    CA330990   6.782   8.037   5.991  0.2656  0.4890 -0.0575
 1240THY    HA330991   6.701   8.028   5.920  0.8207  0.4116 -0.6990
 1240THY    CA430992   6.836   8.161   6.033  0.0364  0.7820 -0.2534
 1240THY    HA430993   6.783   8.252   6.005  0.6863  1.4006  0.4892
 1240THY    CA530994   6.954   8.167   6.106  0.0261 -0.4748  0.2906
 1240THY    CM130995   6.988   8.296   6.172 -0.3105 -0.5624  0.8001
 1240THY    HM130996   6.906   8.313   6.243 -1.7634 -0.1960 -0.9153
 1240THY    HM230997   7.089   8.300   6.215  1.1992 -0.1944 -2.5182
 1240THY    HM330998   6.976   8.382   6.105 -1.0294  0.4000  2.1298
 1240THY    CA630999   7.022   8.048   6.138 -0.0854 -0.2241  0.3827
 1240THY    HA631000   7.119   8.058   6.186 -0.2800 -1.7211  1.1217
 1241THY      O31001   7.717   3.307   3.557  0.4111  0.4967 -0.7509
 1241THY     HO31002   7.719   3.210   3.551 -1.7374  0.2823  0.7338
 1241THY    CA131003   7.729   3.340   3.425 -0.1274 -0.4360  0.3002
 1241THY    CA231004   7.804   3.455   3.382 -0.1794 -0.2428 -0.0424
 1241THY    CP131005   7.857   3.563   3.482  0.0170  0.5120 -0.0304
 1241THY    HP131006   7.884   3.511   3.574  1.8921  1.6019  0.0764
 1241THY    CP231007   7.987   3.625   3.432  0.1996 -0.4249 -0.2755
 1241THY    HP231008   8.029   3.705   3.494  0.0981 -0.5482 -0.0484
 1241THY    HP331009   8.072   3.556   3.421  0.9717  0.5799 -0.7935
 1241THY    HP431010   7.953   3.681   3.344 -0.1924 -1.2794 -0.6778
 1241THY    CP331011   7.746   3.666   3.506 -0.2093 -0.0717 -0.3944
 1241THY    HP531012   7.689   3.703   3.420  0.2627  2.0245  0.1395
 1241THY    HP631013   7.664   3.621   3.564  1.2958 -0.4351  1.5848
 1241THY    HP731014   7.795   3.742   3.568 -1.0456  0.0802  0.1029
 1241THY    CA331015   7.817   3.478   3.245 -0.5473 -0.3512  0.7085
 1241THY    HA331016   7.875   3.559   3.203  1.4527 -1.1939  1.7158
 1241THY    CA431017   7.755   3.396   3.153  0.6009  0.2342  0.1240
 1241THY    HA431018   7.770   3.405   3.046 -1.6352  0.1575 -0.2391
 1241THY    CA531019   7.682   3.289   3.197  0.8567 -0.0119 -0.0672
 1241THY    CM131020   7.623   3.201   3.093 -0.1318  0.2262 -0.1850
 1241THY    HM131021   7.527   3.235   3.053 -2.1869 -2.3553  2.1782
 1241THY    HM231022   7.689   3.181   3.007 -2.0309  0.1431 -1.6775
 1241THY    HM331023   7.590   3.108   3.141 -0.5172  0.9514  1.0039
 1241THY    CA631024   7.670   3.258   3.331 -0.1183 -0.8581  0.2593
 1241THY    HA631025   7.608   3.171   3.348 -0.1604 -1.1086 -1.0839
 1242THY      O31026   2.454   1.618   9.545 -0.4374  0.1157  0.4020
 1242THY     HO31027   2.404   1.610   9.463 -1.7213  1.7312  0.9692
 1242THY    CA131028   2.475   1.751   9.552 -0.7607  0.0574 -0.0567
 1242THY    CA231029   2.482   1.822   9.675 -0.5023 -0.0948  0.3923
 1242THY    CP131030   2.487   1.733   9.801 -0.1237  0.0705  0.1615
 1242THY    HP131031   2.500   1.626   9.780 -1.5064  0.0706 -0.7914
 1242THY    CP231032   2.594   1.778   9.914  0.1979  0.4799 -0.2249
 1242THY    HP231033   2.554   1.855   9.982  4.2733  2.5145  0.1417
 1242THY    HP331034   2.622   1.689   9.970 -0.7755  0.0386 -0.4158
 1242THY    HP431035   2.679   1.823   9.862 -0.1912  1.5053 -0.0115
 1242THY    CP331036   2.350   1.724   9.870  0.3397  0.5638 -0.3059
 1242THY    HP531037   2.350   1.644   9.944 -0.5153  1.9762  1.3107
 1242THY    HP631038   2.336   1.808   9.940 -0.9389  0.5048 -0.4719
 1242THY    HP731039   2.271   1.728   9.794 -0.6737  1.5585  0.7558
 1242THY    CA331040   2.477   1.961   9.673 -0.2730 -0.0111  0.1178
 1242THY    HA331041   2.486   2.009   9.770  1.5750  0.2224 -0.1301
 1242THY    CA431042   2.502   2.034   9.556  1.0771 -0.2884 -0.0315
 1242THY    HA431043   2.510   2.141   9.546 -0.0159 -0.1487  0.4040
 1242THY    CA531044   2.488   1.959   9.430 -0.9190 -0.6344 -0.7737
 1242THY    CM131045   2.506   2.033   9.304 -0.1731 -0.5801 -0.2318
 1242THY    HM131046   2.611   2.025   9.272 -0.2409 -0.0545 -0.5897
 1242THY    HM231047   2.448   1.988   9.222 -0.3591  1.1250 -1.0692
 1242THY    HM331048   2.481   2.139   9.306  2.5514  0.1416  2.3049
 1242THY    CA631049   2.475   1.817   9.431  0.3843  0.0972 -0.2593
 1242THY    HA631050   2.482   1.756   9.341  0.2226 -2.3333  1.2957
 1243THY      O31051   7.891   8.305   3.496  0.3138 -0.1761  0.1548
 1243THY     HO31052   7.958   8.311   3.425 -0.9810  1.7183 -0.9991
 1243THY    CA131053   7.774   8.304   3.428  0.1320  0.0528  0.2742
 1243THY    CA231054   7.661   8.370   3.474 -0.3385 -0.2020  0.2554
 1243THY    CP131055   7.658   8.427   3.612  0.2413  0.2828 -0.7066
 1243THY    HP131056   7.756   8.410   3.659 -0.3623 -0.0291  0.4540
 1243THY    CP231057   7.642   8.579   3.611  0.2617  0.3341 -0.0080
 1243THY    HP231058   7.550   8.603   3.557 -1.5541 -1.1166  2.2816
 1243THY    HP331059   7.633   8.619   3.713 -0.3798 -1.3150  0.6088
 1243THY    HP431060   7.726   8.621   3.554 -0.3655 -0.7052 -1.7677
 1243THY    CP331061   7.552   8.367   3.705  0.5198  0.2972 -0.6156
 1243THY    HP531062   7.546   8.416   3.802  1.2102  1.2254 -1.0207
 1243THY    HP631063   7.455   8.363   3.655  0.3304 -0.8905 -0.1946
 1243THY    HP731064   7.592   8.266   3.721  1.2014  0.6299 -0.2095
 1243THY    CA331065   7.550   8.385   3.389 -0.2201  0.3474  0.4990
 1243THY    HA331066   7.460   8.430   3.430 -0.6447 -1.5398  1.7690
 1243THY    CA431067   7.552   8.335   3.256 -0.1415  0.2462  0.0552
 1243THY    HA431068   7.471   8.354   3.185 -1.5974  0.8166  1.7929
 1243THY    CA531069   7.666   8.271   3.215  0.1864 -0.4956  0.7071
 1243THY    CM131070   7.688   8.231   3.071  0.3364  0.7174 -0.0578
 1243THY    HM131071   7.702   8.122   3.073 -0.9146  0.5328 -0.0011
 1243THY    HM231072   7.598   8.253   3.012 -2.1861 -0.6564  2.9394
 1243THY    HM331073   7.776   8.277   3.026  1.9244 -0.3030  1.8583
 1243THY    CA631074   7.777   8.256   3.296 -0.9001 -0.1015  0.2413
 1243THY    HA631075   7.873   8.216   3.264 -0.3700  0.4845  1.0507
 1244THY      O31076   6.630   2.073   9.881 -0.0722 -0.0608  0.0996
 1244THY     HO31077   6.598   2.072   9.973  0.8295  0.1706  0.4304
 1244THY    CA131078   6.523   2.099   9.809  0.0064 -0.1095  0.0432
 1244THY    CA231079   6.543   2.114   9.672  0.1757  0.4304  0.0428
 1244THY    CP131080   6.676   2.097   9.609  0.4359  0.2552  0.1307
 1244THY    HP131081   6.759   2.126   9.674  1.8291  2.4822 -2.4651
 1244THY    CP231082   6.698   1.949   9.573  0.4050 -0.3442 -0.6845
 1244THY    HP231083   6.613   1.903   9.521 -0.2832 -0.7183  0.7104
 1244THY    HP331084   6.794   1.924   9.526  0.7976 -0.9970  0.4378
 1244THY    HP431085   6.707   1.895   9.668  0.1724 -0.2961 -0.6348
 1244THY    CP331086   6.699   2.166   9.470  0.1072  0.1675  0.0403
 1244THY    HP531087   6.808   2.173   9.461  0.0915 -0.0665 -0.3502
 1244THY    HP631088   6.667   2.113   9.380  0.2017 -1.8898  1.1807
 1244THY    HP731089   6.655   2.267   9.466  1.5236  0.8669  1.1218
 1244THY    CA331090   6.423   2.141   9.599 -0.3187 -0.1277  0.7047
 1244THY    HA331091   6.425   2.158   9.492  0.8299  3.2794  1.1264
 1244THY    CA431092   6.297   2.158   9.660 -0.1770 -0.6867 -0.2873
 1244THY    HA431093   6.212   2.187   9.599  0.6661 -0.2734 -1.2843
 1244THY    CA531094   6.286   2.146   9.803  0.3433  0.4597  0.3940
 1244THY    CM131095   6.147   2.165   9.862 -1.0658 -0.1631 -0.3337
 1244THY    HM131096   6.075   2.164   9.780  0.1012  1.3321 -1.4387
 1244THY    HM231097   6.116   2.087   9.933 -1.9819 -3.0486 -3.6685
 1244THY    HM331098   6.135   2.264   9.909 -0.1416 -0.8515  1.4719
 1244THY    CA631099   6.403   2.116   9.877  0.2965  0.1183  0.4991
 1244THY    HA631100   6.390   2.104   9.984  0.1171  2.4820  0.7916
 1245THY      O31101   1.866   2.776   5.815 -0.1370 -0.2816  0.3629
 1245THY     HO31102   1.785   2.732   5.846 -0.4407 -1.0150 -1.3285
 1245THY    CA131103   1.866   2.903   5.868  0.7686 -0.1483  0.2555
 1245THY    CA231104   1.979   2.984   5.881  0.2099 -0.0061  0.1246
 1245THY    CP131105   2.111   2.940   5.810 -0.4799  0.0247 -0.1396
 1245THY    HP131106   2.070   2.889   5.722 -1.1082 -2.1065  1.3128
 1245THY    CP231107   2.205   3.051   5.766  0.4467 -0.3598 -0.2185
 1245THY    HP231108   2.294   3.011   5.716  1.7933 -0.7988  2.3663
 1245THY    HP331109   2.149   3.123   5.705  2.2202  1.8401  0.6034
 1245THY    HP431110   2.240   3.114   5.848 -0.3400 -2.2349  1.6542
 1245THY    CP331111   2.195   2.845   5.892  0.5968 -0.0998 -0.4719
 1245THY    HP531112   2.279   2.815   5.828 -1.1257 -4.3127 -1.1201
 1245THY    HP631113   2.224   2.901   5.981  2.1865  0.5781 -1.3646
 1245THY    HP731114   2.144   2.753   5.922 -1.2625  1.3695  1.0904
 1245THY    CA331115   1.978   3.110   5.939  0.4809 -0.0330 -1.0945
 1245THY    HA331116   2.064   3.174   5.958  0.2191 -0.7895  4.5385
 1245THY    CA431117   1.860   3.156   6.002 -0.1130  0.5828 -0.8243
 1245THY    HA431118   1.851   3.251   6.053 -1.3975  0.8596 -1.5231
 1245THY    CA531119   1.747   3.067   5.997  0.6574  0.7672 -0.2043
 1245THY    CM131120   1.618   3.116   6.057 -0.5892  0.4330  0.0209
 1245THY    HM131121   1.615   3.226   6.062  1.8301  0.5064  1.8191
 1245THY    HM231122   1.529   3.078   6.005 -0.6397 -0.5845  0.8276
 1245THY    HM331123   1.620   3.084   6.162 -3.5765 -0.8615 -0.2198
 1245THY    CA631124   1.750   2.946   5.928  0.3240 -0.1855  0.5822
 1245THY    HA631125   1.659   2.890   5.907  0.8722 -0.6022 -0.7855
 1246THY      O31126   1.583   6.728   1.819  0.2098 -0.5464  0.0552
 1246THY     HO31127   1.668   6.775   1.817 -0.1219  0.0590  0.0308
 1246THY    CA131128   1.543   6.760   1.943 -0.1847  0.5552 -0.4893
 1246THY    CA231129   1.443   6.706   2.014  0.2307  0.3829  0.1948
 1246THY    CP131130   1.374   6.575   1.959 -0.0775  0.5061 -0.4689
 1246THY    HP131131   1.392   6.583   1.851 -1.0797  0.8478 -0.6244
 1246THY    CP231132   1.431   6.449   2.034 -0.1277  0.1129  0.0972
 1246THY    HP231133   1.540   6.445   2.029 -0.1611  0.5613 -1.2237
 1246THY    HP331134   1.402   6.423   2.137  1.3883 -2.1882 -0.0069
 1246THY    HP431135   1.393   6.367   1.972 -0.3980  0.7732 -0.6280
 1246THY    CP331136   1.219   6.571   1.975 -0.8672 -0.3039 -0.2539
 1246THY    HP531137   1.177   6.472   1.951 -2.0651 -0.9780  3.8431
 1246THY    HP631138   1.184   6.589   2.077 -1.4310 -0.2523 -0.4481
 1246THY    HP731139   1.185   6.643   1.899 -1.6898 -0.5177 -0.0972
 1246THY    CA331140   1.409   6.748   2.137  0.1928  0.2052 -0.6367
 1246THY    HA331141   1.325   6.705   2.192 -2.2938  1.1476 -3.3922
 1246THY    CA431142   1.480   6.852   2.197 -0.0634  0.0733 -0.3779
 1246THY    HA431143   1.464   6.881   2.300 -0.0606 -1.3710  0.0530
 1246THY    CA531144   1.581   6.916   2.126  0.6121 -0.4617  0.7218
 1246THY    CM131145   1.641   7.037   2.171  0.1458 -0.4672  0.0446
 1246THY    HM131146   1.740   7.056   2.129  1.5420 -1.4360  2.6119
 1246THY    HM231147   1.587   7.130   2.152  1.1858  0.4257  1.2724
 1246THY    HM331148   1.662   7.033   2.279  0.0115 -2.9970  0.0431
 1246THY    CA631149   1.606   6.867   1.999 -0.4036  0.0482  0.6735
 1246THY    HA631150   1.678   6.928   1.946  0.1930 -0.4757  0.8756
 1247THY      O31151   4.862   9.401   0.225 -0.0406 -0.5416  0.3460
 1247THY     HO31152   4.862   9.304   0.219  1.7500 -0.5228 -0.4755
 1247THY    CA131153   4.987   9.440   0.213  0.3496  0.3271  0.3660
 1247THY    CA231154   5.032   9.562   0.265  0.1766  0.3278  0.4270
 1247THY    CP131155   4.941   9.659   0.342  0.6943 -1.1611 -0.5340
 1247THY    HP131156   4.837   9.636   0.318  0.9508 -3.5669  0.4186
 1247THY    CP231157   4.954   9.643   0.496 -0.1695 -0.4324 -0.2001
 1247THY    HP231158   4.947   9.540   0.533  1.4613 -0.4681  0.0678
 1247THY    HP331159   5.059   9.664   0.517  0.3362 -2.1940 -0.8388
 1247THY    HP431160   4.887   9.710   0.551 -1.2341 -1.1736 -0.5638
 1247THY    CP331161   4.959   9.805   0.299  0.3809  0.2223 -0.0306
 1247THY    HP531162   4.973   9.797   0.191 -2.6018 -0.3152 -0.4537
 1247THY    HP631163   4.867   9.858   0.326  0.3073  0.4299 -0.6651
 1247THY    HP731164   5.046   9.865   0.327  1.8940 -1.5162 -0.8095
 1247THY    CA331165   5.166   9.594   0.239  0.4725  0.0327 -0.4165
 1247THY    HA331166   5.197   9.696   0.262 -0.6481  0.4131 -0.5276
 1247THY    CA431167   5.250   9.506   0.167  0.1979  0.2235 -0.4627
 1247THY    HA431168   5.354   9.535   0.153 -0.4068  1.5387 -2.7657
 1247THY    CA531169   5.205   9.381   0.126  0.8868 -0.0518  0.2301
 1247THY    CM131170   5.306   9.276   0.081  0.5259  0.0285 -0.1283
 1247THY    HM131171   5.382   9.303   0.007  0.0573 -1.0539 -1.0296
 1247THY    HM231172   5.354   9.233   0.169 -0.9614  1.8142  1.6652
 1247THY    HM331173   5.252   9.190   0.039 -0.6700  0.5696  0.2400
 1247THY    CA631174   5.074   9.346   0.150 -0.5009 -0.2052 -0.2446
 1247THY    HA631175   5.030   9.256   0.108 -3.6794  0.8278  0.5832
 1248THY      O31176   4.957   6.761   1.333  0.2171  0.3826 -0.1830
 1248THY     HO31177   4.940   6.666   1.344 -3.3296  0.7284 -1.5637
 1248THY    CA131178   5.096   6.769   1.347 -0.2055  0.1412  0.0048
 1248THY    CA231179   5.172   6.869   1.307  0.0185  0.1679  0.2569
 1248THY    CP131180   5.110   6.981   1.217  0.2414 -0.3695 -0.3990
 1248THY    HP131181   5.008   6.950   1.190  0.1160 -0.3356  0.0325
 1248THY    CP231182   5.102   7.108   1.293  0.1262 -0.0610  0.2463
 1248THY    HP231183   5.201   7.142   1.328  0.3840  0.4687 -0.9263
 1248THY    HP331184   5.066   7.196   1.238  0.1553 -0.6225 -0.7041
 1248THY    HP431185   5.029   7.101   1.374  0.3331 -2.8142  0.2976
 1248THY    CP331186   5.177   6.984   1.083 -0.6121 -0.3796  0.0398
 1248THY    HP531187   5.148   6.901   1.018  0.5869 -1.0606  0.3262
 1248THY    HP631188   5.150   7.073   1.025  1.7208  0.6405  0.3796
 1248THY    HP731189   5.287   6.983   1.091 -0.3991  2.1232 -1.5480
 1248THY    CA331190   5.301   6.887   1.357 -0.3650  0.3347 -0.2703
 1248THY    HA331191   5.354   6.977   1.329 -0.2586  0.0387 -1.0460
 1248THY    CA431192   5.362   6.781   1.422 -0.4386 -0.0764 -0.6715
 1248THY    HA431193   5.468   6.791   1.442 -0.1018 -1.5935 -1.5477
 1248THY    CA531194   5.289   6.669   1.454  0.3111 -0.1629  0.6817
 1248THY    CM131195   5.354   6.550   1.520  0.4035  0.3332  0.3366
 1248THY    HM131196   5.463   6.547   1.528  0.4235  1.9186  1.0251
 1248THY    HM231197   5.312   6.532   1.620  0.3909 -0.6255  0.1647
 1248THY    HM331198   5.331   6.457   1.466 -0.6595  1.1286 -0.6262
 1248THY    CA631199   5.156   6.661   1.415 -0.0383 -0.6262 -0.3494
 1248THY    HA631200   5.097   6.577   1.452  2.6186 -2.7467 -0.5469
 1249THY      O31201   8.000   8.432   8.949 -0.1273 -0.3027 -0.6589
 1249THY     HO31202   7.922   8.387   8.987  0.2746  0.6815  1.4928
 1249THY    CA131203   8.059   8.496   9.056 -0.3641 -0.0141  0.8444
 1249THY    CA231204   8.170   8.580   9.039 -0.7929  0.6388 -0.2767
 1249THY    CP131205   8.240   8.596   8.903  0.4149 -0.1117  0.0278
 1249THY    HP131206   8.196   8.521   8.837  0.4129  1.3907 -1.7746
 1249THY    CP231207   8.200   8.736   8.845  0.1618  0.6943 -0.1960
 1249THY    HP231208   8.240   8.750   8.744  2.8981 -0.5806  0.6149
 1249THY    HP331209   8.091   8.748   8.838  0.3860  2.1441 -1.6738
 1249THY    HP431210   8.246   8.813   8.908  3.8982 -2.3420  1.1939
 1249THY    CP331211   8.393   8.583   8.904 -0.1927 -0.4583 -0.3434
 1249THY    HP531212   8.429   8.497   8.962 -0.7528 -0.0171  0.6803
 1249THY    HP631213   8.432   8.586   8.802 -0.9254  0.7963 -0.6042
 1249THY    HP731214   8.434   8.675   8.947 -1.9897  0.0107  0.4834
 1249THY    CA331215   8.227   8.642   9.158 -0.1558 -0.6090  0.1325
 1249THY    HA331216   8.316   8.704   9.159  0.2649 -1.1984  1.1961
 1249THY    CA431217   8.169   8.611   9.281  0.3211 -0.4775  0.1419
 1249THY    HA431218   8.217   8.655   9.368 -1.7026  1.5088  0.3509
 1249THY    CA531219   8.054   8.541   9.289  0.8414  0.0960 -0.2000
 1249THY    CM131220   7.977   8.529   9.417 -0.1153  0.0877 -0.2635
 1249THY    HM131221   8.040   8.563   9.500 -0.9951 -0.7554  0.7772
 1249THY    HM231222   7.880   8.582   9.420  0.0414  0.3925  3.0707
 1249THY    HM331223   7.962   8.421   9.427  1.3707 -0.0875  0.2040
 1249THY    CA631224   7.996   8.486   9.179  0.0408  0.6535 -0.3486
 1249THY    HA631225   7.903   8.429   9.181 -0.3754  1.2459 -1.5779
 1250THY      O31226   5.440   9.222   3.188 -0.4997 -0.0844 -0.2166
 1250THY     HO31227   5.425   9.291   3.255  0.2911  0.5303 -0.6505
 1250THY    CA131228   5.442   9.295   3.075 -0.1989  0.1048 -0.6051
 1250THY    CA231229   5.490   9.244   2.953  0.0300 -0.0870 -0.2445
 1250THY    CP131230   5.524   9.091   2.948 -0.6186  0.6776 -0.1220
 1250THY    HP131231   5.537   9.055   3.051  0.4443  0.9330 -0.1639
 1250THY    CP231232   5.409   9.016   2.875 -0.4157  0.5324  0.5952
 1250THY    HP231233   5.310   9.057   2.897 -1.1175  0.1203 -1.5797
 1250THY    HP331234   5.401   9.020   2.766 -1.6875 -0.7251  0.6164
 1250THY    HP431235   5.393   8.909   2.894  1.9359  0.1261  0.5934
 1250THY    CP331236   5.654   9.049   2.878  1.0037  0.3103  0.2293
 1250THY    HP531237   5.666   9.096   2.779 -2.0416  3.6049  1.2144
 1250THY    HP631238   5.737   9.073   2.946  2.9230 -0.1337 -1.8156
 1250THY    HP731239   5.663   8.942   2.856  0.2884  0.5212 -1.2375
 1250THY    CA331240   5.500   9.339   2.846  0.2607 -0.3989 -0.0473
 1250THY    HA331241   5.528   9.302   2.747  0.9692  0.1224 -0.0540
 1250THY    CA431242   5.463   9.475   2.860  0.0395  0.4442  0.1292
 1250THY    HA431243   5.480   9.550   2.784  3.1615  0.4301  0.6960
 1250THY    CA531244   5.426   9.525   2.986 -0.4545 -0.1260 -0.4782
 1250THY    CM131245   5.394   9.667   2.992  0.5662  0.2904  0.7256
 1250THY    HM131246   5.294   9.696   3.028  0.5113  1.2075 -0.1001
 1250THY    HM231247   5.460   9.715   3.065 -0.1571 -0.4290  1.8910
 1250THY    HM331248   5.411   9.726   2.901 -2.7280 -0.5542 -0.6050
 1250THY    CA631249   5.424   9.433   3.096  0.7941 -0.7753 -0.0732
 1250THY    HA631250   5.392   9.473   3.192 -1.3644 -1.0008 -0.6598
 1251THY      O31251   0.540   3.138   5.080  0.5174  0.3615 -0.0517
 1251THY     HO31252   0.505   3.060   5.034 -0.7264  1.4256 -0.9496
 1251THY    CA131253   0.669   3.108   5.104 -0.0724  0.4451  0.7808
 1251THY    CA231254   0.757   3.198   5.178  0.0347 -0.0934 -0.1923
 1251THY    CP131255   0.697   3.320   5.248 -0.7652 -0.3342  0.8699
 1251THY    HP131256   0.601   3.349   5.204  0.5493  1.8019 -0.8103
 1251THY    CP231257   0.670   3.274   5.400 -0.4365 -0.3854  0.8017
 1251THY    HP231258   0.594   3.196   5.410  0.1361 -1.1966 -0.8063
 1251THY    HP331259   0.765   3.234   5.436  0.9615  0.8064 -1.3289
 1251THY    HP431260   0.637   3.353   5.469  0.8969 -0.5597  1.6737
 1251THY    CP331261   0.783   3.447   5.253  0.2706  0.2006 -0.2487
 1251THY    HP531262   0.878   3.439   5.307 -1.0750 -0.8592  2.1444
 1251THY    HP631263   0.795   3.473   5.147 -1.9007 -0.7050 -0.7830
 1251THY    HP731264   0.727   3.526   5.305 -0.3780 -1.3371  1.4830
 1251THY    CA331265   0.897   3.167   5.197  0.0747 -0.0439  0.4560
 1251THY    HA331266   0.962   3.241   5.242 -0.3971  1.4868 -1.2557
 1251THY    CA431267   0.943   3.054   5.127  0.3682  0.4232  0.0734
 1251THY    HA431268   1.046   3.022   5.137  0.6459  0.4588 -2.0729
 1251THY    CA531269   0.858   2.968   5.057 -0.5229 -0.0857 -0.0001
 1251THY    CM131270   0.904   2.834   4.991  0.1115 -0.0303 -0.7226
 1251THY    HM131271   0.995   2.846   4.931  0.2747 -0.6425 -0.6047
 1251THY    HM231272   0.930   2.773   5.079  0.7166  0.4650 -0.5494
 1251THY    HM331273   0.822   2.785   4.938 -2.7918  1.3382  2.1220
 1251THY    CA631274   0.722   3.003   5.038 -0.3802 -0.6842  0.5245
 1251THY    HA631275   0.666   2.958   4.957  0.6130  2.6459 -2.2404
 1252THY      O31276   7.631   0.547   9.035 -0.2829 -0.7180 -0.0706
 1252THY     HO31277   7.670   0.493   9.106 -3.3390 -1.2854  1.3015
 1252THY    CA131278   7.728   0.643   9.003  0.0902  0.7237  0.5147
 1252THY    CA231279   7.702   0.762   8.926  0.8832  0.3898 -0.4672
 1252THY    CP131280   7.568   0.778   8.858  0.0990  0.5843  0.4923
 1252THY    HP131281   7.499   0.707   8.906 -1.6967  2.2182  0.4423
 1252THY    CP231282   7.509   0.922   8.866 -0.2783  0.1989 -0.1973
 1252THY    HP231283   7.555   0.988   8.792  1.3702 -1.5418 -0.8068
 1252THY    HP331284   7.399   0.925   8.862 -0.2528 -0.1109 -1.7581
 1252THY    HP431285   7.526   0.952   8.970 -1.3551  0.6087 -0.1214
 1252THY    CP331286   7.584   0.741   8.707 -0.4715  0.2073  0.1958
 1252THY    HP531287   7.624   0.640   8.696  0.7092  0.6703 -0.0087
 1252THY    HP631288   7.503   0.749   8.634 -0.4585  2.9639  0.3519
 1252THY    HP731289   7.664   0.802   8.663 -1.1740  1.1987  0.2670
 1252THY    CA331290   7.798   0.859   8.907  0.1322 -0.1328 -0.3009
 1252THY    HA331291   7.778   0.942   8.841  0.2666  0.6306  0.6021
 1252THY    CA431292   7.918   0.843   8.975  1.3290  0.1649 -0.0194
 1252THY    HA431293   7.986   0.928   8.974  1.0330  0.4970  1.9962
 1252THY    CA531294   7.955   0.725   9.035 -0.0826 -0.7241 -0.1461
 1252THY    CM131295   8.102   0.714   9.084  0.4178 -0.0031  1.1728
 1252THY    HM131296   8.121   0.790   9.161 -0.5087  2.8039 -1.1700
 1252THY    HM231297   8.106   0.611   9.122  0.4311 -0.7170 -0.6561
 1252THY    HM331298   8.167   0.735   8.998 -1.7073  4.2036  0.2726
 1252THY    CA631299   7.858   0.617   9.045 -0.0907 -0.3131  0.2065
 1252THY    HA631300   7.881   0.526   9.099  0.4360  0.4783  1.3518
 1253THY      O31301   3.695   5.773   2.610 -0.2575 -0.3438 -0.2123
 1253THY     HO31302   3.723   5.716   2.537 -0.9117  1.0587 -1.6063
 1253THY    CA131303   3.719   5.708   2.725  0.5749  0.0998  0.1979
 1253THY    CA231304   3.680   5.766   2.848 -0.1708  0.7222 -0.1587
 1253THY    CP131305   3.612   5.902   2.847  0.6349 -0.7257 -0.4938
 1253THY    HP131306   3.633   5.948   2.750 -2.1371 -0.7477 -1.2011
 1253THY    CP231307   3.462   5.905   2.878 -0.7656 -0.2226  0.4057
 1253THY    HP231308   3.423   6.008   2.868 -0.1340  0.0227  0.4087
 1253THY    HP331309   3.401   5.852   2.804 -1.3257  2.8812 -1.5702
 1253THY    HP431310   3.452   5.866   2.979  1.5542  1.2702  1.3041
 1253THY    CP331311   3.683   5.994   2.952 -0.3108  0.0105  0.0830
 1253THY    HP531312   3.792   5.987   2.936 -0.1645  2.0004 -0.0202
 1253THY    HP631313   3.663   6.101   2.939 -0.4863  0.1519  1.3992
 1253THY    HP731314   3.669   5.973   3.058 -0.2716  0.4752  0.1782
 1253THY    CA331315   3.693   5.690   2.963  0.4106  0.1723 -0.1896
 1253THY    HA331316   3.660   5.726   3.060 -1.0503 -2.0171  0.1934
 1253THY    CA431317   3.745   5.560   2.954 -0.1752  0.3411 -0.2309
 1253THY    HA431318   3.760   5.504   3.046  0.1721 -0.2143 -0.6223
 1253THY    CA531319   3.795   5.505   2.832 -0.4553  0.5285 -0.0434
 1253THY    CM131320   3.852   5.372   2.828  0.2013 -0.3411  0.1953
 1253THY    HM131321   3.949   5.368   2.777 -0.2022 -3.5405 -0.5474
 1253THY    HM231322   3.866   5.329   2.928 -1.9765 -0.3906  0.5311
 1253THY    HM331323   3.788   5.303   2.772  1.0524 -2.4136  1.6468
 1253THY    CA631324   3.773   5.578   2.717  0.1243 -1.3357 -0.0377
 1253THY    HA631325   3.787   5.531   2.620 -0.9753 -1.4932 -0.1317
 1254THY      O31326   5.844   6.653   0.796  0.1840 -0.0558 -0.5675
 1254THY     HO31327   5.862   6.601   0.876 -0.6293 -0.7898 -0.8393
 1254THY    CA131328   5.717   6.692   0.822 -0.3552 -0.2572  0.3075
 1254THY    CA231329   5.648   6.772   0.726 -0.3775  0.1610  0.2007
 1254THY    CP131330   5.717   6.806   0.591  0.2706  1.1845 -0.0036
 1254THY    HP131331   5.765   6.712   0.561 -1.2045  0.6976 -0.9422
 1254THY    CP231332   5.618   6.839   0.482 -0.4252 -0.0043 -0.3267
 1254THY    HP231333   5.533   6.771   0.475 -0.0833 -0.3836 -0.9272
 1254THY    HP331334   5.572   6.938   0.493  0.9061  0.6184 -0.1928
 1254THY    HP431335   5.669   6.844   0.385  0.3411  0.5396  0.0903
 1254THY    CP331336   5.820   6.919   0.614 -1.0170 -0.6437  0.0413
 1254THY    HP531337   5.775   7.012   0.650  1.8264  0.7240  0.3439
 1254THY    HP631338   5.905   6.897   0.680  0.1492 -0.4573 -1.3444
 1254THY    HP731339   5.874   6.950   0.524  0.0295  0.0707  0.8908
 1254THY    CA331340   5.517   6.812   0.749  0.0119  0.0553 -0.4068
 1254THY    HA331341   5.456   6.870   0.681  1.0707  1.6070 -0.0826
 1254THY    CA431342   5.463   6.788   0.876  0.3528 -0.1904 -0.4442
 1254THY    HA431343   5.369   6.835   0.903  1.4957  0.8705  2.0334
 1254THY    CA531344   5.528   6.701   0.960  0.2575 -0.2325 -0.3579
 1254THY    CM131345   5.458   6.655   1.080  0.9096  0.5431  0.1436
 1254THY    HM131346   5.473   6.548   1.094  0.7277  0.7396  2.1086
 1254THY    HM231347   5.497   6.715   1.164 -1.7592  0.3792  1.6114
 1254THY    HM331348   5.352   6.682   1.074  0.7869  0.3429  1.1510
 1254THY    CA631349   5.658   6.653   0.934 -0.3359 -0.0977 -0.2099
 1254THY    HA631350   5.707   6.598   1.014  0.2398  0.9212  0.1577
 1255THY      O31351   2.265   0.918   7.149 -0.3428  0.1815  0.0969
 1255THY     HO31352   2.260   0.886   7.058 -2.0715  0.8613 -0.0868
 1255THY    CA131353   2.141   0.952   7.184  0.2364  0.1029 -0.1373
 1255THY    CA231354   2.104   1.031   7.297  0.4572  0.2954 -0.6569
 1255THY    CP131355   2.217   1.100   7.376  0.0355  0.5195 -0.1043
 1255THY    HP131356   2.302   1.032   7.363 -1.5816 -1.7736  0.6881
 1255THY    CP231357   2.240   1.239   7.323  0.2694 -0.4105  0.0886
 1255THY    HP231358   2.321   1.302   7.361 -1.6113  2.5599 -0.5376
 1255THY    HP331359   2.250   1.238   7.214 -0.1711 -1.1201  0.0486
 1255THY    HP431360   2.145   1.293   7.335  0.8141  0.7098 -0.5579
 1255THY    CP331361   2.190   1.103   7.526  0.3133 -0.6723 -0.8317
 1255THY    HP531362   2.285   1.149   7.556 -0.0635  0.2328 -1.0076
 1255THY    HP631363   2.107   1.170   7.550  2.1332  0.9159  1.4796
 1255THY    HP731364   2.168   1.003   7.566 -0.2330 -1.1877 -2.3380
 1255THY    CA331365   1.964   1.042   7.332  0.0443 -0.2207  0.2175
 1255THY    HA331366   1.935   1.096   7.421  0.6967  0.8687 -0.2108
 1255THY    CA431367   1.870   0.971   7.249 -0.0959 -0.7141 -0.2838
 1255THY    HA431368   1.763   0.978   7.265 -0.5616 -0.3566 -3.0292
 1255THY    CA531369   1.908   0.907   7.132  0.1982  0.2356 -0.5398
 1255THY    CM131370   1.817   0.838   7.049  0.4773  0.1531  0.2031
 1255THY    HM131371   1.718   0.885   7.040  0.4789  0.1098 -0.0631
 1255THY    HM231372   1.856   0.830   6.946 -1.8661 -1.9408 -0.6256
 1255THY    HM331373   1.810   0.732   7.074  0.6808  0.1333  0.1788
 1255THY    CA631374   2.045   0.884   7.107  0.0387 -0.1951  0.0075
 1255THY    HA631375   2.078   0.817   7.028 -0.3017 -0.6444  0.2430
 1256THY      O31376   4.990   4.171   2.562  0.1874  0.1145 -0.4280
 1256THY     HO31377   4.975   4.250   2.617 -1.8267  1.0615 -2.2230
 1256THY    CA131378   4.941   4.196   2.438 -0.0077  0.0632 -0.0515
 1256THY    CA231379   4.905   4.102   2.339 -0.4147 -0.1755 -0.4224
 1256THY    CP131380   4.909   3.956   2.383 -0.4907  0.0408  0.0289
 1256THY    HP131381   4.992   3.928   2.448 -0.5648  0.3313  0.2496
 1256THY    CP231382   4.787   3.922   2.476 -0.5237 -0.0135 -0.2697
 1256THY    HP231383   4.797   3.976   2.571  0.3184 -0.6844  0.0419
 1256THY    HP331384   4.699   3.972   2.436 -0.4753  0.6251  0.3873
 1256THY    HP431385   4.770   3.818   2.506  1.3011 -0.1604  0.3910
 1256THY    CP331386   4.919   3.851   2.269 -0.4655 -0.4654 -0.7101
 1256THY    HP531387   4.930   3.754   2.318  1.5857 -1.9211 -3.7335
 1256THY    HP631388   4.828   3.857   2.208  0.0887  0.9866 -1.4256
 1256THY    HP731389   5.007   3.877   2.209 -0.4546  0.5586 -0.2584
 1256THY    CA331390   4.871   4.143   2.210  0.1916 -0.4221  0.0223
 1256THY    HA331391   4.845   4.067   2.137  2.2360 -1.0894 -0.0690
 1256THY    CA431392   4.858   4.279   2.177  0.6017  0.3348  0.2139
 1256THY    HA431393   4.819   4.302   2.078  1.8790 -1.5921 -0.7986
 1256THY    CA531394   4.892   4.376   2.268 -0.9938  0.0705 -0.0234
 1256THY    CM131395   4.870   4.515   2.236 -0.1403  0.1071  0.1553
 1256THY    HM131396   4.841   4.533   2.132  2.6846  0.6308 -0.6269
 1256THY    HM231397   4.790   4.543   2.306 -1.6479 -1.9679 -0.6385
 1256THY    HM331398   4.961   4.573   2.252  1.1356 -1.5506 -0.7588
 1256THY    CA631399   4.944   4.334   2.396  0.1557 -0.4807 -0.3458
 1256THY    HA631400   4.973   4.408   2.470  0.1935 -2.5921  1.8774
 1257THY      O31401   4.141   6.567   1.476 -0.1297  0.4895  0.0521
 1257THY     HO31402   4.233   6.567   1.506 -0.5569 -0.2569  1.4323
 1257THY    CA131403   4.131   6.665   1.377  0.0033 -0.3936 -0.2526
 1257THY    CA231404   4.012   6.668   1.295  0.1295 -0.6847  0.3044
 1257THY    CP131405   3.910   6.553   1.308 -0.1691 -0.1194  0.3224
 1257THY    HP131406   3.939   6.488   1.391 -2.4475  1.0214  2.1149
 1257THY    CP231407   3.764   6.600   1.338  0.0572 -0.3017 -0.1983
 1257THY    HP231408   3.726   6.672   1.263 -3.2447 -2.4206 -0.7783
 1257THY    HP331409   3.697   6.515   1.355  1.4040 -0.7975  3.2684
 1257THY    HP431410   3.763   6.650   1.435  1.4135 -2.5693  1.0587
 1257THY    CP331411   3.914   6.468   1.182  0.4091 -0.0346 -0.3081
 1257THY    HP531412   3.882   6.364   1.196 -0.0765  0.2073  0.4569
 1257THY    HP631413   3.851   6.504   1.100 -0.6482 -0.7878  0.1491
 1257THY    HP731414   4.013   6.460   1.135  1.4673  1.6265  1.4858
 1257THY    CA331415   3.995   6.776   1.207 -0.8137  0.0737 -0.1953
 1257THY    HA331416   3.912   6.791   1.138  0.5366  0.2120 -1.8662
 1257THY    CA431417   4.094   6.875   1.205 -0.5567 -0.6688  0.7878
 1257THY    HA431418   4.079   6.962   1.143  1.4583  0.2117  1.4567
 1257THY    CA531419   4.209   6.866   1.284 -0.1484 -0.1109 -0.6621
 1257THY    CM131420   4.315   6.976   1.281 -0.4795  0.2012  0.0659
 1257THY    HM131421   4.277   7.041   1.201 -0.2599 -0.0979 -0.2859
 1257THY    HM231422   4.321   7.028   1.377  0.4659  0.1643  0.0384
 1257THY    HM331423   4.412   6.942   1.241 -1.0941  0.4557 -1.7063
 1257THY    CA631424   4.228   6.762   1.376 -0.7237  0.3626 -0.3986
 1257THY    HA631425   4.317   6.757   1.438 -0.1303  1.0277 -1.1825
 1258THY      O31426   7.939   3.987   8.529 -0.2256  0.4119  0.0858
 1258THY     HO31427   7.897   4.037   8.601 -1.0893 -2.6964  1.9315
 1258THY    CA131428   8.013   3.896   8.588  0.3236 -0.3197  0.7824
 1258THY    CA231429   8.113   3.832   8.518  0.5523 -0.1498 -0.0316
 1258THY    CP131430   8.137   3.865   8.377 -0.6830  0.2223 -0.2120
 1258THY    HP131431   8.125   3.974   8.371 -1.7310  0.0759 -1.4394
 1258THY    CP231432   8.284   3.823   8.327  0.5265 -0.2135  0.4813
 1258THY    HP231433   8.365   3.864   8.389  0.0082 -0.7984  1.5798
 1258THY    HP331434   8.299   3.718   8.299  0.2137  0.0888 -0.8732
 1258THY    HP431435   8.306   3.868   8.229 -0.7411 -0.7442 -0.0706
 1258THY    CP331436   8.039   3.790   8.288  0.3834 -0.2435 -0.4387
 1258THY    HP531437   8.067   3.817   8.186 -1.7058 -1.0205 -1.2851
 1258THY    HP631438   8.046   3.681   8.297 -1.1131 -0.3386 -0.0670
 1258THY    HP731439   7.932   3.805   8.306  0.8645  1.7430  1.1809
 1258THY    CA331440   8.189   3.734   8.582  0.0042  0.4326 -0.6243
 1258THY    HA331441   8.273   3.688   8.531 -0.3813  0.3675 -1.2149
 1258THY    CA431442   8.153   3.700   8.721 -0.3932  0.9926  0.6781
 1258THY    HA431443   8.224   3.637   8.774 -1.1178  0.5695  1.1597
 1258THY    CA531444   8.051   3.770   8.786 -0.3805  0.7301  0.5765
 1258THY    CM131445   8.029   3.741   8.931  0.1582  0.3381 -0.0889
 1258THY    HM131446   8.035   3.840   8.978 -0.1991 -0.1140  0.9520
 1258THY    HM231447   7.931   3.697   8.951 -0.2599  0.7092 -1.2728
 1258THY    HM331448   8.111   3.678   8.967 -0.5264  1.0889  3.0879
 1258THY    CA631449   7.974   3.863   8.722  0.1028  0.1559  0.3872
 1258THY    HA631450   7.892   3.917   8.770 -0.0023 -0.0584  0.4473
 1259THY      O31451   1.990   7.764   6.920  0.5764 -0.0711 -0.0554
 1259THY     HO31452   1.894   7.746   6.911  0.7843 -1.3534  0.1093
 1259THY    CA131453   2.048   7.649   6.936  0.3041  0.2482  0.0612
 1259THY    CA231454   2.183   7.632   6.915  0.0230  0.3127  0.5545
 1259THY    CP131455   2.277   7.743   6.867 -0.6869 -0.1456  0.4750
 1259THY    HP131456   2.236   7.835   6.909  0.6797 -0.0588  1.6989
 1259THY    CP231457   2.415   7.723   6.922 -0.3605  0.2147 -0.0285
 1259THY    HP231458   2.405   7.691   7.027  0.1407  0.4977  0.1109
 1259THY    HP331459   2.469   7.649   6.862 -0.4466  1.8426 -2.2333
 1259THY    HP431460   2.467   7.819   6.929 -0.7667  0.3250  2.2929
 1259THY    CP331461   2.283   7.760   6.714 -0.3762 -0.2292  0.5637
 1259THY    HP531462   2.359   7.837   6.699 -0.7524  0.4105  1.8430
 1259THY    HP631463   2.320   7.668   6.667  0.8229  0.2208  0.6005
 1259THY    HP731464   2.183   7.781   6.674  0.6261 -0.1113 -2.0667
 1259THY    CA331465   2.235   7.503   6.953  0.1227  0.2546 -0.5954
 1259THY    HA331466   2.339   7.476   6.945  0.1591 -0.3434  1.4517
 1259THY    CA431467   2.148   7.404   7.001  0.0275  0.5462  0.0752
 1259THY    HA431468   2.191   7.312   7.038 -1.0729  0.3162  0.8133
 1259THY    CA531469   2.011   7.419   7.001 -0.0855 -0.7836  0.1118
 1259THY    CM131470   1.931   7.307   7.061  0.3511 -0.2811 -0.5173
 1259THY    HM131471   1.996   7.236   7.114  0.3111  0.5826  0.7378
 1259THY    HM231472   1.847   7.334   7.126 -2.5001 -1.5452 -3.3775
 1259THY    HM331473   1.872   7.262   6.981 -0.4882 -0.1702  0.0252
 1259THY    CA631474   1.955   7.546   6.970 -0.6833 -0.2739 -0.2830
 1259THY    HA631475   1.853   7.569   6.997 -1.4686 -1.5420 -1.9589
 1260THY      O31476   3.735   8.312   7.679 -0.3133  0.1067 -0.1728
 1260THY     HO31477   3.663   8.330   7.615  0.4069 -1.5218 -1.5426
 1260THY    CA131478   3.844   8.292   7.604  0.0630 -0.3062  0.2631
 1260THY    CA231479   3.926   8.394   7.561 -0.3982  0.3915 -0.7318
 1260THY    CP131480   3.903   8.534   7.626  0.9135  0.1486  0.4308
 1260THY    HP131481   3.797   8.546   7.654  0.2380 -0.1898 -1.7543
 1260THY    CP231482   3.993   8.551   7.747  0.0651  0.4743  0.0023
 1260THY    HP231483   3.982   8.645   7.802  1.0239 -0.1882  1.3804
 1260THY    HP331484   3.981   8.470   7.821  0.8472  0.3624  0.0091
 1260THY    HP431485   4.096   8.554   7.711 -0.3289  1.0030 -1.1012
 1260THY    CP331486   3.913   8.644   7.510 -0.0210  0.2928 -0.4103
 1260THY    HP531487   3.844   8.628   7.426  1.4157 -0.9716 -1.4143
 1260THY    HP631488   3.876   8.732   7.564  0.0190  0.6734 -0.9862
 1260THY    HP731489   4.014   8.663   7.472  0.2354 -2.8508 -1.5688
 1260THY    CA331490   4.033   8.373   7.467  0.2508 -0.1909  0.0784
 1260THY    HA331491   4.090   8.457   7.429 -1.9803  0.9083 -1.0364
 1260THY    CA431492   4.056   8.238   7.424  0.2216 -0.3305 -0.3917
 1260THY    HA431493   4.126   8.211   7.346 -0.8693 -1.0852 -1.1302
 1260THY    CA531494   3.961   8.136   7.464  0.1328  0.0978 -0.1054
 1260THY    CM131495   3.969   8.001   7.418 -0.8006  0.5895  0.5894
 1260THY    HM131496   3.891   7.985   7.343 -1.2430  2.5904  0.5666
 1260THY    HM231497   4.070   7.978   7.383 -0.3462  0.2504  2.0651
 1260THY    HM331498   3.952   7.933   7.503 -4.1187  0.1766 -0.2634
 1260THY    CA631499   3.860   8.166   7.549 -0.1066  0.0572 -0.5843
 1260THY    HA631500   3.787   8.089   7.565  0.9677 -1.4697 -2.5789
 1261THY      O31501   5.221   7.903   3.151 -0.5304  0.1785  0.6314
 1261THY     HO31502   5.261   7.842   3.215  4.0067  1.4100 -0.7113
 1261THY    CA131503   5.239   8.025   3.199 -0.1306  0.0666 -0.7483
 1261THY    CA231504   5.235   8.144   3.124  0.4540  0.2137 -0.2484
 1261THY    CP131505   5.216   8.144   2.972  0.7474 -0.1560 -0.4551
 1261THY    HP131506   5.239   8.040   2.945  1.0910  0.1359 -1.3355
 1261THY    CP231507   5.065   8.162   2.937  0.2780 -0.0945  0.1032
 1261THY    HP231508   4.996   8.077   2.944 -0.3153  0.0600 -2.5385
 1261THY    HP331509   5.023   8.236   3.006 -0.5786 -0.8360  0.4066
 1261THY    HP431510   5.062   8.197   2.833  1.4099 -0.0757  0.0615
 1261THY    CP331511   5.296   8.244   2.892 -0.3828 -0.2650 -0.4907
 1261THY    HP531512   5.278   8.347   2.924 -0.5456 -0.1026 -1.1003
 1261THY    HP631513   5.400   8.213   2.908 -0.7700 -1.1499  0.5010
 1261THY    HP731514   5.273   8.233   2.786  2.5949 -2.7082 -1.0033
 1261THY    CA331515   5.242   8.269   3.197  0.1377  0.5570  0.4482
 1261THY    HA331516   5.238   8.364   3.144  0.6716  0.4490  0.2044
 1261THY    CA431517   5.267   8.271   3.334 -0.3503  0.3760 -0.3365
 1261THY    HA431518   5.297   8.361   3.386 -0.4454  0.9804 -1.2986
 1261THY    CA531519   5.270   8.148   3.402  0.2689  0.4591 -0.5153
 1261THY    CM131520   5.313   8.140   3.546  0.4362  0.1878  0.3752
 1261THY    HM131521   5.253   8.206   3.609 -0.9886 -1.7070  1.1269
 1261THY    HM231522   5.315   8.035   3.580  0.9916  0.7342  2.1689
 1261THY    HM331523   5.419   8.167   3.538  0.4546  0.1798  0.5839
 1261THY    CA631524   5.247   8.026   3.339  0.0555 -0.4433  0.4521
 1261THY    HA631525   5.273   7.934   3.391  0.2820 -0.2581  0.6666
 1262THY      O31526   7.410   7.028   3.698 -0.1253 -0.3731 -0.3461
 1262THY     HO31527   7.398   6.957   3.763 -1.3763  0.2328  0.1200
 1262THY    CA131528   7.462   6.977   3.590 -0.3436  0.4366  0.6059
 1262THY    CA231529   7.528   7.056   3.493  0.7732  0.3745  0.2100
 1262THY    CP131530   7.542   7.204   3.521  0.2721 -0.3116  0.0249
 1262THY    HP131531   7.463   7.232   3.591 -1.1604 -1.8540 -0.8787
 1262THY    CP231532   7.679   7.253   3.573 -0.7209  0.2586  0.2746
 1262THY    HP231533   7.678   7.220   3.677 -0.4834  2.4906  1.0366
 1262THY    HP331534   7.761   7.208   3.516  0.3218  2.3837  0.0215
 1262THY    HP431535   7.694   7.361   3.580 -0.2850  0.1285  1.5261
 1262THY    CP331536   7.503   7.282   3.392 -0.5739 -0.1229  0.5065
 1262THY    HP531537   7.396   7.277   3.370 -0.7398 -1.9601  1.5148
 1262THY    HP631538   7.528   7.388   3.387 -1.0204  0.3311  4.4888
 1262THY    HP731539   7.568   7.246   3.312 -0.9560  0.5313 -0.1030
 1262THY    CA331540   7.579   6.991   3.384 -0.4186  0.6953  0.2779
 1262THY    HA331541   7.642   7.041   3.310 -0.1664  1.1961  0.8182
 1262THY    CA431542   7.567   6.853   3.362 -0.4084 -0.3245  0.3222
 1262THY    HA431543   7.603   6.812   3.268 -1.1209  0.2393 -0.1981
 1262THY    CA531544   7.483   6.783   3.443 -0.6268 -0.1880 -0.1029
 1262THY    CM131545   7.443   6.642   3.421 -0.3996 -0.3104  0.4611
 1262THY    HM131546   7.386   6.621   3.330 -0.1037  0.3287  0.1240
 1262THY    HM231547   7.534   6.581   3.411  1.6254  2.5349  0.2227
 1262THY    HM331548   7.383   6.605   3.505 -1.4897 -0.3118 -0.2982
 1262THY    CA631549   7.442   6.838   3.558  0.0452 -0.7740 -0.2635
 1262THY    HA631550   7.379   6.788   3.630  1.5095  0.3960  1.9638
 1263THY      O31551   7.056   3.445   6.530  0.4389 -0.4019 -0.1048
 1263THY     HO31552   7.030   3.398   6.449 -1.3330  0.8429 -0.3270
 1263THY    CA131553   6.947   3.435   6.611  0.9451  0.3584 -0.0653
 1263THY    CA231554   6.961   3.394   6.742 -0.5422  0.1649 -0.1672
 1263THY    CP131555   7.100   3.365   6.795  0.2550  0.3872 -0.6426
 1263THY    HP131556   7.186   3.393   6.733  2.3959 -1.8799  1.1090
 1263THY    CP231557   7.125   3.436   6.932 -0.0466  0.0673  0.2263
 1263THY    HP231558   7.231   3.439   6.958  0.0687  1.7751 -0.2983
 1263THY    HP331559   7.090   3.540   6.921 -1.5668 -0.3047  1.2110
 1263THY    HP431560   7.064   3.381   7.004 -2.8820 -0.6595 -2.5062
 1263THY    CP331561   7.122   3.213   6.802 -0.3869 -0.3199 -0.8654
 1263THY    HP531562   7.056   3.168   6.877 -0.2534  0.7671 -0.0709
 1263THY    HP631563   7.108   3.168   6.703  0.0240 -0.5427 -0.8256
 1263THY    HP731564   7.222   3.191   6.840  0.0215  1.2819 -0.9468
 1263THY    CA331565   6.851   3.370   6.818  0.3225 -0.4844  0.1664
 1263THY    HA331566   6.871   3.329   6.917  1.6722 -0.5079 -0.1061
 1263THY    CA431567   6.725   3.402   6.772  0.1097  0.9518  0.1716
 1263THY    HA431568   6.646   3.371   6.841  1.1063 -3.3893 -0.3081
 1263THY    CA531569   6.707   3.446   6.640 -0.0268 -0.0933  0.1942
 1263THY    CM131570   6.571   3.478   6.586 -0.0437  0.3110  0.0234
 1263THY    HM131571   6.516   3.529   6.665  1.1423 -1.4637  2.0871
 1263THY    HM231572   6.569   3.530   6.489  1.1563 -1.3805 -0.9648
 1263THY    HM331573   6.522   3.384   6.562 -0.1203  0.6695 -1.3074
 1263THY    CA631574   6.819   3.466   6.566 -0.0320  0.0881 -0.0826
 1263THY    HA631575   6.806   3.507   6.466  0.7107 -1.2731 -0.7606
 1264THY      O31576   3.578   4.630   3.282  0.4073 -0.1161  0.8528
 1264THY     HO31577   3.637   4.612   3.206 -3.3099 -2.5339 -1.7895
 1264THY    CA131578   3.457   4.604   3.234  0.3932 -0.1941  0.0091
 1264THY    CA231579   3.338   4.654   3.290 -0.4800  0.6523 -0.8215
 1264THY    CP131580   3.345   4.753   3.410 -0.2451  0.6632  0.7462
 1264THY    HP131581   3.433   4.818   3.399  0.1946 -0.1456 -0.6954
 1264THY    CP231582   3.220   4.848   3.408 -0.0650  0.4148  0.4998
 1264THY    HP231583   3.216   4.882   3.304 -0.5960 -0.4619  0.2244
 1264THY    HP331584   3.122   4.806   3.434  0.1616 -0.3745  0.1040
 1264THY    HP431585   3.254   4.932   3.470  4.5171 -0.1637 -0.8492
 1264THY    CP331586   3.359   4.673   3.548 -0.0658  0.0224 -0.1906
 1264THY    HP531587   3.366   4.751   3.625 -1.0965 -0.1308  0.0755
 1264THY    HP631588   3.270   4.615   3.573 -0.6834  0.6932 -0.7466
 1264THY    HP731589   3.448   4.611   3.536  0.4170  0.4145  1.2591
 1264THY    CA331590   3.215   4.610   3.238  0.2674 -0.3587  0.1644
 1264THY    HA331591   3.126   4.641   3.293  0.6739  0.1724  0.5311
 1264THY    CA431592   3.211   4.524   3.123  0.1931 -0.5030 -0.0445
 1264THY    HA431593   3.115   4.488   3.084 -1.7449  2.6352  1.4609
 1264THY    CA531594   3.327   4.478   3.064  0.2687 -0.5260  0.4602
 1264THY    CM131595   3.318   4.381   2.947  0.2787  0.4583 -0.6055
 1264THY    HM131596   3.236   4.416   2.882 -1.6117  1.1389  1.9818
 1264THY    HM231597   3.415   4.378   2.896  0.0598 -0.6896 -0.9932
 1264THY    HM331598   3.302   4.278   2.979 -1.0768  1.1260  1.0128
 1264THY    CA631599   3.451   4.512   3.124 -0.3729  0.0464  0.1396
 1264THY    HA631600   3.541   4.464   3.090 -0.1382 -0.1191  0.9672
 1265THY      O31601   5.979   0.065   9.351  0.6307  0.4709 -0.2338
 1265THY     HO31602   6.009  -0.028   9.348 -1.0065 -0.1321  0.6895
 1265THY    CA131603   6.002   0.099   9.478  0.1052  0.4838  0.1887
 1265THY    CA231604   5.935   0.203   9.541 -0.8518  0.5910  0.0986
 1265THY    CP131605   5.840   0.300   9.479 -0.3034 -0.4661 -0.2935
 1265THY    HP131606   5.838   0.299   9.370 -1.0154  3.4577 -0.4759
 1265THY    CP231607   5.693   0.266   9.517 -0.2280  0.9106 -0.3659
 1265THY    HP231608   5.671   0.170   9.468  0.9823  1.5251 -2.2302
 1265THY    HP331609   5.695   0.270   9.627 -0.2274 -2.2298 -0.1636
 1265THY    HP431610   5.623   0.334   9.467  0.2006  0.4961 -1.5701
 1265THY    CP331611   5.871   0.444   9.510  0.0341 -0.0158  0.1044
 1265THY    HP531612   5.899   0.466   9.614  1.5300 -2.0240  0.1914
 1265THY    HP631613   5.952   0.475   9.443 -0.4998  0.2782 -0.4140
 1265THY    HP731614   5.784   0.503   9.479  0.8699  0.8371 -0.7186
 1265THY    CA331615   5.964   0.218   9.680 -0.3182 -0.3302 -0.8029
 1265THY    HA331616   5.923   0.302   9.736 -0.9902 -1.4081  0.3672
 1265THY    CA431617   6.048   0.127   9.750  0.2429  0.4851 -0.3845
 1265THY    HA431618   6.049   0.144   9.857 -0.3614 -2.0325  0.0908
 1265THY    CA531619   6.090   0.012   9.683 -0.3999 -0.1648 -0.5789
 1265THY    CM131620   6.168  -0.100   9.756 -0.1235 -0.4756  0.4127
 1265THY    HM131621   6.133  -0.199   9.723  1.5859 -0.0732 -3.0130
 1265THY    HM231622   6.274  -0.086   9.729  0.1531  0.9509  2.0652
 1265THY    HM331623   6.165  -0.098   9.866  0.1837 -1.6094  0.4563
 1265THY    CA631624   6.066   0.002   9.549  0.0003 -0.5571 -0.1092
 1265THY    HA631625   6.107  -0.084   9.498  1.3221 -0.0113 -0.0186
 1266THY      O31626   9.861   6.334   0.397  0.6596  0.1925  0.2313
 1266THY     HO31627   9.918   6.335   0.475  0.1189 -1.4208  0.6893
 1266THY    CA131628   9.938   6.283   0.295 -0.4257 -0.7102  0.4984
 1266THY    CA231629   9.902   6.303   0.157 -0.1637  0.1285 -0.0813
 1266THY    CP131630   9.784   6.396   0.123 -0.6835  0.3644 -0.7801
 1266THY    HP131631   9.742   6.444   0.213  0.3517  0.3713 -0.2903
 1266THY    CP231632   9.833   6.509   0.032 -0.3632  0.4883  0.3655
 1266THY    HP231633   9.749   6.580   0.024 -0.5262  0.2924  0.3101
 1266THY    HP331634   9.913   6.563   0.084  0.0282 -1.0299  1.4102
 1266THY    HP431635   9.859   6.469  -0.066  0.9308  2.2382 -0.0478
 1266THY    CP331636   9.674   6.318   0.055 -0.3485  0.2325  0.0596
 1266THY    HP531637   9.589   6.383   0.030  0.6989  2.0599  0.9918
 1266THY    HP631638   9.712   6.281  -0.041  0.3573  0.4409  0.2498
 1266THY    HP731639   9.649   6.231   0.116 -1.0170  1.4860  1.6537
 1266THY    CA331640   9.972   6.238   0.056  0.7016  0.2606 -0.4677
 1266THY    HA331641   9.951   6.248  -0.050  2.2193  0.2321 -0.7985
 1266THY    CA431642  10.079   6.158   0.093  0.1718 -0.5192 -0.3932
 1266THY    HA431643  10.134   6.096   0.023 -0.3239 -0.2109 -1.0737
 1266THY    CA531644  10.128   6.153   0.223 -0.1651  0.7660 -0.3363
 1266THY    CM131645  10.262   6.078   0.250 -0.1903 -0.3988  0.2508
 1266THY    HM131646  10.247   5.969   0.250  2.1033 -0.7554  0.5337
 1266THY    HM231647  10.341   6.089   0.175  0.3988  0.7793  1.0113
 1266THY    HM331648  10.307   6.106   0.346  1.3405  0.3294 -0.6400
 1266THY    CA631649  10.058   6.213   0.323 -0.0970  0.0668  0.5433
 1266THY    HA631650  10.093   6.204   0.426 -0.2088 -0.9320  0.5067
 1267THY      O31651   8.389   5.195   0.414  0.4347  0.6187  0.1235
 1267THY     HO31652   8.384   5.208   0.510  1.1782 -1.5005  0.5072
 1267THY    CA131653   8.371   5.070   0.415  0.8470  0.0251  0.3080
 1267THY    CA231654   8.321   5.005   0.302  0.1882  0.1889  1.2097
 1267THY    CP131655   8.288   5.087   0.173  0.2696  0.0070  0.6844
 1267THY    HP131656   8.262   5.187   0.211  2.7677  1.0227 -0.0386
 1267THY    CP231657   8.402   5.115   0.077 -1.1296  0.6612 -0.2798
 1267THY    HP231658   8.441   5.025   0.027  1.0960  1.2688  0.2403
 1267THY    HP331659   8.383   5.188  -0.004  1.9916  0.8589 -0.9599
 1267THY    HP431660   8.480   5.153   0.144 -2.4021 -0.4140  1.8996
 1267THY    CP331661   8.168   5.038   0.085 -1.1457 -0.3442  0.3735
 1267THY    HP531662   8.172   5.090  -0.012  2.9073 -1.1356 -0.0678
 1267THY    HP631663   8.192   4.933   0.064  0.0477  0.2887 -1.7993
 1267THY    HP731664   8.074   5.048   0.141 -0.8000  0.6050  0.8017
 1267THY    CA331665   8.299   4.861   0.309 -0.4919 -0.0895 -0.2859
 1267THY    HA331666   8.278   4.806   0.219  0.0092  0.1329 -0.5431
 1267THY    CA431667   8.327   4.802   0.426 -0.1102  1.1714 -0.3053
 1267THY    HA431668   8.319   4.695   0.446  3.3461  0.9883  0.7255
 1267THY    CA531669   8.370   4.864   0.537  0.0594 -0.6461 -0.6293
 1267THY    CM131670   8.398   4.789   0.667 -0.3386 -0.0624 -0.2288
 1267THY    HM131671   8.331   4.815   0.750  1.4530 -1.2716  1.7072
 1267THY    HM231672   8.362   4.687   0.647  2.8776 -0.5802 -4.9851
 1267THY    HM331673   8.504   4.786   0.697 -0.6151 -2.7833  0.8518
 1267THY    CA631674   8.389   5.003   0.532 -0.1211  0.3931 -0.2048
 1267THY    HA631675   8.429   5.046   0.623  0.2247 -0.7219  0.1961
 1268THY      O31676   1.071   4.925   6.297 -0.4253  0.5229  0.3984
 1268THY     HO31677   1.078   4.828   6.298  0.0797  0.5649  0.7286
 1268THY    CA131678   1.007   4.953   6.415 -0.1261 -0.0087  1.0323
 1268THY    CA231679   0.949   5.084   6.440 -0.0444 -0.3572 -0.0772
 1268THY    CP131680   0.979   5.207   6.353 -0.0713  0.3666  0.5664
 1268THY    HP131681   1.018   5.173   6.256  2.2305  0.6041  1.3378
 1268THY    CP231682   0.861   5.300   6.327  0.0944 -0.4246  0.3848
 1268THY    HP231683   0.842   5.361   6.416  1.6870 -0.0776  0.5211
 1268THY    HP331684   0.880   5.367   6.243  0.8761  0.2630  1.0849
 1268THY    HP431685   0.777   5.235   6.301  1.3528 -1.0903 -2.3348
 1268THY    CP331686   1.097   5.277   6.418  0.2164 -0.0667 -0.2917
 1268THY    HP531687   1.174   5.201   6.433 -2.8604 -3.6267 -0.8802
 1268THY    HP631688   1.122   5.359   6.350  0.3768  1.1151  1.1432
 1268THY    HP731689   1.066   5.308   6.518  0.6830  0.2333 -0.2393
 1268THY    CA331690   0.891   5.108   6.564 -0.4336 -0.0676  0.3663
 1268THY    HA331691   0.834   5.192   6.602 -1.5086 -1.6019  2.4244
 1268THY    CA431692   0.891   5.000   6.650 -0.2003 -0.0554  0.3099
 1268THY    HA431693   0.848   5.015   6.748  0.0708 -1.9182  0.7452
 1268THY    CA531694   0.936   4.876   6.618 -0.2898  0.0886 -0.2826
 1268THY    CM131695   0.937   4.767   6.723 -0.0603 -0.7037 -0.3141
 1268THY    HM131696   0.839   4.718   6.733 -0.0494 -0.3143  2.7336
 1268THY    HM231697   1.005   4.682   6.713  0.3190 -0.3427 -0.8365
 1268THY    HM331698   0.943   4.813   6.823  0.9644 -0.5970 -0.4220
 1268THY    CA631699   0.995   4.852   6.501 -0.4309  0.1886  1.0233
 1268THY    HA631700   1.037   4.754   6.476  2.2252  1.3105  0.7877
 1269THY      O31701   5.803   9.282   3.575 -0.4427  0.6701  0.1148
 1269THY     HO31702   5.871   9.326   3.520  0.6846 -3.6598 -2.4195
 1269THY    CA131703   5.680   9.331   3.546  0.1108  0.2180  0.4738
 1269THY    CA231704   5.564   9.254   3.549 -0.3202  0.7345 -0.3672
 1269THY    CP131705   5.577   9.106   3.582 -0.0763  0.4622  0.1351
 1269THY    HP131706   5.680   9.080   3.608  0.6750  2.4742 -0.6396
 1269THY    CP231707   5.491   9.088   3.700 -0.2392  0.1387  0.8922
 1269THY    HP231708   5.388   9.068   3.669 -0.0761  1.3355 -0.5492
 1269THY    HP331709   5.509   8.996   3.756 -1.9496 -0.0182  1.2450
 1269THY    HP431710   5.497   9.169   3.774  0.4298  0.5314  0.4137
 1269THY    CP331711   5.550   9.000   3.474 -0.3572  0.0319  0.2615
 1269THY    HP531712   5.444   8.980   3.460 -0.3416 -0.9709  1.4592
 1269THY    HP631713   5.599   9.020   3.378 -0.0937  0.0680  0.4007
 1269THY    HP731714   5.604   8.914   3.515  0.7087  1.3652  1.8577
 1269THY    CA331715   5.436   9.311   3.506  0.0971 -0.0776  0.2490
 1269THY    HA331716   5.346   9.250   3.507 -0.0744  0.1745  0.4442
 1269THY    CA431717   5.434   9.447   3.457 -0.3074  0.3919  0.0302
 1269THY    HA431718   5.337   9.482   3.423 -2.1250 -3.1764  1.0643
 1269THY    CA531719   5.557   9.514   3.439  0.8015 -0.5946 -0.8793
 1269THY    CM131720   5.561   9.654   3.379  0.3015 -0.5372 -0.9093
 1269THY    HM131721   5.653   9.707   3.408 -1.2725  1.8520  0.0010
 1269THY    HM231722   5.540   9.657   3.271 -0.5507 -2.2405 -0.8284
 1269THY    HM331723   5.474   9.706   3.419  1.6508  0.7603  0.4568
 1269THY    CA631724   5.675   9.462   3.493 -0.1261  0.4646  0.0299
 1269THY    HA631725   5.768   9.517   3.480 -1.3142  2.3101 -1.2408
 1270THY      O31726   6.419   8.625   0.251 -0.2775 -0.2818 -0.2678
 1270THY     HO31727   6.467   8.557   0.302  1.4128  0.9544 -0.1307
 1270THY    CA131728   6.490   8.739   0.249  0.9122 -0.5016 -0.6753
 1270THY    CA231729   6.436   8.854   0.178 -0.4750  0.0641  0.0094
 1270THY    CP131730   6.306   8.858   0.110  0.0308  0.3764 -0.5933
 1270THY    HP131731   6.285   8.751   0.104  2.4034 -0.3374  2.0173
 1270THY    CP231732   6.187   8.924   0.181 -0.2008  0.3344  0.6806
 1270THY    HP231733   6.171   8.869   0.274 -0.8065  0.2219  0.5168
 1270THY    HP331734   6.214   9.024   0.216 -0.2717  0.9615 -0.9472
 1270THY    HP431735   6.102   8.941   0.113  0.7735 -0.1211 -0.6993
 1270THY    CP331736   6.302   8.920  -0.031 -0.5808 -0.0550  0.3047
 1270THY    HP531737   6.397   8.906  -0.085 -1.1715 -0.4574 -0.6530
 1270THY    HP631738   6.213   8.897  -0.091 -1.9487  2.2421  1.2943
 1270THY    HP731739   6.295   9.028  -0.013  0.6029  0.4123 -1.7453
 1270THY    CA331740   6.517   8.969   0.182 -0.6721 -0.0814  0.1598
 1270THY    HA331741   6.483   9.062   0.138 -0.7052 -0.9932 -1.9170
 1270THY    CA431742   6.639   8.972   0.253  0.6651  0.4920 -0.2283
 1270THY    HA431743   6.701   9.061   0.254  1.2132  0.1348 -0.9841
 1270THY    CA531744   6.684   8.862   0.325  0.1247  0.7599 -0.4199
 1270THY    CM131745   6.785   8.884   0.431 -0.1358 -0.2852 -0.8779
 1270THY    HM131746   6.785   8.984   0.475 -0.1263 -0.4150 -0.5772
 1270THY    HM231747   6.789   8.804   0.506  0.1809 -1.0068 -1.6411
 1270THY    HM331748   6.887   8.866   0.396 -0.6581 -0.9178 -2.1455
 1270THY    CA631749   6.609   8.744   0.321  0.0798  0.2606 -0.4928
 1270THY    HA631750   6.659   8.661   0.370 -1.3309  0.9066  2.2509
 1271THY      O31751   6.538   9.914   9.690 -0.1562  0.4603  0.6328
 1271THY     HO31752   6.550   9.839   9.750 -0.6666 -0.6804 -0.6485
 1271THY    CA131753   6.537  10.035   9.749 -0.6113 -0.1807  0.8882
 1271THY    CA231754   6.509  10.155   9.682  0.1270  0.1306 -0.0424
 1271THY    CP131755   6.464  10.154   9.532  0.1276 -0.9462  0.9476
 1271THY    HP131756   6.444  10.052   9.498  1.7973 -0.9138 -0.2164
 1271THY    CP231757   6.339  10.234   9.511 -0.1548 -0.4508 -0.3928
 1271THY    HP231758   6.258  10.200   9.576 -0.1037  1.4542  0.7247
 1271THY    HP331759   6.342  10.338   9.545 -2.4983  0.2425 -2.0027
 1271THY    HP431760   6.313  10.239   9.404 -1.4549 -0.6013 -0.0991
 1271THY    CP331761   6.576  10.216   9.431  0.0508 -0.2325 -0.2079
 1271THY    HP531762   6.606  10.315   9.467  0.2094 -0.1188 -0.6523
 1271THY    HP631763   6.662  10.149   9.443  1.6105  1.4904 -1.3298
 1271THY    HP731764   6.540  10.219   9.328 -2.2347 -0.4325  0.5270
 1271THY    CA331765   6.504  10.277   9.748 -0.2945 -0.5464 -0.5040
 1271THY    HA331766   6.473  10.368   9.697  1.4170 -0.5425 -1.6493
 1271THY    CA431767   6.530  10.275   9.886  0.0838  0.9399 -0.1946
 1271THY    HA431768   6.515  10.364   9.947  1.5520  0.0947  1.4785
 1271THY    CA531769   6.571  10.156   9.956  0.2583 -0.4878 -0.3192
 1271THY    CM131770   6.601  10.157  10.105  0.2137  0.5848 -0.5408
 1271THY    HM131771   6.674  10.080  10.133 -2.5819 -1.9460  0.3954
 1271THY    HM231772   6.628  10.255  10.145 -0.3877  0.4013  0.3585
 1271THY    HM331773   6.511  10.113  10.150  0.2051 -0.0702 -1.1715
 1271THY    CA631774   6.578  10.040   9.884 -0.4163 -0.1796 -0.2802
 1271THY    HA631775   6.613   9.951   9.937 -0.2484 -0.3053 -0.5992
 1272THY      O31776   6.336   0.693   9.919  0.6745  0.0433 -0.0244
 1272THY     HO31777   6.255   0.688   9.865  1.0104  1.0019 -0.6416
 1272THY    CA131778   6.439   0.708   9.832  0.2410  0.2986  0.8156
 1272THY    CA231779   6.565   0.725   9.890  0.3738  0.5596 -0.1957
 1272THY    CP131780   6.577   0.709  10.045  0.1411  0.0497 -0.7099
 1272THY    HP131781   6.489   0.658  10.086  1.0030 -1.5566 -0.7692
 1272THY    CP231782   6.694   0.617  10.066  0.1732  0.0044 -0.0570
 1272THY    HP231783   6.787   0.663  10.031 -1.1060  0.0474 -3.7301
 1272THY    HP331784   6.710   0.589  10.171  1.7589  1.0740  0.0222
 1272THY    HP431785   6.677   0.530  10.002  2.1319 -0.9301  0.6223
 1272THY    CP331786   6.599   0.838  10.120  0.2070 -0.4655 -0.4303
 1272THY    HP531787   6.587   0.820  10.228 -1.3283 -0.0733 -0.5163
 1272THY    HP631788   6.700   0.880  10.110 -0.7754  2.3111  0.4154
 1272THY    HP731789   6.524   0.906  10.078 -0.0697 -0.8264 -0.5222
 1272THY    CA331790   6.672   0.750   9.801 -0.7799  0.1515  0.1893
 1272THY    HA331791   6.769   0.774   9.842 -0.8662 -0.1261  0.5597
 1272THY    CA431792   6.652   0.746   9.662 -0.0730  0.3652 -0.2048
 1272THY    HA431793   6.732   0.771   9.592  0.4070 -2.3088 -0.6941
 1272THY    CA531794   6.528   0.737   9.615 -0.3793 -0.6191  0.6271
 1272THY    CM131795   6.502   0.759   9.462 -0.1793  0.3631  0.3159
 1272THY    HM131796   6.559   0.686   9.404  1.5061  1.2140  0.8288
 1272THY    HM231797   6.397   0.738   9.437 -0.2637  0.3899  0.6349
 1272THY    HM331798   6.544   0.857   9.436  0.9979  0.3436  1.9274
 1272THY    CA631799   6.415   0.715   9.699 -0.0422 -0.4683  0.1715
 1272THY    HA631800   6.313   0.710   9.661 -0.3387 -0.1732  0.9149
 1273THY      O31801   1.525   1.656   3.018  0.2327  0.2258  0.1393
 1273THY     HO31802   1.442   1.612   2.997  0.8221 -1.0131  0.3245
 1273THY    CA131803   1.480   1.781   3.025 -0.3174 -0.1854 -0.2831
 1273THY    CA231804   1.559   1.890   2.987  0.8896  0.7170 -1.2650
 1273THY    CP131805   1.695   1.862   2.927  0.1491  0.2686  0.0068
 1273THY    HP131806   1.724   1.757   2.917 -1.8016 -0.5963  2.4123
 1273THY    CP231807   1.690   1.907   2.780 -0.1228 -0.1742  0.2358
 1273THY    HP231808   1.790   1.901   2.735 -0.5081 -1.6920 -0.4636
 1273THY    HP331809   1.615   1.848   2.727 -1.5093  1.3666  0.3934
 1273THY    HP431810   1.670   2.015   2.779  1.7049  0.2002 -1.3070
 1273THY    CP331811   1.816   1.940   3.003  0.0411  0.0237  0.1433
 1273THY    HP531812   1.910   1.928   2.947 -0.9079  1.3352 -1.8196
 1273THY    HP631813   1.785   2.045   3.007 -3.9184 -0.8688 -2.3350
 1273THY    HP731814   1.810   1.903   3.106 -1.3943 -0.0987  0.0254
 1273THY    CA331815   1.504   2.018   3.001 -0.2915 -0.7475  0.7572
 1273THY    HA331816   1.555   2.107   2.965 -1.3496 -0.9943 -1.5414
 1273THY    CA431817   1.378   2.034   3.063  0.5337 -1.1394 -0.6508
 1273THY    HA431818   1.330   2.131   3.063  0.8109 -0.9979 -1.0593
 1273THY    CA531819   1.308   1.923   3.105 -0.4639  0.4130 -0.0617
 1273THY    CM131820   1.169   1.939   3.166 -0.3415 -0.6073  0.2553
 1273THY    HM131821   1.095   1.910   3.091 -0.4516  0.1935  0.0527
 1273THY    HM231822   1.152   1.867   3.248  1.8982 -0.3255  1.0392
 1273THY    HM331823   1.148   2.042   3.195  2.1461  0.0648 -0.0739
 1273THY    CA631824   1.356   1.798   3.086 -0.1356  0.2128  0.4669
 1273THY    HA631825   1.297   1.711   3.113  2.7683 -1.2182  2.8612
 1274THY      O31826   3.865   8.427   1.466  0.2595 -0.0468 -0.2912
 1274THY     HO31827   3.776   8.412   1.431 -0.2290  1.8712  0.0015
 1274THY    CA131828   3.957   8.386   1.377  0.4527  0.4750 -0.5385
 1274THY    CA231829   4.091   8.418   1.393  0.2701  0.6813 -0.0454
 1274THY    CP131830   4.136   8.479   1.524 -0.7020 -0.0733  0.9153
 1274THY    HP131831   4.082   8.441   1.612  1.0891  0.2242  2.1928
 1274THY    CP231832   4.288   8.470   1.548 -0.4795  0.1057 -0.4064
 1274THY    HP231833   4.313   8.490   1.652 -2.3389 -1.4652  0.4055
 1274THY    HP331834   4.329   8.371   1.527 -0.5708 -0.0163 -0.0093
 1274THY    HP431835   4.335   8.554   1.494 -0.3725 -0.0802 -0.6042
 1274THY    CP331836   4.109   8.633   1.529  0.5099 -0.1684  0.2821
 1274THY    HP531837   4.153   8.684   1.616  1.2083 -0.4358  0.0998
 1274THY    HP631838   4.140   8.686   1.438 -0.7267 -3.0093 -1.9783
 1274THY    HP731839   4.003   8.651   1.546  0.1038  3.7917 -4.3605
 1274THY    CA331840   4.173   8.395   1.284 -0.2367  0.4695  0.4771
 1274THY    HA331841   4.279   8.419   1.288 -0.4220  1.1300  2.0566
 1274THY    CA431842   4.126   8.343   1.161  0.0679 -0.6974  0.6828
 1274THY    HA431843   4.185   8.334   1.070  0.8378  1.7077  0.8550
 1274THY    CA531844   3.994   8.310   1.150 -0.3322  0.2166 -0.3944
 1274THY    CM131845   3.931   8.267   1.017 -0.1043  0.7215  0.0757
 1274THY    HM131846   3.824   8.289   1.028  0.4033  2.4172  2.3477
 1274THY    HM231847   3.966   8.329   0.933  1.4099  0.4171  0.4553
 1274THY    HM331848   3.958   8.165   0.987 -0.8331  0.7149 -0.5823
 1274THY    CA631849   3.912   8.323   1.259 -0.1880 -0.1193 -0.6783
 1274THY    HA631850   3.807   8.296   1.249 -0.2976 -0.1769  0.4936
 1275THY      O31851   2.425   0.501   2.255 -0.1023  0.2813 -0.2719
 1275THY     HO31852   2.454   0.593   2.241  2.1483 -0.5690 -1.7870
 1275THY    CA131853   2.288   0.490   2.240 -0.8650  1.0157 -0.1233
 1275THY    CA231854   2.219   0.369   2.220 -0.3203  0.2012 -0.0756
 1275THY    CP131855   2.287   0.228   2.234  0.4433 -0.8872 -0.6001
 1275THY    HP131856   2.387   0.248   2.274  1.0110  0.5328 -2.5802
 1275THY    CP231857   2.218   0.129   2.335  0.1491 -1.2226  0.0620
 1275THY    HP231858   2.127   0.085   2.292  0.2165 -0.7801 -0.5485
 1275THY    HP331859   2.280   0.048   2.375  1.6664 -0.7514 -1.2531
 1275THY    HP431860   2.187   0.191   2.420  0.3861 -1.0719  0.0394
 1275THY    CP331861   2.302   0.165   2.100  0.5109 -0.3111 -0.6729
 1275THY    HP531862   2.209   0.119   2.065 -0.1538 -0.1362  0.7917
 1275THY    HP631863   2.343   0.220   2.014 -1.0379  0.1730 -1.1262
 1275THY    HP731864   2.362   0.076   2.118  1.3416  0.6971  1.9653
 1275THY    CA331865   2.083   0.364   2.184  0.4288 -0.1762  0.5724
 1275THY    HA331866   2.032   0.269   2.168  2.9783 -1.5143 -0.1367
 1275THY    CA431867   2.019   0.482   2.172  0.3220  0.8969  0.0340
 1275THY    HA431868   1.913   0.476   2.148 -0.0821 -1.8167  2.0155
 1275THY    CA531869   2.078   0.607   2.201 -0.3904  0.1115  0.8796
 1275THY    CM131870   2.005   0.736   2.178  0.2551 -0.2849  0.5256
 1275THY    HM131871   1.940   0.729   2.090  0.6396 -1.1957  0.3028
 1275THY    HM231872   1.936   0.768   2.258 -0.6451  0.9806 -0.7027
 1275THY    HM331873   2.067   0.824   2.158 -1.3236  0.8818  0.5688
 1275THY    CA631874   2.214   0.605   2.241 -0.9546 -0.4428  0.7261
 1275THY    HA631875   2.266   0.700   2.253 -0.9909 -0.3570  0.2177
 1276THY      O31876   0.272   9.021   6.810 -0.0938 -0.3007  0.5040
 1276THY     HO31877   0.201   9.012   6.875 -2.0238 -0.7344 -1.5257
 1276THY    CA131878   0.200   9.009   6.692 -0.1620 -0.4448 -0.1210
 1276THY    CA231879   0.248   8.952   6.576  0.6441 -0.2733 -1.2685
 1276THY    CP131880   0.395   8.891   6.580  0.3726  0.1153 -1.0475
 1276THY    HP131881   0.465   8.958   6.632  0.5045 -1.3436  0.7247
 1276THY    CP231882   0.383   8.760   6.658 -0.4553  0.4743  0.1302
 1276THY    HP231883   0.320   8.693   6.599  0.2180 -0.6373  0.6559
 1276THY    HP331884   0.478   8.705   6.656 -0.1228  1.0357 -0.3408
 1276THY    HP431885   0.358   8.783   6.762 -2.3455  0.8378 -0.3832
 1276THY    CP331886   0.463   8.877   6.444  0.6687 -0.0590 -0.2917
 1276THY    HP531887   0.401   8.814   6.378 -0.0588  0.4780 -0.1341
 1276THY    HP631888   0.469   8.978   6.402 -0.8751  0.5198  0.7713
 1276THY    HP731889   0.566   8.840   6.436  1.3453  1.2613  1.6458
 1276THY    CA331890   0.171   8.958   6.459 -0.0167  0.5410 -0.3752
 1276THY    HA331891   0.206   8.926   6.361  0.9781 -1.2082  0.5124
 1276THY    CA431892   0.043   9.016   6.465 -0.0220  0.0350  0.1816
 1276THY    HA431893  -0.027   9.018   6.382 -1.0520  0.9708  1.0402
 1276THY    CA531894  -0.004   9.063   6.586 -0.3817  0.8822  0.1792
 1276THY    CM131895  -0.143   9.120   6.588  0.4230  0.2010  0.2953
 1276THY    HM131896  -0.125   9.228   6.582 -0.5628  0.3750  0.3225
 1276THY    HM231897  -0.205   9.098   6.500 -0.6146  2.2264  0.4781
 1276THY    HM331898  -0.192   9.090   6.681 -0.6263 -0.8634 -0.5716
 1276THY    CA631899   0.071   9.066   6.702  0.5100  0.8840 -0.1411
 1276THY    HA631900   0.036   9.108   6.796 -1.4513 -2.0033  0.5299
 1277THY      O31901   6.425   8.432   4.017 -0.1976 -0.0128 -0.2825
 1277THY     HO31902   6.449   8.375   4.093 -0.3650  0.1496 -0.1051
 1277THY    CA131903   6.322   8.368   3.955  0.4061  0.1603  0.0326
 1277THY    CA231904   6.265   8.430   3.841 -0.4325 -0.3099  0.9310
 1277THY    CP131905   6.333   8.556   3.779 -0.2706  0.1115 -0.0515
 1277THY    HP131906   6.441   8.563   3.790  0.1771  1.0626 -3.6011
 1277THY    CP231907   6.313   8.563   3.626 -0.9020  0.1814 -0.9022
 1277THY    HP231908   6.367   8.487   3.569  2.6700  1.2331  0.7523
 1277THY    HP331909   6.206   8.568   3.605 -0.9791 -0.7754 -0.7849
 1277THY    HP431910   6.355   8.659   3.593 -0.6327  1.5734  2.9342
 1277THY    CP331911   6.281   8.684   3.848 -0.6090 -0.2980  0.0784
 1277THY    HP531912   6.199   8.725   3.788  1.5629  0.4187 -2.6030
 1277THY    HP631913   6.239   8.656   3.945 -0.1952 -0.6756  0.1557
 1277THY    HP731914   6.358   8.756   3.878 -0.5871 -1.1666  2.3387
 1277THY    CA331915   6.143   8.376   3.789 -0.5814  0.3368 -0.4879
 1277THY    HA331916   6.093   8.420   3.703 -1.3627 -1.0063 -0.7559
 1277THY    CA431917   6.087   8.262   3.852 -0.4183  0.8471  0.5985
 1277THY    HA431918   5.995   8.216   3.815  0.1106  0.3640 -0.1280
 1277THY    CA531919   6.150   8.209   3.962 -0.0659 -0.1333  0.1765
 1277THY    CM131920   6.101   8.083   4.024  0.3215  0.9880 -0.4480
 1277THY    HM131921   6.059   8.098   4.124  1.4856  2.9227 -0.1875
 1277THY    HM231922   6.029   8.031   3.960 -1.2265  1.7986  0.5676
 1277THY    HM331923   6.187   8.015   4.036 -0.8895 -0.3291  1.4254
 1277THY    CA631924   6.267   8.255   4.014  1.0439  0.4867  0.6439
 1277THY    HA631925   6.308   8.217   4.107  2.0543  0.6506  0.2767
 1278THY      O31926   8.240   4.228   9.382 -0.3333 -0.2408  0.7727
 1278THY     HO31927   8.240   4.132   9.369 -3.7523 -0.0412 -2.0029
 1278THY    CA131928   8.330   4.264   9.478 -0.5294  0.2027  0.5987
 1278THY    CA231929   8.371   4.393   9.495  0.1032  0.5169 -0.3049
 1278THY    CP131930   8.321   4.505   9.407 -0.3671 -0.0948  0.6191
 1278THY    HP131931   8.318   4.464   9.306  0.2698 -0.8891  0.9041
 1278THY    CP231932   8.181   4.560   9.443 -0.6075  0.0377  0.4317
 1278THY    HP231933   8.184   4.615   9.538  1.2216 -1.0418  1.0619
 1278THY    HP331934   8.164   4.621   9.354  0.5767  1.2006  0.9689
 1278THY    HP431935   8.114   4.474   9.450  0.4420 -0.8402 -0.0248
 1278THY    CP331936   8.415   4.631   9.396 -0.2257  0.3411 -0.1906
 1278THY    HP531937   8.406   4.696   9.483  2.0424 -0.2885  0.5889
 1278THY    HP631938   8.519   4.600   9.381  0.1144  0.5891  1.4606
 1278THY    HP731939   8.381   4.689   9.310 -2.6590 -1.1005 -0.2949
 1278THY    CA331940   8.454   4.425   9.608  0.5108  0.2602  0.3168
 1278THY    HA331941   8.472   4.529   9.633  0.5134  0.7849 -1.6859
 1278THY    CA431942   8.500   4.315   9.685 -0.4836 -0.2098 -0.6029
 1278THY    HA431943   8.561   4.338   9.772 -1.1269  2.0716 -0.7049
 1278THY    CA531944   8.476   4.183   9.654  0.7335  1.1066 -0.1991
 1278THY    CM131945   8.537   4.070   9.729  0.6498 -0.4856 -0.0023
 1278THY    HM131946   8.564   4.107   9.829  1.0909 -0.3711 -0.1609
 1278THY    HM231947   8.480   3.977   9.740  2.0548 -1.2471  1.1837
 1278THY    HM331948   8.629   4.057   9.671  1.4976 -1.3811  1.4538
 1278THY    CA631949   8.391   4.157   9.549 -0.4074 -0.7502 -0.2856
 1278THY    HA631950   8.376   4.051   9.529 -1.1504 -0.8318  0.6750
 1279THY      O31951   8.043   5.022   4.782 -0.2904 -0.0288  0.2234
 1279THY     HO31952   8.077   5.033   4.691  2.7321  2.8261  1.5076
 1279THY    CA131953   7.947   4.933   4.774 -0.1643 -0.0369 -0.3863
 1279THY    CA231954   7.873   4.904   4.889 -0.6014  0.2466 -0.2243
 1279THY    CP131955   7.908   4.981   5.027 -0.1143  0.0187 -0.8687
 1279THY    HP131956   8.010   5.021   5.030 -0.1932  0.1632  0.7085
 1279THY    CP231957   7.828   5.103   5.045  0.1957 -0.5427  0.1373
 1279THY    HP231958   7.867   5.167   5.126  1.0565 -0.3917 -0.3927
 1279THY    HP331959   7.802   5.157   4.953 -0.0239 -2.7447 -1.1542
 1279THY    HP431960   7.726   5.069   5.068  0.8064 -1.6703  1.3489
 1279THY    CP331961   7.895   4.894   5.147  0.0281  0.4176 -0.2522
 1279THY    HP531962   7.963   4.809   5.135  0.5990  1.0684 -2.1109
 1279THY    HP631963   7.935   4.950   5.232 -0.4567 -0.3655  0.5012
 1279THY    HP731964   7.792   4.867   5.172  0.0759 -0.1339 -0.6278
 1279THY    CA331965   7.760   4.821   4.879  1.6273  0.0256  0.3193
 1279THY    HA331966   7.701   4.807   4.969 -0.1168  1.7859 -0.4584
 1279THY    CA431967   7.736   4.747   4.761 -0.1271 -0.5753  0.5021
 1279THY    HA431968   7.653   4.677   4.758 -0.1581 -0.5065 -0.4415
 1279THY    CA531969   7.807   4.779   4.643  0.1328 -0.4544  0.1632
 1279THY    CM131970   7.780   4.701   4.516 -0.5055 -0.5678 -0.4242
 1279THY    HM131971   7.686   4.734   4.469  0.4306  0.1508 -1.8697
 1279THY    HM231972   7.863   4.723   4.448  0.6925 -0.0964  1.1251
 1279THY    HM331973   7.785   4.592   4.521 -1.0693 -0.6424 -1.3237
 1279THY    CA631974   7.917   4.867   4.646 -0.2939 -0.9197 -0.4449
 1279THY    HA631975   7.985   4.863   4.561  0.8027 -1.0412  0.4030
 1280THY      O31976   1.560   6.535   4.177  0.7912 -0.3307 -0.1280
 1280THY     HO31977   1.514   6.608   4.221 -1.3886 -0.6128 -1.7477
 1280THY    CA131978   1.664   6.602   4.126 -0.2343 -0.5853  0.8635
 1280THY    CA231979   1.762   6.539   4.050 -0.0797  0.2444 -0.1861
 1280THY    CP131980   1.770   6.387   4.041  0.1359  0.1497  1.1548
 1280THY    HP131981   1.676   6.340   4.074  0.0198 -1.0970 -0.7778
 1280THY    CP231982   1.798   6.341   3.890  0.7425  0.4612 -0.1062
 1280THY    HP231983   1.904   6.325   3.867  0.1033 -1.1069 -2.3171
 1280THY    HP331984   1.764   6.238   3.870  1.8503  0.0971 -0.1524
 1280THY    HP431985   1.747   6.414   3.826 -1.0500  1.3215  2.1675
 1280THY    CP331986   1.880   6.319   4.130 -1.1511 -0.5220  0.2039
 1280THY    HP531987   1.865   6.211   4.123 -1.2882 -0.5347  0.6702
 1280THY    HP631988   1.982   6.349   4.103 -1.9900  1.6112 -0.8563
 1280THY    HP731989   1.866   6.354   4.233 -0.2188  3.1082 -0.7635
 1280THY    CA331990   1.864   6.614   3.986 -0.6714  0.1419  0.1004
 1280THY    HA331991   1.944   6.567   3.929 -1.8231  0.3796 -1.8078
 1280THY    CA431992   1.869   6.750   4.000  0.5754 -0.1287  0.2355
 1280THY    HA431993   1.947   6.810   3.954 -0.6803  0.6329 -0.9996
 1280THY    CA531994   1.776   6.812   4.091  0.2644 -0.7830  0.4762
 1280THY    CM131995   1.789   6.958   4.129  0.5465  0.0963  0.7882
 1280THY    HM131996   1.770   7.008   4.034  1.0635 -2.0885 -0.5214
 1280THY    HM231997   1.715   6.980   4.207  0.1450 -0.7632  0.6574
 1280THY    HM331998   1.887   6.985   4.170  0.4017  0.5152  0.8712
 1280THY    CA631999   1.675   6.737   4.148 -0.6502 -0.1170 -0.1213
 1280THY    HA632000   1.599   6.785   4.210 -0.1502 -0.0042  0.4084
 1281THY      O32001   3.172   6.155   0.866 -0.5091  0.0802  0.2100
 1281THY     HO32002   3.213   6.080   0.818 -1.1021  0.5904 -1.1428
 1281THY    CA132003   3.271   6.204   0.951  0.0707  0.7088 -0.5783
 1281THY    CA232004   3.244   6.330   1.015 -0.3554 -0.1458 -0.9841
 1281THY    CP132005   3.113   6.410   0.998  0.6194  0.0274 -0.0033
 1281THY    HP132006   3.041   6.355   0.936  2.1995 -1.3814 -0.6644
 1281THY    CP232007   3.048   6.452   1.135 -0.5625  0.2573  0.2673
 1281THY    HP232008   3.031   6.363   1.197 -0.8687  0.2633  0.1920
 1281THY    HP332009   3.121   6.520   1.181  1.2289 -2.0217  1.0365
 1281THY    HP432010   2.960   6.516   1.136 -1.0158 -0.3613  0.8927
 1281THY    CP332011   3.123   6.543   0.921 -0.3429 -0.4344  0.2506
 1281THY    HP532012   3.150   6.623   0.992 -0.2196  0.3916 -0.7129
 1281THY    HP632013   3.193   6.535   0.837  0.6516 -0.1761  1.0174
 1281THY    HP732014   3.024   6.565   0.881 -0.4725 -0.8287  0.3548
 1281THY    CA332015   3.345   6.378   1.097  0.1844  0.3356 -0.1017
 1281THY    HA332016   3.337   6.482   1.128 -1.1393 -0.4091  2.2526
 1281THY    CA432017   3.458   6.297   1.128  0.2626  0.8868 -0.5450
 1281THY    HA432018   3.544   6.335   1.183  1.8631  0.1447 -2.4217
 1281THY    CA532019   3.471   6.163   1.083 -0.0237  0.3361  0.6682
 1281THY    CM132020   3.585   6.075   1.100 -0.4778  0.0700 -0.3658
 1281THY    HM132021   3.629   6.036   1.007  0.9528  0.6896  0.0168
 1281THY    HM232022   3.667   6.128   1.151 -2.9811  3.3354  0.6501
 1281THY    HM332023   3.564   5.999   1.175 -0.4865  0.1380 -0.2990
 1281THY    CA632024   3.376   6.119   0.989  0.6565  0.7598  0.2658
 1281THY    HA632025   3.380   6.017   0.951 -1.4189  1.3180 -1.7248
 1282THY      O32026   6.327   5.062   7.548  0.3625 -0.4963  0.4749
 1282THY     HO32027   6.255   5.019   7.596 -1.9605  2.2568 -0.2684
 1282THY    CA132028   6.428   5.060   7.632 -0.9432 -0.1816 -0.0616
 1282THY    CA232029   6.547   5.134   7.609 -0.0986 -0.5676 -0.0638
 1282THY    CP132030   6.580   5.192   7.471 -0.7507  0.3593 -0.0340
 1282THY    HP132031   6.500   5.169   7.399  1.9807  1.4015 -3.7224
 1282THY    CP232032   6.610   5.337   7.466 -0.0663  0.4739  0.1342
 1282THY    HP232033   6.701   5.377   7.513 -0.4312 -0.1435  1.4057
 1282THY    HP332034   6.604   5.363   7.360  0.6724  2.4506  0.5251
 1282THY    HP432035   6.524   5.379   7.521  0.6045  1.0681  0.7519
 1282THY    CP332036   6.706   5.131   7.412 -0.7968  0.1615 -0.0972
 1282THY    HP532037   6.710   5.028   7.448  2.1132  0.2648  0.0999
 1282THY    HP632038   6.701   5.137   7.303 -0.6281  0.3864 -0.0931
 1282THY    HP732039   6.794   5.182   7.451 -1.0899 -0.1230  0.9797
 1282THY    CA332040   6.647   5.131   7.705  0.6854 -0.0920  0.9684
 1282THY    HA332041   6.745   5.174   7.689 -0.1338  1.0991 -1.3761
 1282THY    CA432042   6.637   5.068   7.830 -0.6362 -0.1535  0.9487
 1282THY    HA432043   6.716   5.068   7.904 -0.3058  0.7497  0.6121
 1282THY    CA532044   6.521   4.992   7.852 -0.0635 -0.4164 -0.3052
 1282THY    CM132045   6.506   4.904   7.974 -0.7787  0.1217 -0.1521
 1282THY    HM132046   6.403   4.871   7.994  0.0726 -1.1217  2.7729
 1282THY    HM232047   6.568   4.814   7.961 -0.3209 -0.1250  2.9559
 1282THY    HM332048   6.541   4.941   8.071 -0.1367 -2.7841  0.8335
 1282THY    CA632049   6.422   4.986   7.753  0.1627  0.0570 -0.1415
 1282THY    HA632050   6.338   4.919   7.773  1.4045 -1.4245  0.3236
 1283THY      O32051   1.494   9.248   2.957  0.4636 -0.5415 -0.4847
 1283THY     HO32052   1.455   9.303   2.888 -0.3018  1.5045  1.4382
 1283THY    CA132053   1.411   9.264   3.067  0.4360  0.0517  0.2440
 1283THY    CA232054   1.452   9.226   3.194  0.0167  0.3975 -0.1146
 1283THY    CP132055   1.600   9.196   3.210  0.4223  0.3259 -0.6102
 1283THY    HP132056   1.628   9.110   3.147  1.1663 -0.5373  0.8446
 1283THY    CP232057   1.695   9.310   3.161  0.0568 -0.1289  0.0755
 1283THY    HP232058   1.676   9.398   3.224  2.3099 -0.2164  0.9822
 1283THY    HP332059   1.795   9.275   3.190  0.0320 -0.1622  0.1234
 1283THY    HP432060   1.693   9.336   3.055 -0.8084  1.1706  0.3933
 1283THY    CP332061   1.643   9.157   3.347  0.5913 -0.7020  0.6503
 1283THY    HP532062   1.752   9.145   3.356  0.6937  0.6460  1.5058
 1283THY    HP632063   1.612   9.221   3.430 -0.8876 -0.1222 -0.2996
 1283THY    HP732064   1.595   9.060   3.365 -0.0837 -0.3004  1.0631
 1283THY    CA332065   1.362   9.246   3.303 -0.3458  0.5138 -0.6058
 1283THY    HA332066   1.389   9.211   3.402 -2.7986 -0.5109 -0.2164
 1283THY    CA432067   1.239   9.300   3.280 -0.2199 -1.1551  0.5161
 1283THY    HA432068   1.170   9.312   3.363 -0.8669  0.2025 -0.1791
 1283THY    CA532069   1.196   9.338   3.149  0.3130 -0.0629  0.2994
 1283THY    CM132070   1.057   9.397   3.118 -0.4836 -0.1351  0.0591
 1283THY    HM132071   1.077   9.481   3.049  2.5411 -1.4639 -0.8541
 1283THY    HM232072   0.997   9.321   3.069 -0.1991 -0.6393  0.4808
 1283THY    HM332073   1.015   9.434   3.212  0.5347  1.8394 -0.1938
 1283THY    CA632074   1.287   9.319   3.043  0.2836 -0.0969 -0.0878
 1283THY    HA632075   1.258   9.348   2.942  1.9979  0.4341 -0.4609
 1284THY      O32076   7.021   5.501   2.917 -0.3755  0.2272 -0.4339
 1284THY     HO32077   7.069   5.584   2.933  0.2056  0.0901 -1.3671
 1284THY    CA132078   7.076   5.445   2.803 -0.6214 -0.1985 -0.2314
 1284THY    CA232079   7.052   5.311   2.759  0.1618  0.3699 -0.5875
 1284THY    CP132080   6.971   5.200   2.844  0.5395  0.0072 -0.0311
 1284THY    HP132081   6.951   5.240   2.944  1.4901 -0.2963  0.2852
 1284THY    CP232082   6.834   5.196   2.797 -0.2999 -0.4107  0.1584
 1284THY    HP232083   6.836   5.161   2.693 -0.9872 -0.4818  0.1643
 1284THY    HP332084   6.773   5.128   2.857 -0.5581 -1.2198 -0.9835
 1284THY    HP432085   6.800   5.300   2.807  0.1946 -0.2029 -0.2452
 1284THY    CP332086   7.035   5.066   2.870 -0.5291  0.2647 -0.3660
 1284THY    HP532087   7.125   5.080   2.931  0.1223 -3.2180 -0.3236
 1284THY    HP632088   6.970   5.008   2.936 -0.4773  2.5513  1.8455
 1284THY    HP732089   7.066   5.009   2.781 -0.1078 -0.7189  0.4030
 1284THY    CA332090   7.099   5.267   2.635 -0.4078 -0.1264  0.2256
 1284THY    HA332091   7.083   5.166   2.600  2.5101 -0.4057 -0.5561
 1284THY    CA432092   7.162   5.359   2.554  0.6520 -0.3060 -0.5155
 1284THY    HA432093   7.213   5.327   2.464 -1.4598 -0.1479 -1.8364
 1284THY    CA532094   7.188   5.491   2.595  0.1756 -0.3884  0.6476
 1284THY    CM132095   7.250   5.602   2.516 -0.6481  0.2284  0.6091
 1284THY    HM132096   7.175   5.682   2.520 -0.3079  0.5092  1.8080
 1284THY    HM232097   7.338   5.652   2.559 -1.4192  1.0224  1.3095
 1284THY    HM332098   7.264   5.565   2.414 -0.6834  1.7805  0.0080
 1284THY    CA632099   7.138   5.532   2.716 -0.6436 -0.7518 -0.0263
 1284THY    HA632100   7.156   5.635   2.747  0.1452 -1.3763  1.7030
 1285THY      O32101   6.709   0.328   8.958  0.6042 -0.2441 -0.2657
 1285THY     HO32102   6.720   0.378   9.042 -0.1780  1.1908 -0.9830
 1285THY    CA132103   6.753   0.204   8.972  1.2456  0.8031 -0.0642
 1285THY    CA232104   6.772   0.122   8.861 -0.1822  0.4596 -0.2563
 1285THY    CP132105   6.725   0.172   8.726 -0.5340  0.3388 -0.2135
 1285THY    HP132106   6.635   0.232   8.740 -0.1086  0.6827  1.1389
 1285THY    CP232107   6.836   0.257   8.652 -0.0623 -0.8067 -0.0292
 1285THY    HP232108   6.925   0.193   8.646  0.3164 -0.1812 -1.7390
 1285THY    HP332109   6.801   0.273   8.549  0.2419 -0.5492 -0.0962
 1285THY    HP432110   6.849   0.359   8.690  0.3532 -1.7666  2.6121
 1285THY    CP332111   6.682   0.052   8.634 -0.4163 -0.2289  0.3124
 1285THY    HP532112   6.610  -0.018   8.677  0.0285  0.3719  2.1508
 1285THY    HP632113   6.632   0.094   8.546  2.0827  1.6631 -0.3537
 1285THY    HP732114   6.768   0.001   8.588 -1.4855 -3.2452  1.4460
 1285THY    CA332115   6.820  -0.008   8.884  0.4798  0.1888  0.7636
 1285THY    HA332116   6.835  -0.075   8.800 -0.5893  0.1039  0.6247
 1285THY    CA432117   6.860  -0.049   9.013  0.4189  0.2848 -0.2703
 1285THY    HA432118   6.901  -0.149   9.021 -1.6139 -0.6684 -0.8842
 1285THY    CA532119   6.845   0.045   9.122  0.1919 -0.3085  0.0299
 1285THY    CM132120   6.902   0.003   9.256  0.1582 -0.7353 -0.1321
 1285THY    HM132121   6.878   0.071   9.338  1.9149  0.2322 -0.3669
 1285THY    HM232122   6.875  -0.099   9.283 -1.3941 -0.7224 -1.4931
 1285THY    HM332123   7.011   0.014   9.247  0.1361  1.4336  1.3513
 1285THY    CA632124   6.795   0.168   9.097 -0.3668 -0.0478 -0.1903
 1285THY    HA632125   6.795   0.240   9.178 -0.1417  0.9571 -1.0590
 1286THY      O32126   7.006   2.547   9.006 -0.0617 -0.1173 -0.2905
 1286THY     HO32127   7.030   2.515   9.095 -0.6359 -1.6249 -0.6489
 1286THY    CA132128   6.933   2.449   8.964  0.0221  0.3159  0.1366
 1286THY    CA232129   6.945   2.413   8.829  0.7781  0.1864  0.2035
 1286THY    CP132130   7.028   2.481   8.722  0.4112  0.4031  0.2966
 1286THY    HP132131   7.075   2.571   8.763  1.9194  0.4138 -1.3000
 1286THY    CP232132   7.148   2.392   8.681 -0.1599  0.2319  0.4316
 1286THY    HP232133   7.119   2.294   8.643  1.0019  0.6170 -1.6500
 1286THY    HP332134   7.210   2.444   8.606 -0.4636 -0.3242 -0.2155
 1286THY    HP432135   7.202   2.365   8.772  0.2582 -1.9128 -0.3983
 1286THY    CP332136   6.963   2.523   8.593  0.4327 -0.9673  0.4647
 1286THY    HP532137   6.865   2.564   8.617 -0.3787 -2.9827  0.7686
 1286THY    HP632138   7.019   2.607   8.549 -2.2139 -0.4917 -2.3135
 1286THY    HP732139   6.949   2.447   8.515  0.1084 -0.5168  0.0737
 1286THY    CA332140   6.879   2.299   8.787  0.3969 -0.8089  0.3427
 1286THY    HA332141   6.874   2.275   8.681 -1.0852 -0.2954  0.2680
 1286THY    CA432142   6.811   2.228   8.877  0.5535 -0.4579  0.0728
 1286THY    HA432143   6.755   2.143   8.838  1.1875 -0.8930  0.0954
 1286THY    CA532144   6.789   2.263   9.009  0.1698 -0.4693 -0.2659
 1286THY    CM132145   6.685   2.199   9.089 -0.5525 -0.2446  0.9674
 1286THY    HM132146   6.714   2.093   9.092 -1.5319 -0.6262 -1.1999
 1286THY    HM232147   6.678   2.236   9.192 -0.0097  0.9737  0.5887
 1286THY    HM332148   6.590   2.222   9.040 -0.2093  1.5386  1.0697
 1286THY    CA632149   6.860   2.376   9.051  0.3612  0.7812  0.8925
 1286THY    HA632150   6.850   2.412   9.153 -0.0447  2.4586  0.2960
 1287THY      O32151   0.534   8.300   7.198  0.0012 -0.6192 -0.2221
 1287THY     HO32152   0.437   8.304   7.188 -0.1313 -1.8341  0.4757
 1287THY    CA132153   0.564   8.199   7.274  0.1437  0.3800 -0.3797
 1287THY    CA232154   0.697   8.144   7.294  0.2173  0.6611  0.0004
 1287THY    CP132155   0.821   8.229   7.248  0.0047 -0.0653 -0.2892
 1287THY    HP132156   0.794   8.297   7.166  0.7566  1.8889  1.0183
 1287THY    CP232157   0.872   8.317   7.364 -0.3517  0.8548  0.9061
 1287THY    HP232158   0.910   8.248   7.441  2.2717  0.2191 -0.7978
 1287THY    HP332159   0.953   8.381   7.328  0.4359 -0.9139 -0.6816
 1287THY    HP432160   0.796   8.391   7.390  0.6443  3.4269 -2.7789
 1287THY    CP332161   0.928   8.131   7.190 -0.5421  0.1813 -0.6947
 1287THY    HP532162   0.893   8.062   7.112 -1.0327 -0.3598 -0.0133
 1287THY    HP632163   1.019   8.174   7.147  1.0860 -2.1802  0.1374
 1287THY    HP732164   0.950   8.067   7.276 -0.3304  0.2623 -0.6896
 1287THY    CA332165   0.706   8.022   7.373 -0.2562 -0.1257  0.1116
 1287THY    HA332166   0.806   7.984   7.391 -0.1578  0.3809  0.6596
 1287THY    CA432167   0.592   7.951   7.407  0.1552  0.6546  0.2321
 1287THY    HA432168   0.601   7.852   7.450  2.1921  0.8487  0.3766
 1287THY    CA532169   0.464   8.007   7.387 -0.4772  0.1964  0.2452
 1287THY    CM132170   0.348   7.936   7.443  0.8166 -0.2400 -0.1145
 1287THY    HM132171   0.293   7.998   7.515  1.9915 -0.8516  1.3480
 1287THY    HM232172   0.284   7.919   7.355  0.4917 -2.0017  0.4335
 1287THY    HM332173   0.369   7.839   7.489 -1.3073  0.1788  1.9325
 1287THY    CA632174   0.450   8.127   7.320 -0.7488 -0.5800 -0.3322
 1287THY    HA632175   0.355   8.178   7.308 -0.3313  0.4184  0.4726
 1288THY      O32176   9.371   2.008   7.468 -0.5362  0.2601  0.1630
 1288THY     HO32177   9.445   2.045   7.520 -0.5128  0.7595 -0.2174
 1288THY    CA132178   9.411   2.031   7.344 -0.2254 -0.4473  0.2652
 1288THY    CA232179   9.354   1.955   7.243 -0.2077  0.1189 -0.1435
 1288THY    CP132180   9.253   1.837   7.272 -0.8003 -0.0525 -0.7034
 1288THY    HP132181   9.257   1.815   7.379  3.0163  1.5627 -0.3330
 1288THY    CP232182   9.107   1.883   7.248 -0.5919  0.7059  0.2731
 1288THY    HP232183   9.078   1.960   7.321  0.2925  0.8273  0.5150
 1288THY    HP332184   9.095   1.933   7.152 -0.6989  1.4261  0.6488
 1288THY    HP432185   9.040   1.797   7.249 -0.5891  0.7003  1.4029
 1288THY    CP332186   9.290   1.701   7.192  0.1535  0.0252 -0.8192
 1288THY    HP532187   9.220   1.625   7.227  0.1480  0.5750  0.4231
 1288THY    HP632188   9.276   1.707   7.083 -0.6317  1.6050 -0.6545
 1288THY    HP732189   9.389   1.670   7.227  0.2893  0.8527 -0.4501
 1288THY    CA332190   9.410   1.973   7.113  0.0071  0.3172  0.3508
 1288THY    HA332191   9.388   1.914   7.025  3.1632  0.3866 -0.6180
 1288THY    CA432192   9.508   2.070   7.087 -0.4995  0.1192  0.1218
 1288THY    HA432193   9.541   2.077   6.984  1.1969  1.1990  0.6948
 1288THY    CA532194   9.562   2.146   7.192 -0.7762 -0.4308  0.1829
 1288THY    CM132195   9.690   2.230   7.178  0.1075 -0.3224  0.1645
 1288THY    HM132196   9.698   2.327   7.228  0.6000  0.6716 -1.7378
 1288THY    HM232197   9.775   2.175   7.220 -0.8465  0.3881  3.2262
 1288THY    HM332198   9.721   2.243   7.073 -2.1245 -2.8509 -0.9372
 1288THY    CA632199   9.510   2.128   7.328 -0.4521 -0.8930  1.3294
 1288THY    HA632200   9.555   2.183   7.410 -2.1742  0.5488  1.3539
 1289THY      O32201   7.583   4.771   5.880  0.4225 -0.5380 -0.0617
 1289THY     HO32202   7.577   4.868   5.868 -1.7998 -0.7516 -1.2174
 1289THY    CA132203   7.714   4.735   5.881 -0.6026  0.0720 -0.9414
 1289THY    CA232204   7.749   4.604   5.865 -0.6537  0.7582 -0.0458
 1289THY    CP132205   7.642   4.493   5.854 -0.6488  0.0355  0.7762
 1289THY    HP132206   7.540   4.535   5.852 -0.3791  1.0504 -3.8437
 1289THY    CP232207   7.663   4.410   5.727  0.3639  1.0007 -0.7431
 1289THY    HP232208   7.655   4.457   5.628 -4.2421 -0.7472 -1.4522
 1289THY    HP332209   7.756   4.353   5.726  0.4491  0.8561  2.8119
 1289THY    HP432210   7.594   4.326   5.716 -0.1828  1.4134 -0.5070
 1289THY    CP332211   7.654   4.409   5.976  0.4384  0.2357 -0.1048
 1289THY    HP532212   7.752   4.359   5.977  0.7786  0.7558 -2.3411
 1289THY    HP632213   7.625   4.469   6.063 -0.6900  0.2696 -0.4851
 1289THY    HP732214   7.573   4.336   5.967  0.2701  0.5274 -1.0656
 1289THY    CA332215   7.889   4.576   5.845 -0.5795 -0.0309  0.0097
 1289THY    HA332216   7.922   4.472   5.845  2.6743  0.8094  3.0111
 1289THY    CA432217   7.983   4.679   5.845 -0.2306 -0.7113  0.2141
 1289THY    HA432218   8.089   4.657   5.839 -0.2396 -0.9168  0.7561
 1289THY    CA532219   7.942   4.812   5.869 -0.8175  0.2372  0.0824
 1289THY    CM132220   8.043   4.922   5.878 -0.3226  0.1535  0.5808
 1289THY    HM132221   8.002   4.993   5.951 -2.5178 -0.4197 -0.0233
 1289THY    HM232222   8.139   4.875   5.904  0.0546 -0.5323 -1.8575
 1289THY    HM332223   8.048   4.967   5.778  3.6320 -1.9794 -0.3873
 1289THY    CA632224   7.804   4.837   5.877 -0.5616  0.9228 -0.0037
 1289THY    HA632225   7.774   4.936   5.909 -1.0400  0.3731  1.3045
 1290THY      O32226   8.456   9.085   1.498 -0.0071 -0.5594 -0.4611
 1290THY     HO32227   8.378   9.029   1.481  0.0236 -0.2333 -1.8345
 1290THY    CA132228   8.405   9.205   1.454  0.0309  0.0638  0.3710
 1290THY    CA232229   8.467   9.332   1.477  0.0882  0.0673 -0.1141
 1290THY    CP132230   8.591   9.349   1.564 -0.1127 -0.3134 -0.0525
 1290THY    HP132231   8.609   9.258   1.623 -2.0922 -2.1774 -2.0848
 1290THY    CP232232   8.709   9.374   1.475 -0.4990 -0.5769  0.3876
 1290THY    HP232233   8.704   9.480   1.447  3.0299  0.3630  2.6642
 1290THY    HP332234   8.805   9.368   1.526 -0.2916  0.8846  0.2136
 1290THY    HP432235   8.708   9.297   1.396  1.7113 -1.8743  1.5239
 1290THY    CP332236   8.580   9.461   1.666  0.0447  0.5764  1.1424
 1290THY    HP532237   8.671   9.466   1.727 -1.0428  0.4575  2.8329
 1290THY    HP632238   8.561   9.557   1.618 -0.8913  0.5649  1.4844
 1290THY    HP732239   8.490   9.442   1.725 -0.9344 -0.2413 -0.5438
 1290THY    CA332240   8.411   9.439   1.415  0.1257 -0.2963  0.7633
 1290THY    HA332241   8.457   9.538   1.423 -2.0061  0.7511  0.7409
 1290THY    CA432242   8.309   9.428   1.322  0.4538 -0.7117 -1.6186
 1290THY    HA432243   8.264   9.515   1.276  2.0768  1.9415  1.4230
 1290THY    CA532244   8.248   9.305   1.300 -0.0848  0.3250 -0.2480
 1290THY    CM132245   8.130   9.305   1.214 -0.3113  0.0146 -0.5554
 1290THY    HM132246   8.116   9.207   1.166  0.9835 -0.7292  0.5255
 1290THY    HM232247   8.037   9.323   1.269 -0.1240 -1.0506  0.1288
 1290THY    HM332248   8.140   9.381   1.135  0.3002  1.1482  0.5800
 1290THY    CA632249   8.296   9.190   1.368 -0.2880 -0.0767  0.4496
 1290THY    HA632250   8.246   9.096   1.347  0.0719 -0.1945  0.1288
 1291THY      O32251   3.235   7.000   6.775  0.3101 -0.0327  0.3440
 1291THY     HO32252   3.273   6.922   6.819  0.7334 -0.9074 -1.4868
 1291THY    CA132253   3.170   6.951   6.668 -0.0102  0.5659 -0.0439
 1291THY    CA232254   3.048   6.990   6.627  0.4326 -0.5219  0.5390
 1291THY    CP132255   2.970   7.102   6.705  0.3321 -0.2222 -0.8731
 1291THY    HP132256   3.029   7.159   6.777 -1.8303  1.2728 -0.1989
 1291THY    CP232257   2.938   7.210   6.608 -0.9406  0.3653  0.8042
 1291THY    HP232258   2.853   7.191   6.541  1.5125 -1.1968 -2.0907
 1291THY    HP332259   2.926   7.307   6.660 -0.3781  0.4365  0.8076
 1291THY    HP432260   3.028   7.233   6.550 -1.3585 -0.3875 -0.1751
 1291THY    CP332261   2.850   7.035   6.789  0.0672 -0.5896 -0.3232
 1291THY    HP532262   2.881   6.934   6.818 -0.2230 -0.6957 -0.3762
 1291THY    HP632263   2.812   7.092   6.874  2.5300  0.8244 -0.0830
 1291THY    HP732264   2.758   7.035   6.730  0.9162  1.6414 -1.7875
 1291THY    CA332265   2.994   6.942   6.502 -0.0746 -0.3971  0.0454
 1291THY    HA332266   2.895   6.976   6.473 -1.0898 -4.5242 -2.1252
 1291THY    CA432267   3.053   6.842   6.429  0.1601 -0.0581  0.5931
 1291THY    HA432268   2.996   6.794   6.350 -0.6681 -1.4280  1.9571
 1291THY    CA532269   3.175   6.798   6.482  0.4312 -0.1706  0.8382
 1291THY    CM132270   3.235   6.683   6.417 -0.8769  0.5912 -0.7566
 1291THY    HM132271   3.222   6.697   6.309 -0.7708 -0.1586 -0.8708
 1291THY    HM232272   3.343   6.671   6.431 -0.9462 -2.1589 -1.9852
 1291THY    HM332273   3.177   6.598   6.456 -0.6888  0.7238 -0.1698
 1291THY    CA632274   3.234   6.852   6.598 -0.1848  0.0737 -0.0221
 1291THY    HA632275   3.319   6.807   6.647 -1.5942  1.0970  3.7014
 1292THY      O32276   3.063   6.247   2.823 -0.2740 -1.1283  0.7214
 1292THY     HO32277   3.012   6.306   2.881  1.2605  0.4926  0.5005
 1292THY    CA132278   2.985   6.200   2.717 -0.3940  0.3749 -0.3033
 1292THY    CA232279   3.041   6.155   2.594 -0.3004  0.3559 -0.6214
 1292THY    CP132280   3.187   6.168   2.575 -0.9361 -0.1349  0.3950
 1292THY    HP132281   3.223   6.264   2.614  0.0277 -0.6948  0.9204
 1292THY    CP232282   3.264   6.063   2.662  0.0359  0.1077 -0.9766
 1292THY    HP232283   3.212   5.968   2.645  0.8056  0.0686 -3.4645
 1292THY    HP332284   3.369   6.060   2.632  0.4874  2.2164  0.2101
 1292THY    HP432285   3.259   6.091   2.768  1.4766 -1.5381 -0.4299
 1292THY    CP332286   3.237   6.154   2.424 -0.1330  0.0167  0.0001
 1292THY    HP532287   3.192   6.221   2.350  0.6412 -0.2485 -0.7278
 1292THY    HP632288   3.342   6.184   2.415  0.1887 -0.7934  0.8774
 1292THY    HP732289   3.219   6.051   2.391  1.0578  0.5096 -2.4185
 1292THY    CA332290   2.957   6.094   2.497 -0.3591 -0.3437  0.0645
 1292THY    HA332291   2.994   6.050   2.405 -0.9650 -0.3939 -0.1594
 1292THY    CA432292   2.822   6.093   2.516  0.3587 -0.1965 -0.3559
 1292THY    HA432293   2.750   6.057   2.443 -2.2890  2.2699  0.8770
 1292THY    CA532294   2.768   6.136   2.635 -0.0107  0.0319 -0.8822
 1292THY    CM132295   2.622   6.135   2.659 -0.2640  0.2130  0.1336
 1292THY    HM132296   2.574   6.232   2.640 -0.6807 -0.2850 -1.5041
 1292THY    HM232297   2.566   6.062   2.600 -0.6227  2.0068 -1.8546
 1292THY    HM332298   2.611   6.086   2.756  0.7985 -1.8570 -0.7254
 1292THY    CA632299   2.851   6.189   2.744  0.6419 -0.2530 -0.5258
 1292THY    HA632300   2.813   6.213   2.842 -1.3419 -1.8502 -0.8300
 1293THY      O32301   9.045   0.191   4.813  0.2754  0.3523 -0.3542
 1293THY     HO32302   8.965   0.212   4.761  0.5234 -1.7242 -1.6640
 1293THY    CA132303   9.032   0.248   4.934 -0.2248 -0.1259 -0.0301
 1293THY    CA232304   9.033   0.166   5.058  0.2784 -0.7224  0.7913
 1293THY    CP132305   9.054   0.013   5.045  0.0840 -0.1836 -0.0863
 1293THY    HP132306   9.033  -0.026   4.944  0.8711  0.3219 -0.4585
 1293THY    CP232307   9.194  -0.021   5.075 -0.1577 -0.1178  0.5461
 1293THY    HP232308   9.254   0.058   5.028 -1.1775  0.0008 -0.6104
 1293THY    HP332309   9.222  -0.009   5.181  0.1254  1.8741  0.2727
 1293THY    HP432310   9.204  -0.124   5.040 -5.0385 -0.2316 -1.3311
 1293THY    CP332311   8.972  -0.071   5.146  0.4393  0.1856  0.2539
 1293THY    HP532312   9.009  -0.065   5.249 -0.1315 -0.6849  0.5221
 1293THY    HP632313   8.866  -0.044   5.141  0.9470  2.0729 -1.2943
 1293THY    HP732314   8.972  -0.179   5.129 -1.1383  0.3208 -0.7542
 1293THY    CA332315   9.013   0.230   5.182 -0.2884  0.8420  0.7648
 1293THY    HA332316   9.017   0.173   5.275  3.4516  0.7690  0.6881
 1293THY    CA432317   8.986   0.364   5.184  0.7090  0.3028  0.6592
 1293THY    HA432318   8.975   0.409   5.282  0.6916  0.2827  0.6664
 1293THY    CA532319   8.985   0.446   5.065  0.2864  0.7997  0.0956
 1293THY    CM132320   8.958   0.590   5.072  0.3284 -0.5418  0.4468
 1293THY    HM132321   8.992   0.647   4.985 -1.5007 -0.0844 -0.0116
 1293THY    HM232322   8.851   0.614   5.066  0.7610  1.1706 -1.6608
 1293THY    HM332323   8.982   0.643   5.165 -0.3557  1.9882 -0.7221
 1293THY    CA632324   9.001   0.383   4.942 -0.6089  0.1202 -0.3994
 1293THY    HA632325   8.995   0.442   4.851  0.7236  0.6216 -0.1806
 1294THY      O32326   9.290   0.064   9.933 -0.1228 -0.0920 -0.0476
 1294THY     HO32327   9.222   0.131   9.916  0.4692  0.5604  0.0907
 1294THY    CA132328   9.241  -0.051   9.980  0.7228  0.0105 -0.0482
 1294THY    CA232329   9.315  -0.126  10.076  0.1585 -0.0464  0.3465
 1294THY    CP132330   9.449  -0.070  10.126 -0.1448  0.4282  0.2200
 1294THY    HP132331   9.482   0.019  10.070 -0.4218  1.2073  1.2589
 1294THY    CP232332   9.449  -0.014  10.275  0.5876 -0.3455  0.1471
 1294THY    HP232333   9.427  -0.095  10.346 -2.6613  0.9144  0.7241
 1294THY    HP332334   9.549   0.025  10.301  0.4180 -0.2594  0.6803
 1294THY    HP432335   9.375   0.062  10.303  1.0893 -0.4846  1.9982
 1294THY    CP332336   9.556  -0.176  10.094 -0.3974  0.3803  0.2092
 1294THY    HP532337   9.554  -0.202   9.988  3.9882  0.3776 -0.0627
 1294THY    HP632338   9.659  -0.144  10.114 -0.7816  0.9857  1.3536
 1294THY    HP732339   9.531  -0.263  10.155 -1.0953 -0.2607 -0.9552
 1294THY    CA332340   9.255  -0.244  10.124  0.0555 -0.0349  0.1185
 1294THY    HA332341   9.309  -0.304  10.196  3.3262  1.5422 -0.8209
 1294THY    CA432342   9.139  -0.290  10.063 -0.3532  0.0706 -0.2061
 1294THY    HA432343   9.094  -0.385  10.089  0.6868 -0.2244  0.5576
 1294THY    CA532344   9.064  -0.214   9.972  0.5039 -0.2875 -0.8601
 1294THY    CM132345   8.944  -0.276   9.898  0.4621 -0.5931 -0.3303
 1294THY    HM132346   8.955  -0.384   9.908  0.0629 -0.6633 -0.6022
 1294THY    HM232347   8.844  -0.253   9.938 -0.1504 -2.4394 -0.7083
 1294THY    HM332348   8.945  -0.244   9.793  0.5359  3.9325  0.8303
 1294THY    CA632349   9.110  -0.090   9.933 -0.2343 -0.0291 -0.0680
 1294THY    HA632350   9.056  -0.033   9.858  1.1057  2.0700  0.4750
 1295THY      O32351   8.236   3.711   7.971  0.1287 -0.1880  0.5534
 1295THY     HO32352   8.156   3.686   8.020 -1.2191 -0.6921 -1.7533
 1295THY    CA132353   8.308   3.598   7.947 -0.4136  0.4765 -0.3717
 1295THY    CA232354   8.387   3.589   7.831  1.3072 -0.2902  0.4233
 1295THY    CP132355   8.398   3.702   7.734 -0.0383 -0.2518  0.5114
 1295THY    HP132356   8.361   3.793   7.782 -1.5954 -0.2104 -0.6632
 1295THY    CP232357   8.546   3.724   7.699  0.0975  0.4732  0.1944
 1295THY    HP232358   8.599   3.729   7.795 -0.3471 -1.2341  0.5585
 1295THY    HP332359   8.589   3.640   7.644 -2.2763 -1.1753  0.6862
 1295THY    HP432360   8.562   3.818   7.645 -0.2993 -0.1908 -1.1167
 1295THY    CP332361   8.321   3.680   7.603  0.3877 -0.8654  0.2637
 1295THY    HP532362   8.219   3.652   7.629  0.9168 -3.4870 -0.1963
 1295THY    HP632363   8.312   3.761   7.530  0.7107  0.2999  1.4743
 1295THY    HP732364   8.349   3.591   7.545 -1.1931 -0.3036 -1.4609
 1295THY    CA332365   8.452   3.461   7.802 -0.2109 -0.5406  0.4584
 1295THY    HA332366   8.519   3.455   7.717  1.9047  2.8711  1.6490
 1295THY    CA432367   8.425   3.350   7.888 -0.1642 -0.4649 -0.3516
 1295THY    HA432368   8.470   3.255   7.860 -0.2546 -0.4180 -0.6584
 1295THY    CA532369   8.352   3.371   8.005 -0.1431 -0.0621  0.2380
 1295THY    CM132370   8.327   3.252   8.099  0.4438  0.8075 -0.2166
 1295THY    HM132371   8.264   3.180   8.045  0.2973  0.7233  0.0660
 1295THY    HM232372   8.418   3.203   8.136 -0.0159  0.2588  0.2136
 1295THY    HM332373   8.275   3.287   8.188 -0.3990  2.5208 -1.3423
 1295THY    CA632374   8.294   3.495   8.036  0.6443 -0.0678 -0.3574
 1295THY    HA632375   8.235   3.514   8.125 -2.0691 -0.4028 -1.9690
 1296THY      O32376   8.427   6.076   8.582 -0.4677  0.4359  0.4681
 1296THY     HO32377   8.392   5.986   8.568  1.4040 -0.6608  2.1326
 1296THY    CA132378   8.376   6.115   8.702  0.5245  0.1979  0.3105
 1296THY    CA232379   8.448   6.213   8.775 -0.1737  0.4406 -0.7703
 1296THY    CP132380   8.586   6.266   8.748  0.4106 -0.3290  0.5211
 1296THY    HP132381   8.606   6.227   8.648 -2.4209 -1.0329  0.1675
 1296THY    CP232382   8.595   6.420   8.727  0.6053 -0.0257 -0.7164
 1296THY    HP232383   8.512   6.462   8.671  1.4523  2.1517 -0.4305
 1296THY    HP332384   8.587   6.459   8.829  0.6707 -1.4073 -0.1604
 1296THY    HP432385   8.687   6.455   8.679  1.8885  0.7478  2.0745
 1296THY    CP332386   8.697   6.230   8.851  0.4364  0.1390  0.2601
 1296THY    HP532387   8.793   6.269   8.815 -0.6156  2.5953 -0.1092
 1296THY    HP632388   8.681   6.270   8.952 -2.3666 -3.8193  1.6341
 1296THY    HP732389   8.719   6.123   8.850  0.7022  0.0979  3.2428
 1296THY    CA332390   8.389   6.262   8.893 -1.1508  0.1216 -0.1196
 1296THY    HA332391   8.431   6.342   8.952  1.4040 -1.2980  0.1282
 1296THY    CA432392   8.264   6.216   8.928  0.1080 -0.1970  0.2227
 1296THY    HA432393   8.219   6.260   9.017  0.7758  0.9285  0.0315
 1296THY    CA532394   8.194   6.130   8.854  0.4135  0.3113 -0.4760
 1296THY    CM132395   8.054   6.080   8.891  0.5231  0.0553 -0.1226
 1296THY    HM132396   8.018   6.120   8.987  1.3245 -1.4110  0.8231
 1296THY    HM232397   7.994   6.115   8.806  0.1514  0.1914  0.1917
 1296THY    HM332398   8.045   5.971   8.889 -0.7437  0.1463 -2.3752
 1296THY    CA632399   8.249   6.078   8.740 -0.5209 -0.0743 -0.7547
 1296THY    HA632400   8.201   6.009   8.671  0.9131 -0.1581 -1.7205
 1297THY      O32401   9.022   6.838   6.391  0.0592 -0.0815 -0.1550
 1297THY     HO32402   9.071   6.853   6.308  0.3567  0.3548  0.0945
 1297THY    CA132403   9.091   6.753   6.467  0.4167 -0.1533 -0.3090
 1297THY    CA232404   9.033   6.695   6.583  0.2596 -0.2065  0.1434
 1297THY    CP132405   8.887   6.733   6.618  0.2350  0.2500 -0.0866
 1297THY    HP132406   8.842   6.798   6.541 -3.0334  0.4892  1.8261
 1297THY    CP232407   8.790   6.608   6.636 -0.6079  0.0312  0.8849
 1297THY    HP232408   8.787   6.553   6.541 -0.9164  1.2219  0.1956
 1297THY    HP332409   8.818   6.534   6.712 -0.2322 -1.8246 -0.9779
 1297THY    HP432410   8.686   6.642   6.644 -0.0383  1.5962  2.1255
 1297THY    CP332411   8.881   6.820   6.753  1.0709 -0.0259 -0.4812
 1297THY    HP532412   8.868   6.761   6.845  0.1696  3.5321  1.8814
 1297THY    HP632413   8.970   6.883   6.759  0.4392  1.1747 -2.6169
 1297THY    HP732414   8.793   6.885   6.744  1.6043  1.0089  1.2712
 1297THY    CA332415   9.098   6.603   6.660  0.4001 -0.2266  0.0720
 1297THY    HA332416   9.054   6.575   6.756  0.6803  0.6422  0.4614
 1297THY    CA432417   9.225   6.560   6.613  0.2756  0.3200 -0.4320
 1297THY    HA432418   9.281   6.492   6.675 -0.0864 -0.5142 -1.0007
 1297THY    CA532419   9.276   6.610   6.497 -0.4377  0.8206 -0.3297
 1297THY    CM132420   9.416   6.574   6.459 -0.3722  0.3947  0.6927
 1297THY    HM132421   9.450   6.481   6.507  0.1928  0.1577 -0.1323
 1297THY    HM232422   9.424   6.558   6.351 -0.2837  1.2131  0.5739
 1297THY    HM332423   9.494   6.647   6.484 -0.7491  0.7414  0.8689
 1297THY    CA632424   9.213   6.709   6.422  0.0541 -0.3133 -0.0306
 1297THY    HA632425   9.257   6.767   6.342 -1.8692 -0.8568 -1.5486
 1298THY      O32426   7.890   9.629   8.119 -0.0412 -0.0201  0.1763
 1298THY     HO32427   7.870   9.662   8.029  0.1273  1.3650  0.6194
 1298THY    CA132428   7.972   9.731   8.162  0.3091  0.2440 -1.3108
 1298THY    CA232429   8.074   9.721   8.265  0.6843  0.2510  0.2297
 1298THY    CP132430   8.105   9.589   8.337 -0.4382  0.0133 -0.0130
 1298THY    HP132431   8.004   9.553   8.357 -0.4915 -0.5889 -1.2876
 1298THY    CP232432   8.169   9.486   8.251  0.4274  0.0785 -0.2895
 1298THY    HP232433   8.279   9.487   8.262  0.4093 -0.0983 -0.0769
 1298THY    HP332434   8.155   9.382   8.283  1.1893 -0.4339 -1.5492
 1298THY    HP432435   8.150   9.504   8.145  2.8214  1.9921 -0.4760
 1298THY    CP332436   8.182   9.614   8.466  0.6779  0.4043 -0.5072
 1298THY    HP532437   8.287   9.640   8.450  1.3592 -1.2496  0.9179
 1298THY    HP632438   8.129   9.700   8.509  1.3369  0.2678  0.6125
 1298THY    HP732439   8.189   9.524   8.528  0.0924 -0.4937 -1.6979
 1298THY    CA332440   8.158   9.829   8.288  0.8772  0.5661 -0.7239
 1298THY    HA332441   8.252   9.826   8.344  2.7965 -0.7671 -3.7752
 1298THY    CA432442   8.131   9.950   8.234 -0.2401 -0.3847 -0.0871
 1298THY    HA432443   8.191  10.037   8.258 -0.7488 -0.2604  0.7561
 1298THY    CA532444   8.024   9.974   8.143 -0.5166 -0.1393  0.2713
 1298THY    CM132445   7.989  10.106   8.089 -0.3781  0.1063  0.0997
 1298THY    HM132446   7.886  10.138   8.110  0.4184  2.4463  0.8166
 1298THY    HM232447   8.057  10.185   8.125 -1.4345  0.5753  1.1744
 1298THY    HM332448   7.997  10.101   7.980 -0.1675  0.9653  0.0686
 1298THY    CA632449   7.950   9.859   8.109  0.1013  0.3140  0.2931
 1298THY    HA632450   7.871   9.871   8.036 -0.4096  0.0686  0.8021
 1299THY      O32451   6.791   7.831   3.635  0.0090 -0.0594  0.0068
 1299THY     HO32452   6.866   7.891   3.653 -0.8886  1.1807 -0.1979
 1299THY    CA132453   6.682   7.903   3.668 -0.0114 -0.3881 -0.0324
 1299THY    CA232454   6.559   7.838   3.707 -0.1486  0.2705 -0.3382
 1299THY    CP132455   6.535   7.690   3.698  1.0349 -0.4615 -0.5133
 1299THY    HP132456   6.614   7.636   3.646  0.3956 -0.4282 -1.5365
 1299THY    CP232457   6.519   7.626   3.838 -0.4281 -0.3641 -0.2677
 1299THY    HP232458   6.467   7.696   3.903  0.8016  0.3261  0.0090
 1299THY    HP332459   6.477   7.525   3.827 -1.4169 -0.0579  0.5598
 1299THY    HP432460   6.617   7.609   3.885  0.6727  0.9705 -1.9235
 1299THY    CP332461   6.421   7.661   3.601 -0.4300 -0.4339  0.9053
 1299THY    HP532462   6.437   7.728   3.516  1.7517 -1.2158  0.6250
 1299THY    HP632463   6.425   7.561   3.556 -0.6645  0.2883 -0.7843
 1299THY    HP732464   6.326   7.680   3.651  0.0033  1.6770  1.0102
 1299THY    CA332465   6.455   7.929   3.750  0.0371  0.1677  0.6219
 1299THY    HA332466   6.354   7.890   3.756 -0.5191  1.7373  2.3398
 1299THY    CA432467   6.477   8.059   3.769  0.0102 -0.3313 -0.5696
 1299THY    HA432468   6.399   8.127   3.803  0.8382 -1.0697  3.1962
 1299THY    CA532469   6.588   8.116   3.722 -0.1325  0.4892 -0.0190
 1299THY    CM132470   6.620   8.262   3.735  0.2837 -0.0714  0.3613
 1299THY    HM132471   6.613   8.300   3.633 -0.6012  1.3837  0.9386
 1299THY    HM232472   6.544   8.303   3.803 -1.2581 -1.9899 -0.0961
 1299THY    HM332473   6.721   8.276   3.774 -0.1790  1.2816  1.1489
 1299THY    CA632474   6.699   8.043   3.687  0.2196 -0.8025 -0.3277
 1299THY    HA632475   6.798   8.087   3.675  0.9057 -1.0964  3.1556
 1300THY      O32476   9.300   4.261   6.015 -0.8227 -0.4854  0.1092
 1300THY     HO32477   9.380   4.283   6.067 -0.0693 -1.4908 -0.5897
 1300THY    CA132478   9.274   4.138   6.058 -0.9183 -0.5362 -0.4824
 1300THY    CA232479   9.222   4.035   5.963 -0.4799  0.0358 -0.6376
 1300THY    CP132480   9.193   4.066   5.819 -0.4883 -0.2181 -0.3703
 1300THY    HP132481   9.205   4.171   5.788 -1.5767 -0.5328 -1.9978
 1300THY    CP232482   9.277   3.982   5.732 -0.0758  0.2380 -0.3764
 1300THY    HP232483   9.258   3.881   5.769 -1.2609  0.2289 -0.9857
 1300THY    HP332484   9.246   3.993   5.628 -0.1606 -0.6527 -0.4550
 1300THY    HP432485   9.381   4.010   5.752 -0.2087 -1.0109  2.6629
 1300THY    CP332486   9.043   4.041   5.786  0.1941 -0.4192 -0.2521
 1300THY    HP532487   8.979   4.077   5.867  3.6082 -1.1562  3.0908
 1300THY    HP632488   9.008   4.087   5.692  0.4620 -0.5347 -0.4112
 1300THY    HP732489   9.021   3.935   5.771 -1.0736 -0.2710  0.4549
 1300THY    CA332490   9.204   3.904   6.017  0.0820  0.3621  0.4096
 1300THY    HA332491   9.152   3.829   5.958  0.3598  0.6794 -0.2346
 1300THY    CA432492   9.229   3.877   6.161 -0.1332  0.3287 -0.0260
 1300THY    HA432493   9.208   3.779   6.202  2.8571 -0.9013 -1.1743
 1300THY    CA532494   9.269   3.981   6.241 -0.3713  0.0767  0.2125
 1300THY    CM132495   9.280   3.953   6.389  0.5687  1.0076  0.6997
 1300THY    HM132496   9.369   3.894   6.415 -0.4971 -0.1203  1.9031
 1300THY    HM232497   9.281   4.046   6.447  1.1180  0.9959  0.7160
 1300THY    HM332498   9.188   3.908   6.428  0.3990 -0.1413 -0.9145
 1300THY    CA632499   9.293   4.112   6.189  0.0958  0.1889  0.4216
 1300THY    HA632500   9.315   4.192   6.260 -0.9894 -1.3480  2.6048
 1301THY      O32501   9.236   2.188   6.941  0.0289  0.2485 -0.0130
 1301THY     HO32502   9.314   2.149   6.983 -1.8198 -3.0842  0.7354
 1301THY    CA132503   9.252   2.323   6.933 -0.8298  0.4138 -0.3101
 1301THY    CA232504   9.158   2.402   6.871  0.1966  0.1902 -0.3308
 1301THY    CP132505   9.023   2.336   6.826 -0.4581  0.4315  0.0724
 1301THY    HP132506   9.062   2.254   6.764 -0.1436  1.5460 -1.2415
 1301THY    CP232507   8.928   2.293   6.937  0.0250 -0.0746  0.5550
 1301THY    HP232508   8.894   2.369   7.008  0.7228 -0.7637  1.6580
 1301THY    HP332509   8.843   2.249   6.885 -0.8315  0.6816  1.2798
 1301THY    HP432510   8.972   2.214   6.998  0.2453  1.1326  2.0233
 1301THY    CP332511   8.944   2.427   6.734 -0.1005 -0.0388 -0.5251
 1301THY    HP532512   9.003   2.482   6.659  0.5627  0.0250  0.0248
 1301THY    HP632513   8.864   2.377   6.679  0.6359 -0.4108 -1.2758
 1301THY    HP732514   8.896   2.502   6.798  3.2111 -0.3330  2.6327
 1301THY    CA332515   9.181   2.540   6.863 -0.1887 -0.2720  0.3033
 1301THY    HA332516   9.099   2.603   6.829 -1.2959 -1.5656  0.4448
 1301THY    CA432517   9.296   2.600   6.924  0.2407  0.1880  0.3428
 1301THY    HA432518   9.306   2.708   6.919  0.0259  0.2128  0.4462
 1301THY    CA532519   9.386   2.523   6.985  0.3510  0.4143 -0.2347
 1301THY    CM132520   9.507   2.579   7.053  0.4663 -0.2472  0.7373
 1301THY    HM132521   9.469   2.676   7.088  1.1871  0.5753 -0.6680
 1301THY    HM232522   9.547   2.518   7.135 -0.7694 -1.4820  0.4484
 1301THY    HM332523   9.582   2.600   6.975 -1.4825 -0.6950 -1.3699
 1301THY    CA632524   9.375   2.385   6.975 -0.6371  0.2268 -0.5406
 1301THY    HA632525   9.455   2.326   7.017  0.9057  2.6013  0.0137
 1302THY      O32526   5.460   6.150   2.107  0.1172 -0.0827 -0.0203
 1302THY     HO32527   5.437   6.123   2.017 -2.0217  2.3231 -0.2969
 1302THY    CA132528   5.590   6.157   2.121 -0.2703  0.2358 -0.2429
 1302THY    CA232529   5.658   6.225   2.226 -0.3859  0.4192 -0.2309
 1302THY    CP132530   5.598   6.282   2.354 -0.1794  0.0508 -0.2658
 1302THY    HP132531   5.491   6.263   2.350 -0.5745  1.9961 -0.0758
 1302THY    CP232532   5.645   6.198   2.474  0.9601 -0.1359 -0.4649
 1302THY    HP232533   5.751   6.221   2.489  1.3672 -0.1361 -2.9425
 1302THY    HP332534   5.593   6.225   2.567  1.2562 -1.3913  0.0938
 1302THY    HP432535   5.617   6.094   2.453  3.3657 -1.0834  0.5802
 1302THY    CP332536   5.626   6.432   2.382 -0.3046 -0.1675 -0.1533
 1302THY    HP532537   5.601   6.460   2.484  2.2773 -3.0889  1.4585
 1302THY    HP632538   5.733   6.450   2.369 -0.6014  0.2722 -2.7031
 1302THY    HP732539   5.563   6.486   2.310 -0.1676 -0.1875 -0.2874
 1302THY    CA332540   5.802   6.218   2.210  0.1762  0.7874 -0.0401
 1302THY    HA332541   5.864   6.253   2.292  1.0004  2.0835 -1.1642
 1302THY    CA432542   5.863   6.168   2.093 -0.0167  0.3929  0.3019
 1302THY    HA432543   5.972   6.161   2.098  0.1930 -1.0127 -3.1201
 1302THY    CA532544   5.792   6.103   1.996  0.2449  0.2415 -0.1639
 1302THY    CM132545   5.875   6.032   1.885  0.2646  0.0050 -0.0901
 1302THY    HM132546   5.919   6.086   1.801  0.7005 -1.5566 -0.9200
 1302THY    HM232547   5.957   5.979   1.934 -0.7616 -2.3629 -0.7576
 1302THY    HM332548   5.813   5.955   1.836  0.3429 -0.2159  0.1537
 1302THY    CA632549   5.656   6.102   2.006 -0.1839  0.3437  0.4535
 1302THY    HA632550   5.601   6.041   1.935 -0.9478  0.1780  1.1665
 1303THY      O32551   3.894   5.752   1.911 -0.7947 -0.3597  0.3120
 1303THY     HO32552   3.964   5.804   1.954 -0.1589  0.0290 -1.1493
 1303THY    CA132553   3.793   5.837   1.897  0.0005 -0.4360  0.1393
 1303THY    CA232554   3.682   5.810   1.819  0.2882  0.3874 -0.3077
 1303THY    CP132555   3.660   5.678   1.733  0.4896 -0.0538 -0.6456
 1303THY    HP132556   3.756   5.626   1.743  0.7831  0.7590  1.1088
 1303THY    CP232557   3.553   5.581   1.793 -0.4964  0.0757  0.3872
 1303THY    HP232558   3.453   5.627   1.795 -0.5505  0.0089 -0.3516
 1303THY    HP332559   3.541   5.496   1.725  0.2173 -1.5372  2.1948
 1303THY    HP432560   3.588   5.548   1.891 -2.3687  1.5462  1.6259
 1303THY    CP332561   3.629   5.696   1.589 -0.3471  0.3675 -0.3485
 1303THY    HP532562   3.694   5.777   1.552 -1.2552  1.4124  0.2920
 1303THY    HP632563   3.652   5.611   1.524 -0.7331  1.3780 -1.8600
 1303THY    HP732564   3.525   5.728   1.581 -1.0624 -1.6530  0.3481
 1303THY    CA332565   3.586   5.911   1.800  0.2261 -0.1276 -0.0828
 1303THY    HA332566   3.501   5.892   1.736  0.3467 -1.2463  0.0756
 1303THY    CA432567   3.587   6.028   1.868  0.6309 -0.5864  0.1174
 1303THY    HA432568   3.507   6.102   1.860  2.3797  1.2122 -3.0202
 1303THY    CA532569   3.701   6.055   1.943 -0.1514  0.0008  0.3161
 1303THY    CM132570   3.711   6.188   2.005 -0.7280 -0.6598 -0.8766
 1303THY    HM132571   3.638   6.202   2.085  0.3631 -1.3037  0.2630
 1303THY    HM232572   3.812   6.183   2.047 -0.9225 -1.9663 -0.5170
 1303THY    HM332573   3.712   6.264   1.926 -2.0692 -0.8245 -1.0653
 1303THY    CA632574   3.804   5.962   1.962 -0.0371  0.5044  0.5096
 1303THY    HA632575   3.893   5.969   2.023  0.9147 -3.7520 -0.0210
 1304THY      O32576   7.967   5.065   8.292 -0.6310  0.1058  0.6774
 1304THY     HO32577   7.877   5.085   8.322 -2.2481  0.8201 -3.8261
 1304THY    CA132578   8.048   5.143   8.371 -0.5050 -0.2881  0.4135
 1304THY    CA232579   8.185   5.168   8.348 -0.3294 -0.2686 -0.0910
 1304THY    CP132580   8.255   5.093   8.226 -0.2874 -0.1909 -0.7194
 1304THY    HP132581   8.187   5.080   8.141 -1.0712 -0.4318 -0.0689
 1304THY    CP232582   8.371   5.189   8.168  0.1030  0.7479  0.2500
 1304THY    HP232583   8.343   5.294   8.156 -0.9900  0.6357  1.5761
 1304THY    HP332584   8.456   5.203   8.236 -0.4442  1.5848  0.7784
 1304THY    HP432585   8.408   5.153   8.071  0.2655 -2.2481  1.3259
 1304THY    CP332586   8.318   4.957   8.268  0.4937  0.5837 -0.0720
 1304THY    HP532587   8.251   4.893   8.325  0.0741  2.7916  2.0969
 1304THY    HP632588   8.354   4.901   8.181 -0.4265 -1.7438  0.9704
 1304THY    HP732589   8.407   4.982   8.327  1.6800 -0.7234 -1.2487
 1304THY    CA332590   8.259   5.228   8.454 -0.6530  0.1246 -0.0232
 1304THY    HA332591   8.366   5.247   8.449 -0.5878  1.5162  3.6881
 1304THY    CA432592   8.197   5.287   8.561  0.4931  0.3246  0.5212
 1304THY    HA432593   8.257   5.346   8.630  0.6519  1.0447 -0.2085
 1304THY    CA532594   8.059   5.266   8.573  0.0702 -0.1360  0.2489
 1304THY    CM132595   7.982   5.317   8.695 -0.0404  0.0021 -0.6682
 1304THY    HM132596   8.041   5.336   8.785 -0.3511  0.5659 -0.5760
 1304THY    HM232597   7.934   5.415   8.681 -1.6654 -0.6392  0.2884
 1304THY    HM332598   7.904   5.245   8.718 -0.7201  0.3582 -1.7933
 1304THY    CA632599   7.985   5.191   8.484  0.5651 -0.3131  0.3061
 1304THY    HA632600   7.877   5.182   8.493  0.1601  2.0451 -1.3716
 1305THY      O32601   3.591   3.665   7.664  0.3143 -0.0333 -0.1413
 1305THY     HO32602   3.686   3.648   7.671  0.0368 -1.0856  1.5042
 1305THY    CA132603   3.520   3.567   7.735 -0.3926  0.2438  0.2693
 1305THY    CA232604   3.384   3.587   7.746  0.3378  0.0033  0.4245
 1305THY    CP132605   3.309   3.702   7.691  0.2090  0.0001 -0.4938
 1305THY    HP132606   3.376   3.768   7.635 -2.8135  1.7901 -2.1947
 1305THY    CP232607   3.201   3.651   7.594  0.8132 -0.6400 -0.0192
 1305THY    HP232608   3.252   3.589   7.519 -1.8637 -0.2996 -2.2695
 1305THY    HP332609   3.132   3.580   7.641 -0.5739  1.7927  1.8092
 1305THY    HP432610   3.153   3.730   7.536  0.3367 -1.9411 -1.4666
 1305THY    CP332611   3.242   3.789   7.796  0.6261  0.5332  0.0835
 1305THY    HP532612   3.231   3.887   7.749 -0.1741 -0.3035 -1.5637
 1305THY    HP632613   3.150   3.744   7.834 -0.9450  1.7260 -2.1284
 1305THY    HP732614   3.324   3.804   7.868 -0.0079  0.8757  0.7403
 1305THY    CA332615   3.317   3.483   7.818 -0.2495 -0.4522  0.5897
 1305THY    HA332616   3.210   3.495   7.833 -0.3892 -1.7415  0.6866
 1305THY    CA432617   3.379   3.359   7.849  0.2857 -0.1064 -0.4796
 1305THY    HA432618   3.327   3.279   7.901 -1.9778  1.6505  0.1179
 1305THY    CA532619   3.511   3.344   7.816 -0.7016  0.0204  0.3267
 1305THY    CM132620   3.592   3.217   7.837  0.0200 -0.5208  0.1139
 1305THY    HM132621   3.615   3.157   7.748 -2.1047  1.6297 -2.0204
 1305THY    HM232622   3.682   3.248   7.892 -0.5290  0.9502  0.2317
 1305THY    HM332623   3.542   3.151   7.909 -0.5266 -2.4037 -1.8826
 1305THY    CA632624   3.586   3.450   7.766 -0.2512 -0.4171 -0.1184
 1305THY    HA632625   3.693   3.439   7.754 -0.1412 -0.7883  1.0925
 1306THY      O32626   9.184   4.761   0.438  0.5488 -0.3097  0.4474
 1306THY     HO32627   9.128   4.772   0.360 -0.2705  1.2055  1.2026
 1306THY    CA132628   9.254   4.874   0.438  0.0014 -0.2186 -0.5182
 1306THY    CA232629   9.392   4.869   0.482  0.2341  0.1189  0.4062
 1306THY    CP132630   9.450   4.734   0.536  0.4251 -0.1055  0.7724
 1306THY    HP132631   9.391   4.648   0.502  0.1650  0.6057 -0.6658
 1306THY    CP232632   9.604   4.709   0.498  0.4511  0.6183  0.0061
 1306THY    HP232633   9.664   4.773   0.564 -0.6035  1.0751  0.5582
 1306THY    HP332634   9.641   4.607   0.503 -0.0235  0.3833 -1.0265
 1306THY    HP432635   9.623   4.748   0.398  1.5101 -0.8977 -0.4126
 1306THY    CP332636   9.428   4.727   0.682 -0.3585 -0.0674 -0.1827
 1306THY    HP532637   9.466   4.820   0.725  0.5176 -0.6469  0.3272
 1306THY    HP632638   9.321   4.716   0.702 -0.0358 -3.3758  0.2853
 1306THY    HP732639   9.488   4.645   0.724  0.7855  1.3502  1.1099
 1306THY    CA332640   9.462   4.993   0.494 -0.9405 -0.2308 -0.1824
 1306THY    HA332641   9.568   4.996   0.515 -0.2495  1.4010 -3.3239
 1306THY    CA432642   9.398   5.112   0.452  0.5293 -0.4005 -0.6729
 1306THY    HA432643   9.444   5.210   0.453 -2.8177  1.3439  0.2281
 1306THY    CA532644   9.262   5.114   0.417 -0.6315 -0.2639 -0.7431
 1306THY    CM132645   9.197   5.236   0.373  0.8440  0.3830 -0.2322
 1306THY    HM132646   9.089   5.216   0.383  0.8614 -0.1882 -1.1007
 1306THY    HM232647   9.218   5.311   0.451 -0.5844  0.0400  0.5186
 1306THY    HM332648   9.210   5.263   0.268 -0.8954 -1.4633 -0.9821
 1306THY    CA632649   9.195   4.994   0.410  0.3260 -0.6430  1.3295
 1306THY    HA632650   9.090   4.990   0.380 -0.3057  2.1271  2.8361
 1307THY      O32651   6.940   7.081   7.989  0.1795 -0.1490 -0.3518
 1307THY     HO32652   6.960   7.163   7.942  1.8609 -0.4640 -0.2526
 1307THY    CA132653   7.009   6.979   7.923  0.1576 -0.0225  0.1999
 1307THY    CA232654   6.999   6.846   7.951 -0.7721 -0.5776 -0.3107
 1307THY    CP132655   6.916   6.802   8.082 -0.4961  0.5044 -0.3565
 1307THY    HP132656   6.901   6.884   8.153 -0.9115 -1.3122  1.7798
 1307THY    CP232657   6.786   6.729   8.046 -0.2514 -0.2193 -0.2379
 1307THY    HP232658   6.792   6.651   7.968 -0.2807 -0.4315 -0.0308
 1307THY    HP332659   6.747   6.679   8.135 -1.2269  0.3723 -0.3223
 1307THY    HP432660   6.712   6.805   8.020  1.4753  0.6154 -3.1902
 1307THY    CP332661   7.015   6.702   8.154  0.4167 -0.6952  0.5163
 1307THY    HP532662   6.984   6.699   8.259 -1.3549 -0.7773  0.0153
 1307THY    HP632663   7.009   6.602   8.110  0.6153 -0.3609 -0.2765
 1307THY    HP732664   7.118   6.741   8.152  0.0742  0.2053 -1.0507
 1307THY    CA332665   7.071   6.753   7.875  0.1642  0.2217  0.1129
 1307THY    HA332666   7.060   6.647   7.896 -1.8596  0.1200 -1.2579
 1307THY    CA432667   7.152   6.796   7.769 -0.4195 -0.4507  0.0850
 1307THY    HA432668   7.190   6.723   7.698 -0.3466  0.0222 -0.3709
 1307THY    CA532669   7.166   6.934   7.746  0.7692  1.5350  0.7277
 1307THY    CM132670   7.262   6.990   7.641  0.3294  0.0538 -0.8376
 1307THY    HM132671   7.259   7.099   7.640  1.2523  0.1324  0.8116
 1307THY    HM232672   7.367   6.960   7.650  0.3388 -1.0672 -3.7288
 1307THY    HM332673   7.240   6.954   7.540 -0.3309 -1.0754 -0.3189
 1307THY    CA632674   7.094   7.024   7.825  0.4506  0.3427  0.0249
 1307THY    HA632675   7.103   7.132   7.826 -1.3671  0.5393  1.4171
 1308THY      O32676   5.902   1.244   0.164 -0.2976  0.1232  0.3376
 1308THY     HO32677   5.834   1.312   0.154 -0.6322 -0.3112 -0.4202
 1308THY    CA132678   6.003   1.257   0.080  0.2403 -0.8782  0.0716
 1308THY    CA232679   6.131   1.202   0.105  0.7343  0.2455  0.0794
 1308THY    CP132680   6.160   1.119   0.229 -0.3597 -0.4491  0.2800
 1308THY    HP132681   6.071   1.057   0.244  1.5274 -2.9857  1.7722
 1308THY    CP232682   6.270   1.019   0.218  0.2615  0.2100  0.0876
 1308THY    HP232683   6.293   0.968   0.312  3.4418  0.2786 -0.5539
 1308THY    HP332684   6.248   0.947   0.138 -0.6998 -0.5605  1.0118
 1308THY    HP432685   6.371   1.047   0.188  0.9774 -3.4393 -1.5078
 1308THY    CP332686   6.186   1.203   0.353 -0.4097  0.0318  0.7328
 1308THY    HP532687   6.253   1.163   0.430  2.7929 -1.5232 -2.5806
 1308THY    HP632688   6.226   1.303   0.333 -0.8362  0.1710  0.5428
 1308THY    HP732689   6.090   1.207   0.406 -0.1411  1.5032  1.1425
 1308THY    CA332690   6.227   1.217   0.002 -0.1557 -0.1939  0.3308
 1308THY    HA332691   6.328   1.176   0.011  0.1181  0.8447  2.4236
 1308THY    CA432692   6.194   1.285  -0.121 -0.0891 -0.6078  0.2031
 1308THY    HA432693   6.269   1.291  -0.199 -0.4365 -0.0103 -0.0941
 1308THY    CA532694   6.074   1.354  -0.127  1.0281  0.1257  0.0157
 1308THY    CM132695   6.042   1.429  -0.254 -0.1410  0.0282 -0.5963
 1308THY    HM132696   5.970   1.380  -0.320 -1.4187 -0.2411  0.9063
 1308THY    HM232697   5.993   1.522  -0.221  0.8563  0.2535  0.3182
 1308THY    HM332698   6.133   1.465  -0.303 -0.0601  1.5523  0.5789
 1308THY    CA632699   5.973   1.335  -0.029 -0.1133  0.5453  0.3074
 1308THY    HA632700   5.879   1.388  -0.037  0.1109  1.1141  1.2647
 1309THY      O32701   6.527   4.574   8.869 -0.2770 -0.2984  0.4164
 1309THY     HO32702   6.599   4.612   8.816  1.3796 -3.0618  0.5032
 1309THY    CA132703   6.574   4.610   8.993 -0.3498  0.0005  0.5240
 1309THY    CA232704   6.491   4.613   9.099  0.1924  0.7213 -1.2920
 1309THY    CP132705   6.340   4.583   9.084 -0.3325 -0.3864  0.2167
 1309THY    HP132706   6.298   4.571   8.983 -3.8947  1.9629  1.2739
 1309THY    CP232707   6.311   4.447   9.146  0.2734  0.6838 -0.2163
 1309THY    HP232708   6.336   4.448   9.253  1.5630  0.3939 -0.4872
 1309THY    HP332709   6.207   4.418   9.133 -0.2101  2.4708 -0.6044
 1309THY    HP432710   6.373   4.363   9.112 -1.5551 -0.7911 -0.0001
 1309THY    CP332711   6.265   4.700   9.142 -1.0756 -0.1058  0.2568
 1309THY    HP532712   6.291   4.793   9.092  0.4188 -0.0426  1.0855
 1309THY    HP632713   6.156   4.690   9.137 -1.2769  0.2234  2.6365
 1309THY    HP732714   6.293   4.700   9.248 -0.1246 -2.4739  0.0892
 1309THY    CA332715   6.541   4.642   9.231 -0.1291  1.0209  0.9446
 1309THY    HA332716   6.472   4.638   9.315 -2.3220 -0.1718 -0.8150
 1309THY    CA432717   6.682   4.674   9.247  0.1539 -0.3662 -0.2925
 1309THY    HA432718   6.721   4.685   9.347  0.3553  0.1865 -0.4265
 1309THY    CA532719   6.760   4.676   9.128  0.3018  0.1012 -0.7403
 1309THY    CM132720   6.910   4.700   9.144 -0.0501 -0.5150  0.2570
 1309THY    HM132721   6.957   4.618   9.199  0.6960 -0.0978  0.2440
 1309THY    HM232722   6.963   4.713   9.049 -0.3498  1.2817  0.3097
 1309THY    HM332723   6.937   4.792   9.197 -2.2163  0.5647 -0.3683
 1309THY    CA632724   6.709   4.642   9.003  0.1179 -0.1220 -0.2806
 1309THY    HA632725   6.777   4.649   8.919 -0.6052 -2.7048 -1.1869
 1310THY      O32726   2.281   3.780   3.460 -0.0125 -0.1757  0.2109
 1310THY     HO32727   2.325   3.769   3.546 -1.0583  1.1698  0.9687
 1310THY    CA132728   2.376   3.765   3.363 -0.4021 -0.0628  0.3882
 1310THY    CA232729   2.354   3.738   3.225  0.0132  0.2054 -0.7113
 1310THY    CP132730   2.213   3.710   3.177  0.1261 -0.0987  0.3316
 1310THY    HP132731   2.145   3.738   3.258  0.8174 -1.1446  1.3045
 1310THY    CP232732   2.173   3.816   3.068 -0.2924  0.1901  0.0660
 1310THY    HP232733   2.235   3.825   2.979 -0.9449 -0.4495 -0.4716
 1310THY    HP332734   2.064   3.820   3.052 -0.3800 -1.4308  0.0976
 1310THY    HP432735   2.204   3.915   3.101 -2.2320  0.7842  0.2286
 1310THY    CP332736   2.191   3.563   3.145  0.4168 -0.0957 -0.1222
 1310THY    HP532737   2.198   3.501   3.235 -3.1656 -3.0055 -1.6281
 1310THY    HP632738   2.087   3.566   3.112  0.7981 -0.1149 -1.3451
 1310THY    HP732739   2.259   3.523   3.070 -0.3250 -1.8769  0.1170
 1310THY    CA332740   2.460   3.726   3.137 -0.3048  0.0604  0.5974
 1310THY    HA332741   2.436   3.697   3.035 -0.1621 -1.6939  1.0318
 1310THY    CA432742   2.592   3.757   3.176 -0.2978  0.1697  0.0645
 1310THY    HA432743   2.668   3.740   3.101 -2.2351 -0.7730 -1.7900
 1310THY    CA532744   2.615   3.795   3.310  0.7687  0.2248  0.5353
 1310THY    CM132745   2.752   3.827   3.351  0.0250  0.2597  0.4420
 1310THY    HM132746   2.768   3.835   3.459 -0.9049  0.8034  0.5433
 1310THY    HM232747   2.819   3.760   3.296 -2.2497  0.2811 -2.6322
 1310THY    HM332748   2.786   3.915   3.296 -0.5114 -0.3627 -0.9274
 1310THY    CA632749   2.508   3.801   3.401 -0.2338  0.8232 -0.6258
 1310THY    HA632750   2.529   3.843   3.499  0.5469 -0.1474 -0.3646
 1311THY      O32751   4.602   8.430   2.052  0.0987 -0.1122  0.6968
 1311THY     HO32752   4.592   8.360   2.119 -1.0836 -0.4089  0.2219
 1311THY    CA132753   4.572   8.366   1.942 -0.0982  0.0622 -0.2603
 1311THY    CA232754   4.643   8.387   1.819 -0.7347 -0.3429 -0.4185
 1311THY    CP132755   4.745   8.500   1.814  0.0612 -0.5598  0.1970
 1311THY    HP132756   4.749   8.566   1.902  0.8121 -0.3199 -0.0164
 1311THY    CP232757   4.889   8.454   1.785  0.0614 -0.2699 -1.0675
 1311THY    HP232758   4.951   8.544   1.790 -0.2650 -0.0857  2.5518
 1311THY    HP332759   4.924   8.387   1.864 -0.5317  0.0950 -0.4876
 1311THY    HP432760   4.895   8.400   1.689 -0.1504 -1.5680 -0.3813
 1311THY    CP332761   4.718   8.596   1.691  1.3058 -0.2792 -0.1240
 1311THY    HP532762   4.734   8.551   1.593  1.4275  1.6096 -1.0137
 1311THY    HP632763   4.612   8.623   1.699  0.1593 -4.3159  0.4767
 1311THY    HP732764   4.771   8.692   1.696 -0.6915  0.9468 -1.2300
 1311THY    CA332765   4.611   8.305   1.708  0.1359  0.1021  0.8961
 1311THY    HA332766   4.658   8.311   1.611  0.8581 -1.0292  1.1489
 1311THY    CA432767   4.498   8.221   1.716  0.3324 -0.1217 -0.4978
 1311THY    HA432768   4.458   8.171   1.629 -0.3414  0.8509 -0.7693
 1311THY    CA532769   4.423   8.214   1.833 -0.1782  0.0841  0.5068
 1311THY    CM132770   4.293   8.129   1.842 -0.2721 -0.3788  0.2232
 1311THY    HM132771   4.328   8.025   1.842 -1.4092 -0.8437 -2.6304
 1311THY    HM232772   4.227   8.144   1.928  0.7907  1.1607  0.8146
 1311THY    HM332773   4.233   8.149   1.753 -0.7345 -0.1009  0.5996
 1311THY    CA632774   4.469   8.274   1.950 -0.6028 -0.5457  0.3252
 1311THY    HA632775   4.424   8.238   2.042  1.2979 -3.1153  0.3883
 1312THY      O32776   0.286   9.720   6.468  0.4818 -0.2765 -0.8725
 1312THY     HO32777   0.351   9.786   6.499  0.5483 -1.5529  1.9872
 1312THY    CA132778   0.325   9.602   6.525 -0.0556 -0.3899  0.0320
 1312THY    CA232779   0.260   9.481   6.494 -0.4335 -0.2463  0.6060
 1312THY    CP132780   0.156   9.486   6.383 -0.3039  0.1142 -0.5758
 1312THY    HP132781   0.149   9.586   6.339  3.2190 -0.3323 -2.4706
 1312THY    CP232782   0.204   9.407   6.254  0.1647 -1.0245  0.3949
 1312THY    HP232783   0.139   9.442   6.173  1.2699  0.3833  0.0589
 1312THY    HP332784   0.308   9.441   6.241 -0.1157 -0.9788 -2.2605
 1312THY    HP432785   0.191   9.298   6.261  1.5092 -1.1821  0.8374
 1312THY    CP332786   0.008   9.446   6.418  0.3394 -0.8794 -0.5719
 1312THY    HP532787  -0.051   9.497   6.341  0.0364  2.3850  1.6027
 1312THY    HP632788  -0.016   9.339   6.416 -2.2099 -0.3813  0.1704
 1312THY    HP732789  -0.020   9.506   6.506  0.7030  1.0274 -1.6926
 1312THY    CA332790   0.305   9.357   6.545 -0.1258 -0.5450 -0.7424
 1312THY    HA332791   0.251   9.264   6.528 -1.4494  0.4773 -2.4654
 1312THY    CA432792   0.414   9.356   6.639 -0.2009 -0.8027  0.1899
 1312THY    HA432793   0.434   9.260   6.687 -0.5292 -1.5214 -1.0571
 1312THY    CA532794   0.469   9.480   6.677 -0.5230 -0.0283 -0.4086
 1312THY    CM132795   0.586   9.479   6.777 -0.6362 -0.1867  0.2522
 1312THY    HM132796   0.661   9.410   6.736  0.3353 -0.4733  2.3844
 1312THY    HM232797   0.638   9.575   6.781 -0.2096 -0.3767 -0.4716
 1312THY    HM332798   0.549   9.456   6.877 -1.4263 -0.6939 -0.1424
 1312THY    CA632799   0.429   9.600   6.617  0.3529 -0.1526 -0.2964
 1312THY    HA632800   0.490   9.687   6.638 -1.0841  0.6840  0.6044
 1313THY      O32801   5.779   5.130   2.346 -0.0995  0.4266 -0.4892
 1313THY     HO32802   5.847   5.178   2.397  0.2577  0.3332 -0.8685
 1313THY    CA132803   5.667   5.194   2.345  0.3236  0.3338 -0.0988
 1313THY    CA232804   5.541   5.134   2.317  0.7323 -0.2653  0.1854
 1313THY    CP132805   5.537   4.998   2.265 -0.2193 -0.6782  0.2333
 1313THY    HP132806   5.618   4.938   2.309  0.5412  1.1108  1.3887
 1313THY    CP232807   5.406   4.915   2.305  0.6024 -0.8537 -0.1081
 1313THY    HP232808   5.372   4.932   2.407  0.6322 -2.0027  0.1022
 1313THY    HP332809   5.321   4.946   2.244 -0.7194 -0.9901  1.6047
 1313THY    HP432810   5.425   4.807   2.296 -0.8959 -1.3195  1.7496
 1313THY    CP332811   5.554   4.982   2.118  0.9127 -1.0234 -0.0146
 1313THY    HP532812   5.460   5.014   2.071 -0.6220 -3.0024  1.5462
 1313THY    HP632813   5.651   5.019   2.081 -0.3800  0.4409 -2.1284
 1313THY    HP732814   5.543   4.876   2.095 -4.2012 -0.6378 -0.3544
 1313THY    CA332815   5.424   5.208   2.336 -1.3192 -0.2743  0.0060
 1313THY    HA332816   5.322   5.186   2.309 -2.3071  2.6792  0.8791
 1313THY    CA432817   5.431   5.339   2.371  0.6872 -0.8107 -0.8260
 1313THY    HA432818   5.335   5.387   2.383  1.5602  0.3353  3.3751
 1313THY    CA532819   5.556   5.397   2.402 -0.5698  0.6849  0.5008
 1313THY    CM132820   5.564   5.541   2.430  1.0182 -0.3838  0.4534
 1313THY    HM132821   5.473   5.570   2.485  0.4848 -0.5334 -0.3351
 1313THY    HM232822   5.647   5.572   2.495 -0.6550  2.0107  1.6221
 1313THY    HM332823   5.570   5.603   2.340 -0.0447 -0.0314  0.6047
 1313THY    CA632824   5.672   5.328   2.379  0.1498  0.2587  0.6340
 1313THY    HA632825   5.769   5.377   2.382  0.3687  0.0183 -1.2057
 1314THY      O32826   7.456   4.159   2.671 -0.1017  0.1786 -0.1658
 1314THY     HO32827   7.404   4.227   2.718 -0.2548 -0.6650  0.9315
 1314THY    CA132828   7.469   4.225   2.554  0.1126 -0.0642  0.6693
 1314THY    CA232829   7.442   4.156   2.434 -0.2036  0.2077  0.0285
 1314THY    CP132830   7.389   4.015   2.441 -0.5892  0.8002  0.2946
 1314THY    HP132831   7.421   3.968   2.535 -3.1847 -2.3251 -0.1974
 1314THY    CP232832   7.236   4.024   2.449 -0.0229 -0.4921 -1.1390
 1314THY    HP232833   7.198   4.051   2.547 -2.3263  3.0953 -2.8301
 1314THY    HP332834   7.204   4.105   2.383  0.8540 -0.6600 -1.8081
 1314THY    HP432835   7.189   3.930   2.417 -0.0379 -1.0977  0.5542
 1314THY    CP332836   7.449   3.930   2.330  0.3099  0.0674 -0.3871
 1314THY    HP532837   7.549   3.968   2.311  0.8520 -0.8482  0.5542
 1314THY    HP632838   7.450   3.823   2.357  0.4573  0.5709  1.7670
 1314THY    HP732839   7.397   3.950   2.235  0.3852 -0.5498 -0.5671
 1314THY    CA332840   7.465   4.224   2.310 -0.0556  0.8081 -0.2412
 1314THY    HA332841   7.449   4.175   2.214  1.6927  1.4632 -0.9051
 1314THY    CA432842   7.506   4.358   2.315  0.6206  0.0750 -0.4839
 1314THY    HA432843   7.516   4.415   2.222 -1.4657 -1.3431 -1.6534
 1314THY    CA532844   7.515   4.430   2.437  0.3225  0.1075  0.8131
 1314THY    CM132845   7.552   4.575   2.441  0.4696 -0.1996  0.1396
 1314THY    HM132846   7.596   4.608   2.346 -1.9526 -0.4350 -1.1560
 1314THY    HM232847   7.463   4.636   2.463 -0.7394 -1.8833  0.0607
 1314THY    HM332848   7.627   4.598   2.517  0.7334  1.7421 -0.6324
 1314THY    CA632849   7.499   4.357   2.553  0.0360  0.6150  0.4562
 1314THY    HA632850   7.507   4.403   2.651  1.0158 -0.6798  1.0075
 1315THY      O32851   4.502   6.391   2.868 -0.6307 -0.4462  0.7713
 1315THY     HO32852   4.478   6.385   2.963 -2.1186 -1.5616  0.3629
 1315THY    CA132853   4.391   6.371   2.794 -0.0745 -0.0884 -1.4915
 1315THY    CA232854   4.388   6.371   2.653 -0.4005  0.1604  0.5479
 1315THY    CP132855   4.523   6.395   2.576 -0.4450 -0.3735 -0.3358
 1315THY    HP132856   4.612   6.364   2.633 -0.5476 -0.9148 -0.4621
 1315THY    CP232857   4.533   6.307   2.450 -0.0472  0.2146 -0.8023
 1315THY    HP232858   4.455   6.336   2.378 -1.7458 -1.8158  0.1127
 1315THY    HP332859   4.637   6.324   2.420  1.8337 -0.9973  4.0125
 1315THY    HP432860   4.528   6.205   2.490  2.7782  0.9418  1.8331
 1315THY    CP332861   4.549   6.539   2.525 -0.5883  0.5827 -0.2873
 1315THY    HP532862   4.473   6.566   2.451 -0.6825  0.3031 -0.2936
 1315THY    HP632863   4.532   6.593   2.619 -2.3583 -0.2844 -0.0620
 1315THY    HP732864   4.651   6.543   2.486 -0.6752 -0.9138 -0.7276
 1315THY    CA332865   4.267   6.378   2.584  0.9671 -0.0533 -0.6647
 1315THY    HA332866   4.261   6.389   2.476  0.6584 -0.0523 -0.6498
 1315THY    CA432867   4.144   6.383   2.661  0.7993  0.1830 -0.4560
 1315THY    HA432868   4.047   6.383   2.613 -0.0254  0.2855  1.1557
 1315THY    CA532869   4.146   6.370   2.801  0.0854  0.3373 -0.1553
 1315THY    CM132870   4.024   6.346   2.884  0.7562 -0.6247  0.8317
 1315THY    HM132871   4.011   6.240   2.910 -1.4417 -0.9472 -1.1657
 1315THY    HM232872   4.023   6.413   2.971  1.2858  2.6337 -1.4911
 1315THY    HM332873   3.940   6.368   2.816  0.9884  1.3052  1.1277
 1315THY    CA632874   4.271   6.365   2.866 -0.4084 -0.2695  0.0782
 1315THY    HA632875   4.275   6.353   2.974  1.7815 -1.1957 -0.0540
 1316THY      O32876   1.365   4.689   7.139  0.1069  0.3069  0.2466
 1316THY     HO32877   1.345   4.743   7.217 -1.2122  0.5128 -0.1967
 1316THY    CA132878   1.342   4.764   7.030  0.1354  0.4497  0.5908
 1316THY    CA232879   1.307   4.698   6.905 -0.6437 -0.3286  0.0269
 1316THY    CP132880   1.316   4.545   6.887 -0.1064 -0.1940 -0.1037
 1316THY    HP132881   1.410   4.513   6.934  0.1575 -0.5791 -0.8896
 1316THY    CP232882   1.203   4.456   6.965 -0.5122  0.6345  0.9108
 1316THY    HP232883   1.170   4.488   7.064 -0.2361  2.7599  0.3689
 1316THY    HP332884   1.112   4.462   6.904  0.3624 -0.1186 -0.5445
 1316THY    HP432885   1.226   4.350   6.979 -2.8644  0.1117  1.2365
 1316THY    CP332886   1.348   4.493   6.746 -0.2187 -1.1138 -0.1981
 1316THY    HP532887   1.434   4.548   6.707 -2.1178  1.2806 -1.2608
 1316THY    HP632888   1.354   4.383   6.751  0.1790 -1.1875 -1.6810
 1316THY    HP732889   1.262   4.507   6.679 -0.2029 -1.3375 -0.2661
 1316THY    CA332890   1.254   4.783   6.803  0.4690 -0.5856  0.2652
 1316THY    HA332891   1.209   4.742   6.713 -0.6721  1.9558 -0.4262
 1316THY    CA432892   1.254   4.927   6.817 -0.5735 -0.0056 -0.0255
 1316THY    HA432893   1.216   4.991   6.738 -2.4668  0.0716  0.9118
 1316THY    CA532894   1.283   4.981   6.943 -0.1451  0.5187 -0.0906
 1316THY    CM132895   1.272   5.133   6.953 -0.0832 -0.4948 -0.8203
 1316THY    HM132896   1.309   5.174   6.858 -1.4417  0.6919 -0.8632
 1316THY    HM232897   1.171   5.175   6.958  0.1125  0.0226 -1.1101
 1316THY    HM332898   1.322   5.177   7.040 -3.1718 -0.7013  1.2202
 1316THY    CA632899   1.326   4.898   7.047  0.6837 -0.4866 -0.3569
 1316THY    HA632900   1.341   4.941   7.145  1.5809  0.5980 -0.9441
 1317THY      O32901   3.957   2.157   3.692  0.5287  0.5980  0.5153
 1317THY     HO32902   3.995   2.227   3.637 -2.1103  0.3316 -1.8335
 1317THY    CA132903   3.970   2.038   3.628 -0.2802 -0.3741  0.5864
 1317THY    CA232904   3.917   1.921   3.681 -0.8221 -0.8802 -0.7973
 1317THY    CP132905   3.852   1.921   3.822  0.3171 -0.1183  0.4142
 1317THY    HP132906   3.803   2.018   3.835 -1.4711 -0.8638 -0.4393
 1317THY    CP232907   3.742   1.813   3.839 -0.0625  0.5157 -0.0386
 1317THY    HP232908   3.681   1.835   3.927 -1.8674 -2.1089 -0.5324
 1317THY    HP332909   3.668   1.804   3.759 -0.6771  0.4084  0.5311
 1317THY    HP432910   3.783   1.714   3.859  1.8988  1.4511  0.8232
 1317THY    CP332911   3.962   1.903   3.931 -0.0876  0.8859 -0.2070
 1317THY    HP532912   4.027   1.824   3.893 -0.1835  0.1010  1.1626
 1317THY    HP632913   4.029   1.990   3.937  1.4569 -0.2663 -0.2650
 1317THY    HP732914   3.917   1.876   4.028 -1.2035  1.5873 -0.4985
 1317THY    CA332915   3.936   1.803   3.609  0.2306 -0.5928  0.2742
 1317THY    HA332916   3.903   1.709   3.652 -1.6190 -0.0956  0.0361
 1317THY    CA432917   3.999   1.808   3.483 -0.1865  0.0687  0.6334
 1317THY    HA432918   4.011   1.719   3.423 -0.2112  2.1367 -2.6581
 1317THY    CA532919   4.056   1.924   3.433  0.5698  0.2045 -0.7148
 1317THY    CM132920   4.125   1.916   3.296  0.1492  0.1921  0.0985
 1317THY    HM132921   4.217   1.975   3.309  0.7068 -0.7040  0.3422
 1317THY    HM232922   4.159   1.818   3.261  0.0797  0.2777 -0.2032
 1317THY    HM332923   4.061   1.955   3.216  1.1652 -0.5911 -1.1361
 1317THY    CA632924   4.037   2.044   3.503  0.1263  0.2464  0.4074
 1317THY    HA632925   4.077   2.137   3.465 -1.7331  0.1811 -2.0245
 1318THY      O32926   3.048   2.259   0.006 -0.7347  0.1215  0.1375
 1318THY     HO32927   3.057   2.177   0.058  0.3050  0.4931  0.5944
 1318THY    CA132928   2.972   2.342   0.079 -0.0792  0.0349 -0.7438
 1318THY    CA232929   2.842   2.308   0.129 -0.0142  0.3931  0.7598
 1318THY    CP132930   2.769   2.184   0.077 -0.5507  0.0835  0.4238
 1318THY    HP132931   2.842   2.101   0.078 -0.3816  0.2314  0.4861
 1318THY    CP232932   2.651   2.140   0.160  0.0395  0.2301  0.2834
 1318THY    HP232933   2.575   2.219   0.163 -0.4964 -0.0405 -3.0350
 1318THY    HP332934   2.605   2.048   0.123 -1.5819  1.1093  0.0398
 1318THY    HP432935   2.684   2.129   0.264 -1.5802 -1.6891  0.6556
 1318THY    CP332936   2.720   2.207  -0.064 -0.7547 -0.1984  0.1058
 1318THY    HP532937   2.665   2.299  -0.085  0.6285  0.3381 -1.3442
 1318THY    HP632938   2.802   2.212  -0.136 -1.2926 -1.0106 -0.5970
 1318THY    HP732939   2.657   2.126  -0.103  0.0903 -0.4612 -0.7569
 1318THY    CA332940   2.769   2.402   0.212 -0.0668  0.6026 -0.0498
 1318THY    HA332941   2.666   2.385   0.240 -0.1737  0.1896 -0.6629
 1318THY    CA432942   2.836   2.514   0.262 -0.7578  0.7299 -0.3724
 1318THY    HA432943   2.784   2.576   0.334  0.4053 -0.1601  1.3014
 1318THY    CA532944   2.970   2.533   0.230 -0.0150 -0.1830  0.3742
 1318THY    CM132945   3.035   2.651   0.293  0.5279  0.8087 -0.5237
 1318THY    HM132946   3.122   2.677   0.232  1.0576 -0.2673 -0.2416
 1318THY    HM232947   2.965   2.735   0.307 -1.4763 -0.9185  0.3281
 1318THY    HM332948   3.078   2.623   0.390 -2.4993 -0.7349  0.4983
 1318THY    CA632949   3.031   2.456   0.131  0.0814 -0.6546 -1.1400
 1318THY    HA632950   3.134   2.474   0.104 -0.0924  0.2597 -1.2140
 1319THY      O32951   3.221   2.239   6.195 -0.4659  0.5688  0.1778
 1319THY     HO32952   3.222   2.304   6.268 -0.7093 -1.0041  1.6537
 1319THY    CA132953   3.331   2.256   6.118  0.2243  0.2759  0.0842
 1319THY    CA232954   3.339   2.206   5.990 -0.2145  0.4903  0.2471
 1319THY    CP132955   3.230   2.111   5.941  0.0440  0.7207 -0.2891
 1319THY    HP132956   3.168   2.074   6.024  3.4480 -1.6929  1.3952
 1319THY    CP232957   3.142   2.193   5.844 -0.0453 -0.0533  0.4692
 1319THY    HP232958   3.191   2.222   5.750 -1.6017 -0.1192 -0.3934
 1319THY    HP332959   3.053   2.135   5.817  0.1372 -0.7634  1.3431
 1319THY    HP432960   3.099   2.281   5.892  0.4054 -0.2163  1.1763
 1319THY    CP332961   3.283   1.986   5.868  0.0782 -0.3525 -0.2856
 1319THY    HP532962   3.334   2.011   5.774  2.1886  0.2369  0.9634
 1319THY    HP632963   3.363   1.934   5.921  1.2078  0.6613 -0.9436
 1319THY    HP732964   3.210   1.905   5.856 -0.1377  0.0045 -1.5297
 1319THY    CA332965   3.439   2.256   5.906  0.1896 -0.5344  0.2981
 1319THY    HA332966   3.440   2.239   5.799 -0.2927 -0.0658  0.2138
 1319THY    CA432967   3.542   2.338   5.961 -0.6114  1.1010 -0.1410
 1319THY    HA432968   3.618   2.369   5.890  0.1486 -1.4155 -0.5250
 1319THY    CA532969   3.536   2.382   6.086 -0.7165  0.1042  0.7931
 1319THY    CM132970   3.633   2.483   6.125  0.5986 -0.1313  0.1536
 1319THY    HM132971   3.572   2.570   6.150  0.2427  0.0097 -1.1123
 1319THY    HM232972   3.681   2.448   6.217 -2.0322 -2.8937  0.6480
 1319THY    HM332973   3.705   2.517   6.050  3.2515 -0.8402  2.2138
 1319THY    CA632974   3.432   2.345   6.167  0.2456  0.3461 -0.8564
 1319THY    HA632975   3.437   2.386   6.268 -0.6914 -0.4813 -0.4596
 1320THY      O32976   3.984   3.417   6.252 -0.4796  0.1945  0.5730
 1320THY     HO32977   4.041   3.373   6.317 -0.2595 -1.6066 -0.7437
 1320THY    CA132978   3.863   3.354   6.256  0.5618 -0.4153  0.2019
 1320THY    CA232979   3.811   3.298   6.139 -0.6562  0.4573  0.3288
 1320THY    CP132980   3.893   3.308   6.001 -0.1093 -0.1814 -0.4916
 1320THY    HP132981   3.988   3.361   6.014  0.8929 -1.6175 -1.6326
 1320THY    CP232982   3.933   3.163   5.955  0.3855 -0.0013 -0.2209
 1320THY    HP232983   3.846   3.096   5.955  0.4752 -0.1193 -0.7711
 1320THY    HP332984   3.984   3.166   5.858 -0.3101 -1.7962 -0.6878
 1320THY    HP432985   3.994   3.123   6.037  2.2750  0.7309 -1.2123
 1320THY    CP332986   3.807   3.376   5.891  0.0067  0.8143  0.5865
 1320THY    HP532987   3.715   3.328   5.857  0.1150 -0.0274  1.4377
 1320THY    HP632988   3.799   3.484   5.911  0.0270  0.5736  2.0235
 1320THY    HP732989   3.856   3.374   5.793  0.1030  2.9680  0.5447
 1320THY    CA332990   3.684   3.245   6.140 -0.1749 -0.0758  0.5937
 1320THY    HA332991   3.639   3.207   6.049  1.4658  0.3535 -0.4452
 1320THY    CA432992   3.619   3.236   6.268  0.3687  0.2913  0.3082
 1320THY    HA432993   3.520   3.192   6.275 -0.3787  1.8575  0.0622
 1320THY    CA532994   3.680   3.285   6.384  0.2029  0.1931  0.5808
 1320THY    CM132995   3.619   3.268   6.516 -0.6351  0.3394 -0.1428
 1320THY    HM132996   3.558   3.355   6.541  1.1938  1.0428  2.2173
 1320THY    HM232997   3.557   3.178   6.504 -2.1944  1.2719  0.5294
 1320THY    HM332998   3.697   3.244   6.589 -0.2677  2.6738  0.3035
 1320THY    CA632999   3.799   3.346   6.380 -0.0577  0.2360  0.1671
 1320THY    HA633000   3.841   3.394   6.468  1.4896 -0.7489  0.0117
 1321THY      O33001   9.436   1.659   4.955 -0.1678  0.3276 -0.5607
 1321THY     HO33002   9.508   1.601   4.923  2.1758  2.0363  1.2148
 1321THY    CA133003   9.383   1.607   5.065 -0.7095 -0.4277 -0.3113
 1321THY    CA233004   9.298   1.679   5.146  0.0594  0.3963 -1.1283
 1321THY    CP133005   9.266   1.824   5.106 -0.1927 -0.3574 -0.5823
 1321THY    HP133006   9.286   1.857   5.003 -1.8529  1.6113 -0.3333
 1321THY    CP233007   9.114   1.862   5.119 -0.1716  0.5760 -0.0337
 1321THY    HP233008   9.101   1.955   5.063  2.3366  1.4857  0.7450
 1321THY    HP333009   9.038   1.790   5.086 -1.9892  1.9840  0.9415
 1321THY    HP433010   9.077   1.892   5.217 -2.0885  1.7452 -1.0597
 1321THY    CP333011   9.340   1.920   5.195 -0.5364  0.2159 -0.4057
 1321THY    HP533012   9.323   2.026   5.177 -3.8278  0.0165  0.8114
 1321THY    HP633013   9.314   1.900   5.300 -0.7460  0.9116 -0.3231
 1321THY    HP733014   9.448   1.903   5.182 -0.5945  1.0982 -2.2788
 1321THY    CA333015   9.243   1.616   5.259  0.6224 -0.2471 -0.2993
 1321THY    HA333016   9.169   1.669   5.319  0.3269 -1.9063  0.8490
 1321THY    CA433017   9.296   1.499   5.306 -0.2542  0.0434  0.2269
 1321THY    HA433018   9.261   1.455   5.398  1.0167  1.7755  1.5990
 1321THY    CA533019   9.383   1.426   5.223  0.2130 -0.8058  0.8252
 1321THY    CM133020   9.450   1.297   5.261  0.1731  0.1043 -0.6949
 1321THY    HM133021   9.462   1.289   5.369  0.8319  0.1446 -0.7587
 1321THY    HM233022   9.392   1.208   5.234 -2.5657  1.2719  0.9321
 1321THY    HM333023   9.555   1.299   5.228  1.3068 -2.1943  2.3683
 1321THY    CA633024   9.425   1.482   5.104  0.8288  1.1060 -0.0267
 1321THY    HA633025   9.500   1.430   5.045  0.8156  0.0815  0.8359
 1322THY      O33026   9.422   3.260   5.196  0.1112 -0.6144 -0.0749
 1322THY     HO33027   9.349   3.308   5.238  2.0396  1.7336  0.8420
 1322THY    CA133028   9.536   3.302   5.258  0.1774  0.0238 -0.6397
 1322THY    CA233029   9.660   3.236   5.233  0.2873  0.5900 -0.9564
 1322THY    CP133030   9.666   3.118   5.147 -0.2791 -0.5405 -0.1290
 1322THY    HP133031   9.609   3.135   5.055  0.3409 -3.0101 -1.0423
 1322THY    CP233032   9.804   3.107   5.092 -1.2764  0.3269 -0.3116
 1322THY    HP233033   9.831   3.193   5.029  0.4750 -0.3601 -0.5769
 1322THY    HP333034   9.881   3.093   5.168  0.5294  2.6595 -1.5695
 1322THY    HP433035   9.814   3.022   5.023  3.2572 -0.2301  0.7154
 1322THY    CP333036   9.617   2.986   5.223  0.3470 -0.3672 -0.4720
 1322THY    HP533037   9.672   2.977   5.317 -1.4547  2.8896  1.0472
 1322THY    HP633038   9.513   3.003   5.252  0.7647  2.5640 -0.4027
 1322THY    HP733039   9.621   2.898   5.157 -0.7730  0.7088 -2.0378
 1322THY    CA333040   9.773   3.293   5.303 -0.2741 -0.3373  0.3069
 1322THY    HA333041   9.871   3.249   5.290  0.9162  2.1777  0.2684
 1322THY    CA433042   9.763   3.404   5.389 -0.3511 -0.0802  1.0025
 1322THY    HA433043   9.843   3.446   5.449  0.2090  0.9896 -0.4358
 1322THY    CA533044   9.644   3.470   5.397  0.4013 -0.2774  0.2584
 1322THY    CM133045   9.643   3.591   5.489  0.2395  0.1556 -0.2172
 1322THY    HM133046   9.720   3.663   5.460 -2.7493  2.9943 -1.7896
 1322THY    HM233047   9.551   3.650   5.479  1.0376  1.3173 -1.0552
 1322THY    HM333048   9.667   3.561   5.592  2.3381  0.6935 -0.5110
 1322THY    CA633049   9.530   3.416   5.340  0.0069  0.9190 -0.4541
 1322THY    HA633050   9.433   3.463   5.354 -1.2351 -1.7305  0.4241
 1323THY      O33051   8.073   3.464   1.397  0.0152 -0.4006  0.5031
 1323THY     HO33052   8.161   3.429   1.420 -0.2066 -0.7752  0.7937
 1323THY    CA133053   8.010   3.452   1.514  0.2234  0.6510 -0.2506
 1323THY    CA233054   7.865   3.441   1.524 -0.2110 -0.3446 -1.2609
 1323THY    CP133055   7.779   3.421   1.392 -0.0776 -0.5969 -0.3606
 1323THY    HP133056   7.825   3.463   1.302 -1.1415  3.3643  0.7685
 1323THY    CP233057   7.746   3.273   1.385  0.6685 -0.1567  0.4748
 1323THY    HP233058   7.729   3.235   1.486  0.1414 -0.1420  0.3967
 1323THY    HP333059   7.658   3.251   1.323  1.0030 -1.6692  0.4951
 1323THY    HP433060   7.831   3.214   1.348  1.4348  0.9336  0.4430
 1323THY    CP333061   7.647   3.503   1.390 -0.0138 -0.3355  0.6901
 1323THY    HP533062   7.589   3.492   1.297  0.8988  0.9179 -0.0550
 1323THY    HP633063   7.584   3.463   1.471 -0.0619  1.3423  1.5203
 1323THY    HP733064   7.685   3.606   1.385  2.0990 -1.1092 -0.8363
 1323THY    CA333065   7.804   3.431   1.655 -0.2000  0.0390 -0.2414
 1323THY    HA333066   7.696   3.423   1.664 -0.0047 -1.0084  2.0008
 1323THY    CA433067   7.895   3.418   1.764  0.3154  0.6493 -0.1990
 1323THY    HA433068   7.841   3.423   1.858  1.6177  0.3165  0.5936
 1323THY    CA533069   8.031   3.423   1.757 -0.1454 -0.0307 -0.4032
 1323THY    CM133070   8.121   3.418   1.887  0.2861 -0.0282  0.4125
 1323THY    HM133071   8.109   3.328   1.947  0.4886 -0.1718  0.2410
 1323THY    HM233072   8.227   3.423   1.856 -0.5560  2.3514 -2.6522
 1323THY    HM333073   8.104   3.509   1.946 -1.9623  1.1787 -1.8889
 1323THY    CA633074   8.087   3.434   1.632  0.6801 -0.6312 -0.0734
 1323THY    HA633075   8.195   3.438   1.626  0.8167 -1.2918  1.5141
 1324THY      O33076   7.427   1.694   2.076 -0.1219 -0.1569 -0.1299
 1324THY     HO33077   7.357   1.736   2.129 -0.9565 -0.1854 -1.1479
 1324THY    CA133078   7.549   1.675   2.126  0.8360  0.3675 -0.3656
 1324THY    CA233079   7.633   1.572   2.088  0.0454  0.7879 -0.3519
 1324THY    CP133080   7.589   1.477   1.970 -0.2895 -0.0559  0.0947
 1324THY    HP133081   7.502   1.520   1.918 -2.0205 -1.4833  1.6694
 1324THY    CP233082   7.694   1.455   1.858 -0.4754 -0.3618 -0.6265
 1324THY    HP233083   7.785   1.405   1.894  0.0782  0.9865 -0.0720
 1324THY    HP333084   7.646   1.400   1.776 -0.1888 -1.3038 -0.1718
 1324THY    HP433085   7.716   1.556   1.821 -0.4831 -0.3514 -0.6028
 1324THY    CP333086   7.549   1.341   2.021  0.0966 -0.2072 -0.6351
 1324THY    HP533087   7.642   1.290   2.046 -0.2929 -1.7348 -2.1210
 1324THY    HP633088   7.495   1.351   2.116 -2.0284  3.1338 -2.0040
 1324THY    HP733089   7.494   1.277   1.951 -0.4854 -0.5404  0.1194
 1324THY    CA333090   7.753   1.540   2.158 -0.0549 -0.1667 -0.1518
 1324THY    HA333091   7.811   1.453   2.130  0.6853  0.0022  0.8134
 1324THY    CA433092   7.789   1.612   2.272  1.0894  0.1752 -0.0972
 1324THY    HA433093   7.873   1.583   2.334  1.9855  1.9611 -0.4115
 1324THY    CA533094   7.701   1.708   2.318 -0.0846 -0.7479 -0.0489
 1324THY    CM133095   7.727   1.790   2.443  0.0329 -0.7920  0.4764
 1324THY    HM133096   7.677   1.887   2.431  2.4312  0.3194 -1.4632
 1324THY    HM233097   7.682   1.728   2.522 -0.9570 -1.5595 -0.6433
 1324THY    HM333098   7.833   1.809   2.462 -0.1726  0.3391  0.5386
 1324THY    CA633099   7.581   1.744   2.245 -0.4499 -0.0164 -0.1411
 1324THY    HA633100   7.516   1.820   2.289 -1.1735 -1.8233  2.0832
 1325THY      O33101   6.092   2.754   7.447 -0.2294 -0.4680 -0.8462
 1325THY     HO33102   6.097   2.791   7.537  0.3727 -2.5959  0.0701
 1325THY    CA133103   5.967   2.781   7.396  0.6507 -0.1285  1.0857
 1325THY    CA233104   5.926   2.744   7.265  0.4862  0.2326 -0.0681
 1325THY    CP133105   6.020   2.653   7.183 -0.3116  0.1030 -0.5923
 1325THY    HP133106   6.119   2.646   7.229 -0.8464 -3.1770  0.3524
 1325THY    CP233107   5.960   2.512   7.180 -0.1356  0.2840 -0.1803
 1325THY    HP233108   5.855   2.516   7.148 -0.3698  0.3274  0.5742
 1325THY    HP333109   6.024   2.450   7.117 -1.2395 -1.8730  0.7465
 1325THY    HP433110   5.969   2.475   7.282  1.7061  0.1137 -0.3764
 1325THY    CP333111   6.030   2.701   7.041 -0.2868 -0.0880 -0.8549
 1325THY    HP533112   5.931   2.697   6.994 -0.1839  0.0247 -1.0838
 1325THY    HP633113   6.061   2.805   7.031  0.8242 -0.5072 -2.0462
 1325THY    HP733114   6.096   2.645   6.973 -0.1143 -0.2223 -0.5814
 1325THY    CA333115   5.800   2.790   7.216 -0.3731 -0.0424 -0.2643
 1325THY    HA333116   5.765   2.755   7.119  1.4004 -1.8470 -0.3268
 1325THY    CA433117   5.717   2.863   7.304 -0.2484 -0.7294 -0.4261
 1325THY    HA433118   5.618   2.891   7.269  0.1280  0.8233 -0.3317
 1325THY    CA533119   5.758   2.903   7.430 -0.4364  0.4278  0.7614
 1325THY    CM133120   5.664   2.972   7.515  0.2157  0.4416  1.0621
 1325THY    HM133121   5.627   3.061   7.463 -1.7223 -0.5314  0.6632
 1325THY    HM233122   5.589   2.897   7.541  0.1210  0.6292  1.3435
 1325THY    HM333123   5.715   3.008   7.605  2.7739  0.0977 -0.1606
 1325THY    CA633124   5.887   2.862   7.471 -0.2270 -0.1812 -0.4618
 1325THY    HA633125   5.923   2.880   7.572 -2.8899  0.6444  0.4191
 1326THY      O33126   9.921   8.828   9.286  0.0134 -0.2365 -0.0406
 1326THY     HO33127  10.001   8.877   9.261 -1.2048  1.8268 -0.1186
 1326THY    CA133128   9.885   8.899   9.397  1.2804 -0.7405  0.4286
 1326THY    CA233129   9.757   8.883   9.459 -0.1254  0.0379 -0.4173
 1326THY    CP133130   9.670   8.764   9.406 -0.1480  0.0465 -0.0205
 1326THY    HP133131   9.703   8.729   9.308 -2.0041  1.8250 -1.3740
 1326THY    CP233132   9.671   8.649   9.505 -0.2507 -0.0164 -0.2556
 1326THY    HP233133   9.773   8.608   9.509 -1.3397 -3.0547 -1.0895
 1326THY    HP333134   9.635   8.682   9.603  0.0906  3.6745 -1.2257
 1326THY    HP433135   9.606   8.567   9.472  0.4055 -0.7998  0.3413
 1326THY    CP333136   9.524   8.806   9.383 -0.2140 -0.1380 -0.1989
 1326THY    HP533137   9.477   8.835   9.478 -0.1771 -3.2256  0.8908
 1326THY    HP633138   9.526   8.882   9.305 -1.5943 -2.0525 -2.2437
 1326THY    HP733139   9.488   8.709   9.346  0.9207 -0.7050  0.1579
 1326THY    CA333140   9.710   8.972   9.558 -0.2766  0.5434  0.4610
 1326THY    HA333141   9.622   8.941   9.613  0.6045 -5.2696 -0.7260
 1326THY    CA433142   9.793   9.078   9.585 -0.6758 -0.3749 -0.1510
 1326THY    HA433143   9.758   9.141   9.666 -1.0441 -0.2710 -0.3873
 1326THY    CA533144   9.924   9.092   9.530 -0.3299  0.0525  0.1703
 1326THY    CM133145  10.015   9.203   9.576  0.1616 -0.5546  0.0379
 1326THY    HM133146  10.110   9.165   9.614  0.2276 -0.3288  0.0989
 1326THY    HM233147  10.029   9.278   9.497 -0.9487  0.7778  1.0544
 1326THY    HM333148   9.963   9.249   9.661 -0.7027  0.3663 -0.9550
 1326THY    CA633149   9.968   9.003   9.430 -0.1727 -0.0477 -0.1112
 1326THY    HA633150  10.061   9.029   9.380 -0.3952  1.2995  0.1330
 1327THY      O33151   2.141   3.429   6.104 -0.1599  0.3569  0.6975
 1327THY     HO33152   2.180   3.397   6.188 -0.9099  0.2994  1.0347
 1327THY    CA133153   2.014   3.462   6.129  0.8009 -0.5726  0.3618
 1327THY    CA233154   1.933   3.521   6.031  0.7187  0.6531  0.1611
 1327THY    CP133155   1.989   3.564   5.899  0.6401  0.7679  0.3166
 1327THY    HP133156   2.098   3.553   5.893  0.6505  1.3337 -0.8267
 1327THY    CP233157   1.924   3.478   5.784  0.2535  0.1019 -0.2468
 1327THY    HP233158   1.912   3.375   5.819 -1.1703  1.0542  2.4145
 1327THY    HP333159   1.821   3.510   5.764  0.7438  0.6083 -2.1204
 1327THY    HP433160   1.988   3.501   5.699 -0.0835  1.3995 -0.1822
 1327THY    CP333161   1.961   3.710   5.883  0.2961 -0.0087 -0.5097
 1327THY    HP533162   1.854   3.736   5.877  0.5130  1.3847  0.9301
 1327THY    HP633163   2.011   3.771   5.959  2.9141 -2.2016 -0.3369
 1327THY    HP733164   2.000   3.745   5.786 -0.6326 -0.3425 -1.0126
 1327THY    CA333165   1.799   3.540   6.060  0.3121  0.1831 -0.3413
 1327THY    HA333166   1.734   3.582   5.984  1.1950 -1.2573 -1.9547
 1327THY    CA433167   1.743   3.510   6.186 -0.7828 -0.9931  0.1642
 1327THY    HA433168   1.639   3.535   6.208 -1.2098 -1.7278 -0.8975
 1327THY    CA533169   1.820   3.455   6.278 -0.3834 -0.4597 -0.3589
 1327THY    CM133170   1.770   3.417   6.411  0.9657 -0.0410 -0.3688
 1327THY    HM133171   1.736   3.500   6.474 -0.9510 -1.0782  0.0486
 1327THY    HM233172   1.687   3.346   6.402  0.4356  0.4344  0.5704
 1327THY    HM333173   1.854   3.372   6.465 -0.1485 -1.0843  0.5629
 1327THY    CA633174   1.955   3.422   6.250  0.0446 -0.1146  0.0143
 1327THY    HA633175   2.016   3.382   6.331 -1.3367 -2.7698 -0.1383
 1328THY      O33176   3.456   0.852   4.083 -0.7439 -0.1857  0.4898
 1328THY     HO33177   3.370   0.806   4.082  0.0449 -1.7327 -0.4731
 1328THY    CA133178   3.515   0.843   3.961 -0.3889  0.3016  0.0493
 1328THY    CA233179   3.652   0.839   3.949  0.1293  0.4029 -0.3985
 1328THY    CP133180   3.750   0.856   4.065  0.4484 -0.5365 -0.3565
 1328THY    HP133181   3.693   0.848   4.158  0.2120  3.3798 -0.0057
 1328THY    CP233182   3.853   0.741   4.083 -0.3055  0.1228  0.5917
 1328THY    HP233183   3.826   0.656   4.148  1.1950  0.1688  1.3244
 1328THY    HP333184   3.879   0.702   3.984 -1.5079 -0.0426  0.3203
 1328THY    HP433185   3.944   0.776   4.134  0.2747 -0.1989 -0.2004
 1328THY    CP333186   3.818   0.996   4.052  0.3632  0.6801 -0.3861
 1328THY    HP533187   3.865   1.031   4.145  0.9769 -0.3155 -0.3112
 1328THY    HP633188   3.889   0.987   3.969 -0.4804 -2.1920 -0.9087
 1328THY    HP733189   3.752   1.073   4.011 -0.2152  0.0216 -0.7165
 1328THY    CA333190   3.704   0.830   3.822  0.2469 -0.4445 -0.2285
 1328THY    HA333191   3.812   0.827   3.814  0.3053  0.3025  0.1390
 1328THY    CA433192   3.622   0.822   3.709  0.7218 -0.1636 -0.0588
 1328THY    HA433193   3.664   0.815   3.609  1.0747  2.0578 -0.1219
 1328THY    CA533194   3.484   0.819   3.723  0.2685  0.7638  0.0091
 1328THY    CM133195   3.382   0.801   3.605  0.2102 -0.2821  0.1197
 1328THY    HM133196   3.322   0.892   3.610  1.6120  0.6999 -0.4481
 1328THY    HM233197   3.429   0.793   3.506 -0.1904 -0.9230 -0.0251
 1328THY    HM333198   3.321   0.710   3.612  0.1841 -0.4703 -1.9806
 1328THY    CA633199   3.432   0.832   3.852 -0.6637  0.1412  0.8613
 1328THY    HA633200   3.324   0.836   3.851 -0.6279  1.6536  0.0944
 1329THY      O33201   2.225   1.575   4.385 -0.3341 -0.0375 -0.3542
 1329THY     HO33202   2.192   1.603   4.472 -1.7812 -2.0052 -0.2002
 1329THY    CA133203   2.348   1.525   4.398  0.0413 -0.0906  0.4846
 1329THY    CA233204   2.420   1.464   4.294  0.1266  0.4396  0.0059
 1329THY    CP133205   2.356   1.458   4.150  0.5962  0.0438 -0.8597
 1329THY    HP133206   2.262   1.514   4.148 -0.6799 -1.7931  1.7118
 1329THY    CP233207   2.446   1.508   4.049  0.2620 -0.6835  0.3018
 1329THY    HP233208   2.407   1.603   4.012  0.7700 -0.8677 -0.7521
 1329THY    HP333209   2.539   1.539   4.099  0.6307  2.0428 -1.8610
 1329THY    HP433210   2.466   1.438   3.966  0.4221 -0.9872  0.5957
 1329THY    CP333211   2.313   1.311   4.109  0.6066 -0.3433 -0.1570
 1329THY    HP533212   2.250   1.314   4.019 -1.7017 -0.1532  1.3769
 1329THY    HP633213   2.398   1.246   4.088 -0.2935 -0.9180 -2.3885
 1329THY    HP733214   2.250   1.268   4.188  1.8276 -2.7941 -0.4273
 1329THY    CA333215   2.551   1.425   4.320 -0.0872 -0.1422 -0.8491
 1329THY    HA333216   2.616   1.375   4.249 -0.3403 -1.2154 -0.3487
 1329THY    CA433217   2.602   1.457   4.453 -0.2698 -1.0632  1.1282
 1329THY    HA433218   2.707   1.432   4.466 -0.0413 -1.4635 -1.1536
 1329THY    CA533219   2.540   1.534   4.543 -0.0532  0.5073 -0.3163
 1329THY    CM133220   2.609   1.569   4.675 -0.0980  0.6814  0.1304
 1329THY    HM133221   2.716   1.542   4.670 -0.6559 -1.6665 -0.5066
 1329THY    HM233222   2.597   1.672   4.710  0.0199  0.9209 -0.5124
 1329THY    HM333223   2.577   1.514   4.764 -1.4349  0.8190 -0.2440
 1329THY    CA633224   2.411   1.567   4.518  0.3454 -0.0274  0.3198
 1329THY    HA633225   2.358   1.634   4.585 -2.2795 -1.0166 -0.6517
 1330THY      O33226   9.707   1.480   4.618  0.0014 -0.0974 -0.0711
 1330THY     HO33227   9.638   1.417   4.591 -2.3733  1.8136  1.1436
 1330THY    CA133228   9.749   1.523   4.501  0.3141 -0.2359  0.5354
 1330THY    CA233229   9.847   1.621   4.496  0.5053  0.0504  0.5870
 1330THY    CP133230   9.915   1.662   4.621 -0.0269 -0.9935  0.9631
 1330THY    HP133231   9.890   1.596   4.705 -0.3491  0.9759  2.4997
 1330THY    CP233232  10.071   1.671   4.613 -0.0994  0.2364 -0.0680
 1330THY    HP233233  10.104   1.632   4.710 -1.9907 -3.9661 -0.8953
 1330THY    HP333234  10.116   1.604   4.538  1.2885  0.7460  0.2749
 1330THY    HP433235  10.101   1.771   4.581 -0.1685 -0.5595 -2.9642
 1330THY    CP333236   9.853   1.797   4.662  0.3255  0.3738 -0.1056
 1330THY    HP533237   9.881   1.827   4.764  0.9231 -0.8965  0.1278
 1330THY    HP633238   9.883   1.880   4.598 -0.7952 -0.6610 -2.0578
 1330THY    HP733239   9.743   1.795   4.660  0.3097  1.0006  0.1426
 1330THY    CA333240   9.880   1.678   4.368  0.2514 -0.0795  0.4917
 1330THY    HA333241   9.967   1.743   4.365 -0.7838  1.3028 -1.0529
 1330THY    CA433242   9.815   1.633   4.252  0.5716 -0.8771 -0.0721
 1330THY    HA433243   9.837   1.669   4.152 -1.2221  2.0932  0.4745
 1330THY    CA533244   9.728   1.529   4.264  0.3140  0.3228 -0.3217
 1330THY    CM133245   9.672   1.476   4.139  0.4164 -0.4270 -0.1712
 1330THY    HM133246   9.614   1.386   4.165 -0.5538  0.3793  0.5872
 1330THY    HM233247   9.606   1.549   4.091  0.8042 -0.7426 -1.1885
 1330THY    HM333248   9.748   1.451   4.065  1.6842 -1.5433  1.4238
 1330THY    CA633249   9.690   1.479   4.383  0.1896  0.0898 -0.6169
 1330THY    HA633250   9.624   1.392   4.381  1.3900 -0.8445 -1.5075
 1331THY      O33251   7.195   9.021   9.126 -0.2764 -0.1667 -0.1325
 1331THY     HO33252   7.153   8.955   9.183  1.2945 -0.0647  1.2283
 1331THY    CA133253   7.209   8.954   9.007  0.6118 -0.1204 -0.2287
 1331THY    CA233254   7.184   9.005   8.879  0.0526 -0.3607 -0.0363
 1331THY    CP133255   7.149   9.151   8.872  0.6704  0.0645 -0.0855
 1331THY    HP133256   7.198   9.198   8.958  3.3256 -2.6522  0.0414
 1331THY    CP233257   7.198   9.222   8.738 -0.1485 -0.9271 -0.1215
 1331THY    HP233258   7.178   9.330   8.739 -2.1038 -1.2017 -1.7830
 1331THY    HP333259   7.305   9.220   8.718  0.0421  3.0022 -0.3667
 1331THY    HP433260   7.145   9.197   8.645 -0.7828  2.6373 -0.8843
 1331THY    CP333261   6.994   9.170   8.880  0.4069 -0.6719 -0.6846
 1331THY    HP533262   6.942   9.116   8.801  2.2020 -1.5579 -1.2898
 1331THY    HP633263   6.968   9.142   8.983  3.5267 -1.8706 -0.1336
 1331THY    HP733264   6.979   9.279   8.876  0.0889 -0.5479  1.8436
 1331THY    CA333265   7.216   8.930   8.764  0.6542  0.4779  0.0834
 1331THY    HA333266   7.211   8.965   8.662 -0.8028 -0.1366 -0.0741
 1331THY    CA433267   7.270   8.804   8.783 -0.2760 -0.6866 -0.2766
 1331THY    HA433268   7.293   8.750   8.691 -2.4052 -0.5398 -0.9511
 1331THY    CA533269   7.291   8.753   8.911  0.1740  0.9309 -0.4821
 1331THY    CM133270   7.351   8.621   8.917 -0.5454  0.0145 -0.4998
 1331THY    HM133271   7.324   8.556   8.832 -0.1644  0.3857 -0.9139
 1331THY    HM233272   7.460   8.632   8.907 -0.3178 -1.1744  0.4303
 1331THY    HM333273   7.344   8.573   9.015  0.6808 -0.8932 -0.8301
 1331THY    CA633274   7.254   8.827   9.028 -0.4299  0.4332 -0.1909
 1331THY    HA633275   7.269   8.784   9.126  2.2285  1.3453 -0.1285
 1332THY      O33276   4.742   4.482   3.547 -0.1709  0.2001  0.1894
 1332THY     HO33277   4.809   4.413   3.537 -0.1157  0.1111  1.1426
 1332THY    CA133278   4.629   4.420   3.591  0.3421 -0.3783  0.5649
 1332THY    CA233279   4.524   4.493   3.644  0.6261  0.1104 -0.8991
 1332THY    CP133280   4.532   4.650   3.664  0.2298  0.0600  0.2446
 1332THY    HP133281   4.632   4.687   3.639  0.2920 -0.8188 -0.8932
 1332THY    CP233282   4.431   4.730   3.570 -0.2962 -0.2913  0.2115
 1332THY    HP233283   4.330   4.708   3.607 -0.7296 -2.0275 -1.8466
 1332THY    HP333284   4.456   4.836   3.565  1.9393 -0.8297 -1.3464
 1332THY    HP433285   4.420   4.692   3.468 -2.5063 -0.9208  0.6297
 1332THY    CP333286   4.504   4.690   3.807  0.2471  0.1978  0.4502
 1332THY    HP533287   4.542   4.791   3.823  0.3296  0.4905 -1.4224
 1332THY    HP633288   4.396   4.682   3.827  0.1328 -3.2980 -0.8670
 1332THY    HP733289   4.564   4.628   3.875 -0.6470 -1.3280 -0.0860
 1332THY    CA333290   4.420   4.416   3.702  0.1884  0.1214  0.2617
 1332THY    HA333291   4.345   4.471   3.757 -0.9438 -2.3677  1.3599
 1332THY    CA433292   4.415   4.279   3.672 -0.8416 -0.5369 -0.2287
 1332THY    HA433293   4.344   4.211   3.717  0.3501 -0.8760  1.2053
 1332THY    CA533294   4.513   4.217   3.604 -0.1064  0.5519  0.3301
 1332THY    CM133295   4.515   4.067   3.596 -0.1293 -0.4076  0.0317
 1332THY    HM133296   4.573   4.033   3.509  1.0015 -0.3641  0.7532
 1332THY    HM233297   4.565   4.020   3.681 -1.0834 -3.9980 -1.2159
 1332THY    HM333298   4.412   4.032   3.580 -0.2093  1.0591 -3.8235
 1332THY    CA633299   4.623   4.288   3.557  0.1915 -0.0188 -0.3253
 1332THY    HA633300   4.704   4.231   3.512 -2.1193 -1.4977 -2.9295
 1333THY      O33301   0.514   3.690   7.843 -0.0662  0.1716  0.2374
 1333THY     HO33302   0.506   3.752   7.918  1.9747  0.5768  0.1849
 1333THY    CA133303   0.449   3.754   7.743 -0.3021 -0.2900  0.3909
 1333THY    CA233304   0.430   3.683   7.621 -0.1838 -0.1749 -0.6116
 1333THY    CP133305   0.506   3.552   7.590  0.8486 -0.8626 -1.1037
 1333THY    HP133306   0.507   3.492   7.682 -3.4762  1.9217  1.1527
 1333THY    CP233307   0.449   3.471   7.482 -0.5543 -0.3277  0.3000
 1333THY    HP233308   0.497   3.373   7.495 -1.7546 -1.1259 -0.9375
 1333THY    HP333309   0.341   3.454   7.490 -0.6692 -0.2837 -0.9721
 1333THY    HP433310   0.466   3.500   7.378 -2.5248 -0.4896 -0.1194
 1333THY    CP333311   0.655   3.586   7.557  0.1329  0.0285  0.3990
 1333THY    HP533312   0.707   3.628   7.644  1.8211 -0.3389 -0.3953
 1333THY    HP633313   0.710   3.495   7.532  0.6786  0.0713  1.3792
 1333THY    HP733314   0.669   3.653   7.471 -2.8197  0.5613  0.2305
 1333THY    CA333315   0.353   3.744   7.524 -0.2919  0.0708 -0.2131
 1333THY    HA333316   0.345   3.699   7.425  1.3050 -0.7605 -0.0068
 1333THY    CA433317   0.289   3.865   7.547  0.1482 -0.2636 -0.1925
 1333THY    HA433318   0.226   3.916   7.475 -0.7000 -0.0238  0.6814
 1333THY    CA533319   0.291   3.922   7.680  0.6131  0.2016  0.2206
 1333THY    CM133320   0.222   4.048   7.707  0.0723  0.5549  0.5086
 1333THY    HM133321   0.179   4.046   7.808 -2.8124 -0.2091 -0.6572
 1333THY    HM233322   0.287   4.136   7.697  1.1341 -0.3680 -1.1544
 1333THY    HM333323   0.134   4.045   7.643 -0.5157 -1.0335  1.3384
 1333THY    CA633324   0.375   3.868   7.779  0.3442 -0.0365  0.0075
 1333THY    HA633325   0.380   3.916   7.876 -0.5371  0.4739 -0.1826
 1334THY      O33326   7.321   9.840   4.166 -0.0406 -0.4458  0.1162
 1334THY     HO33327   7.272   9.826   4.083  1.3885 -0.5515 -0.7445
 1334THY    CA133328   7.428   9.768   4.130  0.2968  0.2639 -0.7771
 1334THY    CA233329   7.520   9.709   4.222  0.2473 -0.1171  0.0247
 1334THY    CP133330   7.497   9.730   4.371  0.4799 -0.1331  0.1446
 1334THY    HP133331   7.459   9.828   4.401  1.6891  0.2248  0.5865
 1334THY    CP233332   7.391   9.633   4.436 -0.5729  0.0357 -0.0714
 1334THY    HP233333   7.294   9.651   4.389 -1.1194 -1.2390  0.5310
 1334THY    HP333334   7.433   9.534   4.416  1.9692  0.5969  1.9545
 1334THY    HP433335   7.381   9.655   4.543 -2.2423  1.1661 -0.4126
 1334THY    CP333336   7.632   9.723   4.450  0.1345 -0.2854 -0.1727
 1334THY    HP533337   7.656   9.616   4.452 -0.8416 -0.5061  0.7397
 1334THY    HP633338   7.717   9.771   4.401  1.7210 -2.1928  0.5741
 1334THY    HP733339   7.615   9.759   4.552 -0.4178  2.2461 -1.0821
 1334THY    CA333340   7.613   9.618   4.170  0.1506 -0.3641 -0.6323
 1334THY    HA333341   7.679   9.570   4.242 -2.0171  0.7027  2.2886
 1334THY    CA433342   7.613   9.582   4.037  0.7067  0.1156  0.0820
 1334THY    HA433343   7.689   9.511   4.003 -0.2187 -0.1746 -1.4631
 1334THY    CA533344   7.524   9.642   3.952  0.1070 -0.2878 -0.3186
 1334THY    CM133345   7.506   9.603   3.811 -0.3468 -0.2435 -0.7201
 1334THY    HM133346   7.574   9.519   3.789  0.1395  0.6239 -2.7975
 1334THY    HM233347   7.403   9.569   3.796 -1.3047  1.1608  2.0381
 1334THY    HM333348   7.528   9.688   3.746 -0.4140  0.9047  0.7270
 1334THY    CA633349   7.430   9.733   3.999 -0.8570  0.0033 -0.4145
 1334THY    HA633350   7.353   9.756   3.925  0.1475 -2.5085 -2.4271
 1335THY      O33351   7.418   5.775   6.268 -1.1813 -0.5245 -0.4100
 1335THY     HO33352   7.392   5.740   6.355  1.3476  0.7606  0.9681
 1335THY    CA133353   7.424   5.910   6.292  0.9290  0.4010 -0.3137
 1335THY    CA233354   7.424   5.998   6.185 -0.4290 -0.3845  0.0418
 1335THY    CP133355   7.468   5.946   6.052 -0.3875  0.5034 -0.1102
 1335THY    HP133356   7.454   5.838   6.042  0.1942  0.1476  2.1670
 1335THY    CP233357   7.401   6.000   5.929 -0.3242 -0.4033  0.2164
 1335THY    HP233358   7.295   5.970   5.931 -0.5561  0.3486 -0.1979
 1335THY    HP333359   7.402   6.108   5.909  1.0218 -0.9584 -3.4943
 1335THY    HP433360   7.450   5.957   5.841 -0.1662 -0.1129  0.1595
 1335THY    CP333361   7.628   5.956   6.042  0.0359  0.5168 -0.3899
 1335THY    HP533362   7.669   5.886   5.968  0.6971  0.3633  0.1111
 1335THY    HP633363   7.655   6.060   6.021 -1.8127  1.8603  3.0175
 1335THY    HP733364   7.675   5.929   6.137 -0.4714 -0.9809 -0.5386
 1335THY    CA333365   7.420   6.138   6.212 -0.3453 -0.3470  0.3197
 1335THY    HA333366   7.420   6.208   6.129  0.0856  1.5159  1.8273
 1335THY    CA433367   7.406   6.186   6.344 -0.7382  0.2764  0.2443
 1335THY    HA433368   7.409   6.294   6.360 -1.1028  0.1714  1.0767
 1335THY    CA533369   7.397   6.096   6.448 -0.1861 -0.5271 -0.1267
 1335THY    CM133370   7.361   6.147   6.585  0.8519 -0.1305  0.1343
 1335THY    HM133371   7.252   6.148   6.595  0.9613 -0.6937  1.5514
 1335THY    HM233372   7.405   6.072   6.652  1.6266 -1.3810 -1.6771
 1335THY    HM333373   7.407   6.241   6.616  1.3679 -0.5719  0.7425
 1335THY    CA633374   7.416   5.957   6.424  0.5555  0.7286 -0.2592
 1335THY    HA633375   7.418   5.880   6.500  1.5852 -1.2568 -2.1898
 1336THY      O33376   1.015   9.608   0.772 -0.1810 -0.9651  0.2082
 1336THY     HO33377   1.035   9.646   0.685  1.1651 -2.3369 -0.1402
 1336THY    CA133378   1.043   9.706   0.857  0.0567 -0.3617 -0.2417
 1336THY    CA233379   1.019   9.691   0.993  0.0781  1.0508 -0.5410
 1336THY    CP133380   0.935   9.572   1.040  0.2157 -0.0194  0.3058
 1336THY    HP133381   0.950   9.488   0.972  1.3839 -0.0050  0.5352
 1336THY    CP233382   0.967   9.519   1.183 -0.3835  0.5091  0.1858
 1336THY    HP233383   1.075   9.503   1.188 -0.5008 -0.0214  1.3209
 1336THY    HP333384   0.933   9.579   1.269 -1.8112  1.0800 -0.7296
 1336THY    HP433385   0.918   9.422   1.196 -1.6733  1.1246  0.0999
 1336THY    CP333386   0.786   9.602   1.037  0.1065  1.1955 -0.3239
 1336THY    HP533387   0.766   9.682   0.965  0.1632  0.1660 -1.5181
 1336THY    HP633388   0.735   9.517   0.991  1.7502  0.8403 -1.5863
 1336THY    HP733389   0.745   9.624   1.136  1.1681  0.6242  0.2645
 1336THY    CA333390   1.065   9.786   1.085 -0.4050 -0.8128  0.2024
 1336THY    HA333391   1.037   9.785   1.190 -3.7047  0.3223 -0.5368
 1336THY    CA433392   1.129   9.905   1.040  0.0107  1.6526  1.3083
 1336THY    HA433393   1.184   9.970   1.107  1.2354  0.9804  1.0042
 1336THY    CA533394   1.135   9.917   0.900 -0.4144 -1.1201  0.1364
 1336THY    CM133395   1.226  10.024   0.848 -0.8040 -1.1253 -0.2070
 1336THY    HM133396   1.180  10.078   0.764  2.1044  2.0912  0.0026
 1336THY    HM233397   1.242  10.102   0.924  0.1606  0.2901 -1.7895
 1336THY    HM333398   1.324   9.991   0.811  1.1774  1.8185  1.9063
 1336THY    CA633399   1.095   9.822   0.813 -0.1336  0.1219 -0.4820
 1336THY    HA633400   1.100   9.837   0.706 -0.6422  1.0059 -0.3824
 1337THY      O33401   2.887   9.925   6.537 -0.9187  0.1604  0.1486
 1337THY     HO33402   2.833   9.897   6.461  1.6874 -1.1319 -1.3675
 1337THY    CA133403   2.798   9.953   6.639 -0.4667  0.5254 -0.1147
 1337THY    CA233404   2.852   9.964   6.769  0.8816 -0.3251 -0.4542
 1337THY    CP133405   2.999   9.961   6.800  0.2075  0.1609  0.2576
 1337THY    HP133406   3.065   9.977   6.714  0.2851  2.7299  0.7182
 1337THY    CP233407   3.042  10.087   6.881  0.7129 -0.0726 -0.0375
 1337THY    HP233408   3.143  10.076   6.922 -0.3466 -2.4603  2.2750
 1337THY    HP333409   3.019  10.180   6.827  1.6101  0.3502  0.2863
 1337THY    HP433410   2.983  10.086   6.974  0.6433 -2.2970 -0.0743
 1337THY    CP333411   3.051   9.825   6.855  0.3805 -0.0547  0.4617
 1337THY    HP533412   3.002   9.801   6.949  1.8786  4.0466  2.5529
 1337THY    HP633413   3.036   9.744   6.783 -0.4963  0.0843  0.4797
 1337THY    HP733414   3.156   9.822   6.887  0.3672  0.2101  0.5392
 1337THY    CA333415   2.753   9.985   6.873  0.4004  0.7290  0.5577
 1337THY    HA333416   2.776   9.981   6.979 -0.8450 -3.6953  0.8719
 1337THY    CA433417   2.615   9.985   6.840 -0.0729 -0.8895  0.4134
 1337THY    HA433418   2.543   9.983   6.921 -0.2473 -1.6635  0.2515
 1337THY    CA533419   2.576   9.984   6.704  0.5213 -0.0432  0.4263
 1337THY    CM133420   2.435   9.996   6.660 -0.4486 -0.6502 -0.3340
 1337THY    HM133421   2.405   9.912   6.596 -1.6523 -3.5294  3.6283
 1337THY    HM233422   2.371  10.001   6.748 -0.2105 -0.6586 -0.1596
 1337THY    HM333423   2.423  10.095   6.613 -0.8795 -0.8305 -0.6092
 1337THY    CA633424   2.667   9.974   6.604 -0.3017 -0.3074  0.1875
 1337THY    HA633425   2.635   9.973   6.501  0.1710 -1.9959  0.0208
 1338THY      O33426   0.006   3.896   5.137 -0.3138 -0.4002 -0.1619
 1338THY     HO33427   0.085   3.840   5.129 -1.2302 -2.3182  2.6074
 1338THY    CA133428  -0.102   3.820   5.118  0.0744 -0.0752 -0.1635
 1338THY    CA233429  -0.232   3.875   5.138  0.1198 -0.1366 -0.5804
 1338THY    CP133430  -0.263   4.013   5.195 -0.6252 -0.6994 -0.3486
 1338THY    HP133431  -0.177   4.081   5.201 -0.8386 -0.3857 -0.7848
 1338THY    CP233432  -0.359   4.090   5.112 -1.3818  0.3494  0.0846
 1338THY    HP233433  -0.449   4.029   5.096 -1.2522 -0.8473  3.2087
 1338THY    HP333434  -0.376   4.194   5.140 -0.9263  0.5811 -0.4806
 1338THY    HP433435  -0.312   4.109   5.015 -0.4991 -0.5344  0.3148
 1338THY    CP333436  -0.318   4.005   5.335  0.0356  0.6320 -1.3653
 1338THY    HP533437  -0.303   4.105   5.378  1.8350 -0.2103  0.0783
 1338THY    HP633438  -0.427   3.998   5.338  0.1074 -0.2577 -0.5020
 1338THY    HP733439  -0.265   3.932   5.398 -0.9930  1.5506  0.6634
 1338THY    CA333440  -0.342   3.787   5.116  0.3198  0.2008  0.1320
 1338THY    HA333441  -0.440   3.813   5.156  0.1465 -2.8528  2.0613
 1338THY    CA433442  -0.324   3.665   5.053 -0.4937  0.5600  0.1348
 1338THY    HA433443  -0.416   3.609   5.038 -1.9245  3.0817 -1.0741
 1338THY    CA533444  -0.193   3.621   5.024  0.2118 -0.5742 -0.2804
 1338THY    CM133445  -0.191   3.485   4.963 -0.4943  0.4861  0.2414
 1338THY    HM133446  -0.087   3.464   4.934 -0.3808  2.0359 -0.6018
 1338THY    HM233447  -0.235   3.419   5.038 -0.7588  2.3893  1.8395
 1338THY    HM333448  -0.260   3.474   4.878 -0.5003  4.4640 -0.5089
 1338THY    CA633449  -0.083   3.700   5.058  0.4410  0.7487  0.0146
 1338THY    HA633450   0.016   3.660   5.037 -0.8420 -1.1897 -2.9424
 1339THY      O33451   7.019   1.578   2.174 -0.5778  0.2604  0.1564
 1339THY     HO33452   7.049   1.521   2.101  1.7716  0.3026  1.0048
 1339THY    CA133453   6.889   1.579   2.179 -0.0851 -0.9862  0.4285
 1339THY    CA233454   6.813   1.600   2.289  0.0116  0.6101 -0.3161
 1339THY    CP133455   6.869   1.604   2.429 -0.9668 -0.4993 -0.4058
 1339THY    HP133456   6.975   1.580   2.411 -0.8363 -0.7726  0.6393
 1339THY    CP233457   6.869   1.749   2.489  0.2929  0.2211  0.0757
 1339THY    HP233458   6.926   1.816   2.425  1.2877 -0.2385  0.4625
 1339THY    HP333459   6.770   1.795   2.497  0.8851  1.3935  0.9002
 1339THY    HP433460   6.920   1.750   2.586  2.0809 -4.0714 -0.6170
 1339THY    CP333461   6.833   1.491   2.522  0.7662 -0.1257  0.3379
 1339THY    HP533462   6.726   1.485   2.544  1.0006 -2.7443  1.1779
 1339THY    HP633463   6.856   1.398   2.468 -1.4508  0.5560 -1.9505
 1339THY    HP733464   6.888   1.498   2.617  1.7335  0.7942 -0.2700
 1339THY    CA333465   6.668   1.605   2.276 -0.4621 -0.0287 -0.7626
 1339THY    HA333466   6.602   1.611   2.362 -1.4543  1.1655 -1.5563
 1339THY    CA433467   6.605   1.590   2.152  0.3185 -0.2365  0.3574
 1339THY    HA433468   6.497   1.595   2.144  0.2357 -2.8245 -0.9427
 1339THY    CA533469   6.686   1.584   2.035  1.0392 -0.4120 -0.2810
 1339THY    CM133470   6.622   1.585   1.900 -0.1760 -0.1872 -0.0006
 1339THY    HM133471   6.571   1.491   1.878 -0.8236 -0.0230  0.7330
 1339THY    HM233472   6.544   1.663   1.905  1.4704  1.5526 -0.2917
 1339THY    HM333473   6.691   1.606   1.818 -1.1922 -0.7212 -1.0271
 1339THY    CA633474   6.827   1.583   2.051  0.1405  0.9245 -0.0044
 1339THY    HA633475   6.877   1.587   1.955 -1.7199 -1.3173 -1.1755
 1340THY      O33476   8.713   9.394   3.750  0.1460  0.1293  0.6261
 1340THY     HO33477   8.639   9.450   3.780  0.1182  0.8370 -0.6964
 1340THY    CA133478   8.679   9.354   3.623 -1.1263 -0.4367  0.3879
 1340THY    CA233479   8.735   9.241   3.563  0.0304 -0.1971 -0.3724
 1340THY    CP133480   8.835   9.150   3.633 -0.0858 -0.0811 -0.2466
 1340THY    HP133481   8.853   9.190   3.733 -0.0836  1.6093 -0.8911
 1340THY    CP233482   8.782   9.012   3.651  0.3443 -0.7779 -0.5159
 1340THY    HP233483   8.804   8.944   3.569 -0.4486  0.5319 -1.8575
 1340THY    HP333484   8.832   8.980   3.743  1.0302  1.6352  0.0269
 1340THY    HP433485   8.674   9.001   3.667  0.0226  2.5218  0.3100
 1340THY    CP333486   8.974   9.148   3.566 -0.6991 -0.0490  0.1567
 1340THY    HP533487   9.046   9.092   3.627  0.0600 -1.3365 -1.8259
 1340THY    HP633488   8.966   9.097   3.470 -1.9911 -0.9302  0.6972
 1340THY    HP733489   9.028   9.240   3.546  3.3582 -2.2234  0.0712
 1340THY    CA333490   8.699   9.213   3.438 -0.2725  0.4965  0.1516
 1340THY    HA333491   8.735   9.121   3.392  2.8424  1.6367  0.0679
 1340THY    CA433492   8.624   9.295   3.358  0.4385 -0.1170  0.0369
 1340THY    HA433493   8.613   9.274   3.252 -0.8636 -0.6046  0.2542
 1340THY    CA533494   8.573   9.410   3.413 -0.5260  0.2989  0.0542
 1340THY    CM133495   8.497   9.515   3.324  0.0691  0.2042  0.1833
 1340THY    HM133496   8.554   9.579   3.256  0.9421  0.5348  1.1938
 1340THY    HM233497   8.427   9.457   3.263 -2.2300  1.1056  1.8249
 1340THY    HM333498   8.440   9.583   3.388 -0.4622 -0.6139  0.5932
 1340THY    CA633499   8.595   9.435   3.552  0.0281 -0.2003  0.8378
 1340THY    HA633500   8.558   9.529   3.592 -0.9052 -0.0893 -0.2420
 1341THY      O33501   7.226   9.514   6.974  0.5053  0.3492 -0.2487
 1341THY     HO33502   7.236   9.517   6.877 -1.0652 -0.0555 -0.4523
 1341THY    CA133503   7.352   9.521   7.031 -0.0552  0.5511 -0.2137
 1341THY    CA233504   7.379   9.541   7.169  0.1676  0.3327 -0.6096
 1341THY    CP133505   7.264   9.576   7.262 -0.4699 -0.0650 -0.9489
 1341THY    HP133506   7.165   9.561   7.217 -1.7618  2.8136  0.7015
 1341THY    CP233507   7.262   9.505   7.402  0.1124  0.3513  0.1139
 1341THY    HP233508   7.358   9.524   7.452  0.2672 -0.2073  0.0352
 1341THY    HP333509   7.179   9.527   7.471 -0.9119 -0.5754 -0.7946
 1341THY    HP433510   7.251   9.398   7.382 -0.1932  0.3797  0.1300
 1341THY    CP333511   7.271   9.733   7.289 -0.1305 -0.1235  0.2187
 1341THY    HP533512   7.364   9.764   7.339 -1.6179  0.8091  2.6240
 1341THY    HP633513   7.245   9.785   7.196 -0.2262 -0.6477 -0.0528
 1341THY    HP733514   7.191   9.755   7.361 -1.5873  1.4543 -1.7685
 1341THY    CA333515   7.514   9.520   7.219  0.5342 -0.1236  0.3721
 1341THY    HA333516   7.543   9.532   7.323 -0.8632 -0.7844  0.8576
 1341THY    CA433517   7.616   9.485   7.124  1.0567 -0.2786 -0.0027
 1341THY    HA433518   7.715   9.472   7.167 -0.0733 -2.4541  2.2045
 1341THY    CA533519   7.594   9.495   6.989  0.1076 -0.0889  0.6828
 1341THY    CM133520   7.712   9.479   6.901 -0.9651  0.0243  0.1645
 1341THY    HM133521   7.695   9.419   6.810  1.2195  0.2024 -0.4284
 1341THY    HM233522   7.756   9.572   6.862  0.8854 -0.5398  0.8023
 1341THY    HM333523   7.794   9.435   6.958 -1.3242 -0.6940  0.1331
 1341THY    CA633524   7.462   9.500   6.940 -0.0509 -0.2446 -0.0089
 1341THY    HA633525   7.443   9.495   6.833  0.7439  0.3097 -0.1899
 1342THY      O33526   1.771   9.197   2.043 -0.4302 -0.1533  0.7046
 1342THY     HO33527   1.837   9.145   2.092 -0.7036 -1.2396 -0.0418
 1342THY    CA133528   1.682   9.249   2.131 -0.3773  0.4307  0.7375
 1342THY    CA233529   1.571   9.314   2.095  0.8341  0.3279 -0.2189
 1342THY    CP133530   1.514   9.308   1.953  0.0330 -0.3848 -0.1004
 1342THY    HP133531   1.545   9.219   1.898 -1.7591 -0.3386 -1.2674
 1342THY    CP233532   1.360   9.305   1.941  0.0160 -0.4391 -0.0577
 1342THY    HP233533   1.309   9.224   1.994 -1.7856  1.4168  1.1966
 1342THY    HP333534   1.308   9.397   1.971 -0.7010 -1.3154  1.4877
 1342THY    HP433535   1.332   9.305   1.835  0.3738  0.8843 -0.1779
 1342THY    CP333536   1.570   9.430   1.876 -0.9902  0.3222 -0.8448
 1342THY    HP533537   1.511   9.514   1.913  0.3736  0.0872  2.1390
 1342THY    HP633538   1.677   9.444   1.893 -0.4249 -1.1460 -2.8018
 1342THY    HP733539   1.568   9.424   1.767  2.4449  0.3358 -1.0307
 1342THY    CA333540   1.504   9.385   2.198  0.1301  0.5288 -0.0029
 1342THY    HA333541   1.410   9.433   2.170  0.7274  1.7376 -0.0024
 1342THY    CA433542   1.546   9.398   2.331 -0.5891 -0.3403  0.7090
 1342THY    HA433543   1.501   9.471   2.398 -0.4189 -0.7653  1.2923
 1342THY    CA533544   1.664   9.328   2.362 -0.4741 -0.1001 -0.2246
 1342THY    CM133545   1.726   9.325   2.502 -0.2683 -0.2906  0.3196
 1342THY    HM133546   1.836   9.327   2.498 -0.2470 -0.6514  0.7179
 1342THY    HM233547   1.698   9.421   2.547 -1.6857 -1.1524  1.3659
 1342THY    HM333548   1.690   9.238   2.558 -2.3078 -0.9042 -1.7508
 1342THY    CA633549   1.727   9.255   2.261  0.1336 -0.3778  1.1017
 1342THY    HA633550   1.820   9.206   2.287 -0.7623 -2.9197 -0.1253
 1343THY      O33551   9.529   8.752   5.181 -0.0565 -0.4955  0.3767
 1343THY     HO33552   9.574   8.667   5.168 -1.5694 -1.0421 -1.8189
 1343THY    CA133553   9.498   8.771   5.313  0.0089  1.1444  0.2671
 1343THY    CA233554   9.424   8.877   5.367  0.1413 -0.0205  0.2508
 1343THY    CP133555   9.381   8.996   5.276 -0.0148 -0.1359 -0.1910
 1343THY    HP133556   9.424   8.988   5.176  1.9106 -0.1643  0.5987
 1343THY    CP233557   9.227   9.002   5.270  0.3920  0.5210 -1.0340
 1343THY    HP233558   9.186   8.904   5.243 -0.6878  0.7683 -0.3235
 1343THY    HP333559   9.188   9.031   5.368  0.1150  0.9387 -1.2677
 1343THY    HP433560   9.181   9.073   5.201 -0.5844  1.3206  0.3705
 1343THY    CP333561   9.431   9.128   5.328 -0.1616 -0.2929 -1.0801
 1343THY    HP533562   9.541   9.127   5.328 -0.0638 -0.2766  2.3879
 1343THY    HP633563   9.402   9.206   5.256 -1.1619  0.4689  0.1144
 1343THY    HP733564   9.388   9.161   5.423 -1.5849 -0.4070 -1.6534
 1343THY    CA333565   9.391   8.880   5.504  0.3579 -0.1923 -0.2398
 1343THY    HA333566   9.338   8.966   5.546 -1.6921 -0.3159 -2.3256
 1343THY    CA433567   9.416   8.765   5.582 -0.5401  0.3887 -0.1476
 1343THY    HA433568   9.383   8.755   5.685 -0.5794  1.1168 -0.0884
 1343THY    CA533569   9.490   8.662   5.521  0.3548  0.0576 -0.6277
 1343THY    CM133570   9.513   8.539   5.604 -0.5481 -0.6823 -0.1598
 1343THY    HM133571   9.529   8.554   5.712 -2.2524 -0.5807  0.1085
 1343THY    HM233572   9.426   8.473   5.606  0.0200 -1.5208 -1.5011
 1343THY    HM333573   9.605   8.487   5.575  1.0169  0.9673  1.5399
 1343THY    CA633574   9.538   8.661   5.397  0.2683 -0.1521 -0.3427
 1343THY    HA633575   9.597   8.581   5.354  0.1742  0.4053 -1.5465
 1344THY      O33576   8.270   6.343   1.071  0.1021 -0.4286  0.7720
 1344THY     HO33577   8.349   6.286   1.076  1.0740  0.2583 -3.2963
 1344THY    CA133578   8.306   6.456   1.130  0.3081  0.1349  0.5456
 1344THY    CA233579   8.273   6.584   1.076  1.0426 -0.1831 -0.2231
 1344THY    CP133580   8.206   6.592   0.942 -0.4512  0.6025 -0.3801
 1344THY    HP133581   8.217   6.493   0.898 -0.0249 -1.0856  3.1463
 1344THY    CP233582   8.055   6.606   0.938  0.0561  0.1019  0.0377
 1344THY    HP233583   8.006   6.566   0.849  0.2824 -0.4940  0.1780
 1344THY    HP333584   8.004   6.563   1.024 -1.5554  1.4979 -0.1610
 1344THY    HP433585   8.017   6.708   0.957 -2.3017 -0.7337  0.1552
 1344THY    CP333586   8.276   6.687   0.841 -0.2045 -0.5729  0.4297
 1344THY    HP533587   8.269   6.655   0.737 -4.0090 -2.4421  1.1055
 1344THY    HP633588   8.235   6.788   0.838  1.6083  0.2012  0.0817
 1344THY    HP733589   8.385   6.694   0.849 -0.3730  1.5760  1.4560
 1344THY    CA333590   8.306   6.703   1.150 -0.1053  0.0255 -0.7289
 1344THY    HA333591   8.269   6.800   1.118  1.6849  0.6525 -0.9852
 1344THY    CA433592   8.396   6.684   1.261  0.2046 -0.1776  0.1902
 1344THY    HA433593   8.429   6.766   1.324 -1.6678 -0.7147  1.9873
 1344THY    CA533594   8.423   6.557   1.314 -0.4827 -0.2017  0.4097
 1344THY    CM133595   8.511   6.538   1.439 -0.4255  1.0177 -0.2746
 1344THY    HM133596   8.437   6.492   1.506 -1.1919  0.7710 -1.2616
 1344THY    HM233597   8.595   6.469   1.429  0.4832  2.1322 -0.5622
 1344THY    HM333598   8.541   6.635   1.481  0.0827  0.5324  0.4900
 1344THY    CA633599   8.385   6.449   1.239  0.3438  1.0851 -0.5558
 1344THY    HA633600   8.420   6.352   1.275  0.2801  0.8963 -0.9977
 1345THY      O33601   7.677   9.255   1.043 -0.1418  0.0655 -0.2982
 1345THY     HO33602   7.588   9.273   1.008 -0.9097 -1.1127  0.9631
 1345THY    CA133603   7.730   9.162   0.957  0.4937  0.1392  0.1718
 1345THY    CA233604   7.645   9.080   0.883  0.7871 -0.1952 -0.2560
 1345THY    CP133605   7.493   9.096   0.899 -0.1982  0.5151 -0.7648
 1345THY    HP133606   7.464   9.136   0.997  2.7258 -1.3491  0.9820
 1345THY    CP233607   7.444   9.200   0.807 -0.8706  0.0158 -0.1767
 1345THY    HP233608   7.501   9.293   0.816  0.7042 -0.6075 -2.7492
 1345THY    HP333609   7.451   9.165   0.704 -4.1673 -1.1197 -0.1381
 1345THY    HP433610   7.344   9.242   0.824 -0.9006  1.4261 -3.2221
 1345THY    CP333611   7.409   8.967   0.890  0.1123 -0.1084  0.7456
 1345THY    HP533612   7.306   8.985   0.925 -1.1276  0.5696 -2.8490
 1345THY    HP633613   7.400   8.916   0.794  1.4103 -2.3120  1.7094
 1345THY    HP733614   7.464   8.895   0.952  0.7070 -0.2564  0.0548
 1345THY    CA333615   7.694   8.995   0.785  0.0454 -0.0463  0.9797
 1345THY    HA333616   7.624   8.946   0.718  1.9862  0.1656 -1.3537
 1345THY    CA433617   7.832   8.976   0.770  0.1053  0.8719 -0.2253
 1345THY    HA433618   7.849   8.910   0.685 -1.5592  0.4814 -0.2887
 1345THY    CA533619   7.926   9.053   0.842  0.8191  0.2733 -0.2041
 1345THY    CM133620   8.064   9.037   0.811 -1.1951  0.7355  0.3305
 1345THY    HM133621   8.104   9.104   0.733  0.7540 -1.8560 -1.0411
 1345THY    HM233622   8.121   9.058   0.903  0.4408  0.4729 -0.5840
 1345THY    HM333623   8.106   8.940   0.784  1.3658  2.0764 -0.8858
 1345THY    CA633624   7.870   9.148   0.936  0.1732  0.6031 -0.1242
 1345THY    HA633625   7.943   9.205   0.993 -0.4708 -0.2555  1.6534
 1346THY      O33626   8.200   7.418   2.551 -0.1782 -0.2315  0.1770
 1346THY     HO33627   8.270   7.356   2.579  2.1588  2.5993  1.0983
 1346THY    CA133628   8.253   7.496   2.455 -0.4451 -0.1185  0.1296
 1346THY    CA233629   8.189   7.613   2.404 -0.4612  0.7564 -0.9863
 1346THY    CP133630   8.054   7.652   2.462  0.3282 -0.3636  0.0667
 1346THY    HP133631   8.030   7.589   2.548  1.0234 -1.0397 -0.2288
 1346THY    CP233632   8.060   7.795   2.529  0.1817 -0.1339 -0.1759
 1346THY    HP233633   8.120   7.862   2.467  0.0661  1.2095  1.1160
 1346THY    HP333634   7.960   7.839   2.540  0.9944  1.4893  1.1139
 1346THY    HP433635   8.112   7.790   2.626 -0.7570 -1.4042  0.2994
 1346THY    CP333636   7.932   7.642   2.356 -0.1770 -0.2646 -1.0974
 1346THY    HP533637   7.832   7.662   2.396 -0.0516 -0.6393 -0.5948
 1346THY    HP633638   7.947   7.723   2.283 -0.8985 -0.2117 -1.1923
 1346THY    HP733639   7.920   7.539   2.319 -1.9824 -0.3020 -0.5194
 1346THY    CA333640   8.261   7.691   2.301 -0.2856 -0.1239  0.1668
 1346THY    HA333641   8.203   7.770   2.254  0.3072 -0.2606 -0.8070
 1346THY    CA433642   8.391   7.660   2.260 -0.2320  0.2883  0.6460
 1346THY    HA433643   8.442   7.722   2.187  1.4194 -0.0139  1.4903
 1346THY    CA533644   8.454   7.555   2.325  0.5522  0.4627 -0.4755
 1346THY    CM133645   8.599   7.513   2.295 -0.4719  0.2954 -0.5160
 1346THY    HM133646   8.629   7.444   2.374 -2.8552 -0.1905  0.0609
 1346THY    HM233647   8.606   7.453   2.204 -0.8528 -1.5497  0.6111
 1346THY    HM333648   8.669   7.596   2.285 -0.6305  0.4212 -0.5978
 1346THY    CA633649   8.386   7.468   2.419 -0.2160 -0.1261 -0.3326
 1346THY    HA633650   8.442   7.390   2.470 -0.1977 -0.3536 -0.6958
 1347THY      O33651   0.520   2.661   4.881  0.0270  0.5043  0.3486
 1347THY     HO33652   0.495   2.614   4.962 -2.1103  1.6286  0.3857
 1347THY    CA133653   0.432   2.768   4.877 -0.0145  0.2459  0.2392
 1347THY    CA233654   0.440   2.864   4.782 -0.4056 -0.0672 -0.6339
 1347THY    CP133655   0.524   2.835   4.663  0.3017 -0.3516 -0.1884
 1347THY    HP133656   0.561   2.732   4.666 -2.7608 -1.5329  1.3299
 1347THY    CP233657   0.446   2.837   4.533 -0.0679 -0.3758  0.6513
 1347THY    HP233658   0.357   2.778   4.555  1.6054 -3.3318  0.0897
 1347THY    HP333659   0.420   2.938   4.499 -0.1421 -1.0848 -1.6237
 1347THY    HP433660   0.504   2.787   4.454 -0.7060 -1.4315  0.8368
 1347THY    CP333661   0.641   2.933   4.657  0.2733  0.1047 -0.4045
 1347THY    HP533662   0.703   2.936   4.748 -1.3206 -0.8566  0.7452
 1347THY    HP633663   0.718   2.911   4.582  1.2082  0.9460  0.2769
 1347THY    HP733664   0.612   3.034   4.627  2.5033  0.4884 -1.4977
 1347THY    CA333665   0.380   2.991   4.801  0.2242 -0.2119  0.4594
 1347THY    HA333666   0.390   3.077   4.736 -0.4551  0.4426  1.1812
 1347THY    CA433667   0.280   2.999   4.902  0.2902  0.2392  0.2322
 1347THY    HA433668   0.238   3.095   4.932  0.8539  1.0814 -1.4967
 1347THY    CA533669   0.258   2.884   4.987  0.5027  0.1174  0.9547
 1347THY    CM133670   0.159   2.886   5.102 -0.3609 -0.7950 -0.4242
 1347THY    HM133671   0.061   2.900   5.054 -0.6049  0.3875  0.3768
 1347THY    HM233672   0.150   2.787   5.147 -1.4905 -0.3937  0.2963
 1347THY    HM333673   0.188   2.956   5.181  0.1930 -2.2610  0.7113
 1347THY    CA633674   0.334   2.770   4.974 -0.2305 -0.1920 -0.0831
 1347THY    HA633675   0.327   2.690   5.047 -1.4002 -2.6904 -2.7270
 1348THY      O33676   5.131   4.720   7.280  0.2951  0.1191  0.1934
 1348THY     HO33677   5.046   4.724   7.327 -0.1913  2.0063 -0.7816
 1348THY    CA133678   5.183   4.601   7.329  0.7053 -0.7790  0.2075
 1348THY    CA233679   5.315   4.572   7.313 -0.7758 -0.1911  0.0505
 1348THY    CP133680   5.416   4.657   7.241 -0.0593 -0.2466  0.0726
 1348THY    HP133681   5.368   4.744   7.195 -3.6174 -1.1728  1.7014
 1348THY    CP233682   5.526   4.685   7.353  0.0003  0.4727  0.9717
 1348THY    HP233683   5.480   4.688   7.452 -2.0812  0.7794  0.0594
 1348THY    HP333684   5.613   4.619   7.357  0.4107  1.0858  4.2252
 1348THY    HP433685   5.568   4.782   7.322 -1.3890  0.4035 -1.4121
 1348THY    CP333686   5.465   4.570   7.120 -0.2551 -0.2686 -0.3213
 1348THY    HP533687   5.545   4.632   7.079 -0.0974 -1.1046 -1.3245
 1348THY    HP633688   5.501   4.470   7.148 -0.5485 -0.2443  0.1616
 1348THY    HP733689   5.377   4.570   7.055 -1.6381 -0.4902  1.4460
 1348THY    CA333690   5.373   4.455   7.376  0.2402  0.1423  0.3556
 1348THY    HA333691   5.478   4.425   7.375  0.3528  0.2238 -2.9780
 1348THY    CA433692   5.285   4.364   7.443  0.0972 -0.4926 -0.8120
 1348THY    HA433693   5.319   4.275   7.495 -2.7469 -0.0771  2.1457
 1348THY    CA533694   5.147   4.397   7.457  0.0098 -0.8193 -0.1614
 1348THY    CM133695   5.058   4.317   7.543 -0.2861 -0.7553  0.4169
 1348THY    HM133696   4.952   4.345   7.533 -0.3208 -1.1007 -0.2287
 1348THY    HM233697   5.081   4.212   7.522 -0.0308 -0.6578  0.2044
 1348THY    HM333698   5.087   4.335   7.647 -3.2747  1.0895  1.0625
 1348THY    CA633699   5.096   4.511   7.394 -0.0399  0.4349 -0.1320
 1348THY    HA633700   4.990   4.534   7.398  0.3908  2.4962  1.6651
 1349THY      O33701   3.639   9.377   4.469 -0.2725 -0.2063  0.1246
 1349THY     HO33702   3.612   9.396   4.377 -2.5880  1.9345  1.1550
 1349THY    CA133703   3.559   9.273   4.513 -0.4879 -0.6542 -0.3736
 1349THY    CA233704   3.578   9.217   4.640  0.1589 -0.7081 -0.0789
 1349THY    CP133705   3.685   9.270   4.739 -0.1676 -0.5995  0.5174
 1349THY    HP133706   3.706   9.376   4.722  0.5082 -0.9671 -1.1099
 1349THY    CP233707   3.642   9.260   4.884 -0.3696 -0.5739 -0.3635
 1349THY    HP233708   3.548   9.313   4.906 -0.3923 -1.7058  2.7169
 1349THY    HP333709   3.633   9.154   4.912 -2.5355 -0.8675 -1.8672
 1349THY    HP433710   3.718   9.313   4.941 -0.3655 -1.7496  0.7697
 1349THY    CP333711   3.817   9.190   4.708 -0.2664  0.4781 -0.0059
 1349THY    HP533712   3.910   9.220   4.759  0.7531 -0.5355 -1.2206
 1349THY    HP633713   3.788   9.086   4.728 -0.7003  0.4029 -0.9855
 1349THY    HP733714   3.841   9.189   4.601  0.5697 -0.1651  0.1733
 1349THY    CA333715   3.502   9.107   4.670 -0.9724  0.2893  0.2704
 1349THY    HA333716   3.514   9.063   4.769  1.1857 -0.2578 -0.1992
 1349THY    CA433717   3.408   9.061   4.575 -0.2588 -0.0101 -0.5847
 1349THY    HA433718   3.339   8.981   4.602 -2.6037  2.3767  1.0258
 1349THY    CA533719   3.381   9.123   4.451 -0.6253  0.3443 -0.2531
 1349THY    CM133720   3.282   9.068   4.361  0.2672  0.4005 -0.6623
 1349THY    HM133721   3.274   8.960   4.375 -1.4410  0.3463 -1.7766
 1349THY    HM233722   3.181   9.105   4.385  0.2302 -0.9543  1.5006
 1349THY    HM333723   3.316   9.092   4.259  2.6695 -1.3800 -0.3693
 1349THY    CA633724   3.459   9.235   4.422  0.2633  0.0686 -0.4319
 1349THY    HA633725   3.458   9.279   4.323 -0.9760 -1.1211 -0.9776
 1350THY      O33726   3.317   9.949   8.953  0.0480  0.4364  0.0752
 1350THY     HO33727   3.331   9.904   9.038 -1.2268  2.0849  1.2109
 1350THY    CA133728   3.308   9.857   8.851  0.2120  0.0190  0.2826
 1350THY    CA233729   3.285   9.897   8.718 -0.4443 -0.4070  0.4902
 1350THY    CP133730   3.288  10.043   8.673 -0.2392  0.2017 -0.0637
 1350THY    HP133731   3.270  10.111   8.757 -0.4805 -1.9784  1.7474
 1350THY    CP233732   3.435  10.080   8.631 -0.0195  0.5389 -0.0282
 1350THY    HP233733   3.501  10.078   8.718 -0.6754 -0.1344  0.4736
 1350THY    HP333734   3.484  10.009   8.563  1.4512 -1.8496  3.2670
 1350THY    HP433735   3.439  10.179   8.584 -0.5073  0.3959 -0.3781
 1350THY    CP333736   3.198  10.064   8.554  0.3095 -0.4759  0.1004
 1350THY    HP533737   3.174  10.171   8.542 -1.1436 -0.7775  0.1278
 1350THY    HP633738   3.246  10.023   8.465  2.2130  1.6351  0.0599
 1350THY    HP733739   3.099  10.018   8.563 -1.3713  1.1029 -5.8946
 1350THY    CA333740   3.269   9.793   8.617  0.0437 -0.1422 -0.5112
 1350THY    HA333741   3.245   9.809   8.512  1.0983 -1.4144 -0.9726
 1350THY    CA433742   3.271   9.660   8.663 -0.5556  0.2100  0.0899
 1350THY    HA433743   3.248   9.583   8.589  3.0030 -1.1903  0.2436
 1350THY    CA533744   3.303   9.625   8.793 -0.1063 -0.6676 -0.1574
 1350THY    CM133745   3.313   9.472   8.831  0.0646 -0.3454  0.2700
 1350THY    HM133746   3.420   9.447   8.834  0.0227 -1.1349 -2.3318
 1350THY    HM233747   3.275   9.450   8.931 -0.6190 -0.0326  0.0825
 1350THY    HM333748   3.261   9.404   8.762 -1.7610 -1.9646  3.0461
 1350THY    CA633749   3.321   9.725   8.886 -0.1088  0.1821  0.5161
 1350THY    HA633750   3.343   9.704   8.990 -1.0195  1.8956  1.0960
 1351THY      O33751   2.064   2.569   8.592 -0.1800  0.5019 -0.6676
 1351THY     HO33752   2.146   2.536   8.632 -0.4979 -0.1791 -0.5656
 1351THY    CA133753   1.971   2.487   8.612  0.7218  0.1921 -0.1520
 1351THY    CA233754   1.838   2.530   8.634 -0.2901 -0.2219 -0.1731
 1351THY    CP133755   1.802   2.670   8.598  0.5097 -1.0423  0.0026
 1351THY    HP133756   1.872   2.709   8.523 -0.5361  0.6411 -0.1524
 1351THY    CP233757   1.677   2.676   8.516  0.6173 -0.2564  0.2143
 1351THY    HP233758   1.594   2.675   8.587  2.0110  0.6466  1.9354
 1351THY    HP333759   1.673   2.775   8.469  2.1579  0.0908  0.7835
 1351THY    HP433760   1.658   2.596   8.443 -0.3546  0.2496 -0.1127
 1351THY    CP333761   1.787   2.754   8.722  0.4006  0.4222 -0.5684
 1351THY    HP533762   1.871   2.742   8.791 -0.9586 -0.4344  1.0182
 1351THY    HP633763   1.761   2.859   8.703 -1.6063 -0.0701 -0.7988
 1351THY    HP733764   1.703   2.716   8.781  0.5459 -0.6380 -1.0314
 1351THY    CA333765   1.743   2.437   8.686  0.9619 -0.0294  0.5205
 1351THY    HA333766   1.641   2.467   8.707  1.0724  2.2080 -1.6516
 1351THY    CA433767   1.776   2.304   8.701 -1.2964  0.6639  0.1503
 1351THY    HA433768   1.699   2.234   8.732 -3.2172  1.5647 -2.2705
 1351THY    CA533769   1.908   2.259   8.678  0.2237  0.0560  1.1209
 1351THY    CM133770   1.958   2.112   8.705  0.0309 -0.1557  0.4527
 1351THY    HM133771   1.881   2.048   8.661  2.3569 -2.3805 -0.6040
 1351THY    HM233772   2.055   2.088   8.662 -0.2330 -1.9954  0.7962
 1351THY    HM333773   1.957   2.095   8.813 -1.8799 -1.2808  0.2992
 1351THY    CA633774   2.004   2.356   8.635 -0.9686  0.4892  0.3521
 1351THY    HA633775   2.103   2.318   8.609 -1.2438  0.2860 -0.4323
 1352THY      O33776   3.413   7.127   4.236 -0.0765  0.2837  0.5208
 1352THY     HO33777   3.381   7.041   4.268  1.2874  0.0319  1.2996
 1352THY    CA133778   3.462   7.178   4.344  0.6537 -0.0534  0.0572
 1352THY    CA233779   3.470   7.325   4.354  0.5892 -0.0542 -0.1296
 1352THY    CP133780   3.441   7.412   4.237  0.7064  0.1050  0.0759
 1352THY    HP133781   3.379   7.359   4.164 -0.0213  0.3513  0.5034
 1352THY    CP233782   3.367   7.545   4.266  0.4508  0.9222  0.2199
 1352THY    HP233783   3.410   7.597   4.353  0.7076 -2.0514  1.9950
 1352THY    HP333784   3.371   7.622   4.188 -0.9287 -0.4314 -1.2602
 1352THY    HP433785   3.263   7.524   4.294  1.4335  0.4010  4.0851
 1352THY    CP333786   3.568   7.446   4.158 -0.0326 -0.0307 -0.1510
 1352THY    HP533787   3.618   7.535   4.198 -1.6026  1.8661 -2.1599
 1352THY    HP633788   3.627   7.354   4.168 -0.7194 -0.3922  0.7249
 1352THY    HP733789   3.532   7.462   4.056 -0.8099 -2.1073 -0.2529
 1352THY    CA333790   3.499   7.382   4.487  0.5219  0.1897  0.0900
 1352THY    HA333791   3.492   7.490   4.503 -1.4815  0.5336 -2.4709
 1352THY    CA433792   3.511   7.298   4.599 -0.0808  0.0235  0.6350
 1352THY    HA433793   3.529   7.338   4.699  1.7476  1.0573 -0.0737
 1352THY    CA533794   3.509   7.155   4.585 -0.1285 -1.0149 -0.6439
 1352THY    CM133795   3.515   7.073   4.714  0.3865  0.3130 -0.1481
 1352THY    HM133796   3.617   7.076   4.752  0.5951  2.1574 -0.7493
 1352THY    HM233797   3.462   7.129   4.791  1.9934  1.2863  0.2903
 1352THY    HM333798   3.467   6.976   4.695 -1.4763  0.9766  0.8964
 1352THY    CA633799   3.478   7.099   4.463  0.2622 -0.5919  0.8599
 1352THY    HA633800   3.464   6.991   4.460  2.6089 -1.1203  3.5094
 1353THY      O33801   8.041   5.947   2.671 -0.7712  0.0435  0.0242
 1353THY     HO33802   7.971   5.945   2.738  1.7168  2.4692  2.9337
 1353THY    CA133803   7.997   5.879   2.562  0.1580 -0.6465 -0.6374
 1353THY    CA233804   8.094   5.844   2.467 -0.0157 -0.2595  0.0298
 1353THY    CP133805   8.237   5.893   2.477 -0.6167 -0.0446 -0.3692
 1353THY    HP133806   8.245   5.990   2.525 -2.0106 -0.2629  0.3345
 1353THY    CP233807   8.316   5.774   2.539 -0.3920  0.5325  0.0898
 1353THY    HP233808   8.269   5.736   2.631 -1.9704  1.7552 -0.1586
 1353THY    HP333809   8.313   5.697   2.461  1.0283  1.3147 -0.7585
 1353THY    HP433810   8.420   5.800   2.562  0.0547 -0.4048 -0.8099
 1353THY    CP333811   8.300   5.913   2.337  1.1579 -0.5745 -0.5078
 1353THY    HP533812   8.228   5.976   2.284 -0.0026 -1.0813  0.4095
 1353THY    HP633813   8.388   5.978   2.346  1.3810 -1.0101  0.6778
 1353THY    HP733814   8.320   5.820   2.282  0.3279 -2.2759  1.8803
 1353THY    CA333815   8.047   5.770   2.357  0.5749  0.0396  1.3838
 1353THY    HA333816   8.115   5.730   2.283  0.6004  0.4675  1.1690
 1353THY    CA433817   7.910   5.729   2.359 -0.0725  0.0431  0.4687
 1353THY    HA433818   7.889   5.669   2.270 -0.1696  0.1826  0.3964
 1353THY    CA533819   7.822   5.766   2.453  1.0512 -0.0308 -0.2856
 1353THY    CM133820   7.673   5.722   2.442  0.8751 -0.8931  0.2185
 1353THY    HM133821   7.647   5.690   2.341  1.1264 -0.2670 -0.0516
 1353THY    HM233822   7.661   5.646   2.520  0.1207  0.7839  1.8278
 1353THY    HM333823   7.616   5.809   2.476 -1.5997 -2.5125  0.4403
 1353THY    CA633824   7.865   5.851   2.557 -0.0813 -0.3531  0.1113
 1353THY    HA633825   7.788   5.874   2.630 -1.7425  0.5570 -1.8496
 1354THY      O33826   6.029   1.991   8.444 -0.1604  0.2698  0.3886
 1354THY     HO33827   5.965   1.930   8.404  1.6295 -1.0042 -0.6554
 1354THY    CA133828   5.974   2.059   8.547  0.9256  0.2430  0.4536
 1354THY    CA233829   6.066   2.107   8.646 -0.1253  0.1867 -0.5636
 1354THY    CP133830   6.212   2.056   8.660 -0.5356 -0.4226 -0.2294
 1354THY    HP133831   6.213   1.947   8.652 -0.4837 -0.5045  0.7833
 1354THY    CP233832   6.303   2.115   8.558  0.1310  0.6974  0.0575
 1354THY    HP233833   6.257   2.125   8.459 -0.8953  1.3021  0.5697
 1354THY    HP333834   6.326   2.220   8.580 -0.8933  0.7442  0.9959
 1354THY    HP433835   6.393   2.053   8.556 -1.4260 -1.7093  0.5712
 1354THY    CP333836   6.275   2.082   8.798  0.1716  0.2576 -0.6013
 1354THY    HP533837   6.377   2.044   8.805 -0.2900 -0.8692  0.2487
 1354THY    HP633838   6.287   2.190   8.813 -1.6500  0.5423 -0.8641
 1354THY    HP733839   6.209   2.043   8.876 -0.3382 -0.4492 -1.3677
 1354THY    CA333840   6.010   2.201   8.742 -0.1590  0.1007  0.5304
 1354THY    HA333841   6.062   2.244   8.827 -4.5181 -0.5216  3.8954
 1354THY    CA433842   5.881   2.248   8.723 -0.2840  0.7381 -0.6252
 1354THY    HA433843   5.851   2.325   8.792  2.2200  0.0344  1.4002
 1354THY    CA533844   5.792   2.179   8.637 -0.0034  0.1807  0.0617
 1354THY    CM133845   5.652   2.211   8.636  0.4292 -0.8397  0.0198
 1354THY    HM133846   5.587   2.145   8.693 -1.5297  3.7933  3.8123
 1354THY    HM233847   5.646   2.307   8.689  0.4122 -2.2145  2.6389
 1354THY    HM333848   5.611   2.232   8.536 -1.5644 -0.4993  0.8788
 1354THY    CA633849   5.836   2.093   8.545 -0.1149  0.4102  0.2207
 1354THY    HA633850   5.770   2.053   8.469 -0.1167 -0.8345  0.8530
 1355THY      O33851   7.037   4.289   1.489  0.3820  0.7541  0.6860
 1355THY     HO33852   7.056   4.212   1.433 -0.8099  1.0229 -0.1249
 1355THY    CA133853   6.931   4.336   1.434 -0.2119 -0.3371  0.5843
 1355THY    CA233854   6.861   4.448   1.482 -0.1468  0.2421 -0.0762
 1355THY    CP133855   6.904   4.513   1.615  0.7296 -0.1743  0.2737
 1355THY    HP133856   6.964   4.442   1.673 -0.4921 -1.6205 -0.1618
 1355THY    CP233857   6.983   4.644   1.590  0.1945  0.2462  0.1590
 1355THY    HP233858   6.999   4.689   1.688  0.1608 -0.7431  0.6291
 1355THY    HP333859   7.080   4.624   1.542 -0.2427  0.6458 -0.9310
 1355THY    HP433860   6.919   4.710   1.531 -0.5550 -1.5176 -1.0866
 1355THY    CP333861   6.782   4.532   1.706 -0.0173  1.1064  0.2765
 1355THY    HP533862   6.707   4.455   1.685  2.5897 -0.8826 -2.5450
 1355THY    HP633863   6.818   4.549   1.808  2.3696  3.1877 -0.7992
 1355THY    HP733864   6.741   4.626   1.667 -2.1459 -0.3059 -1.0641
 1355THY    CA333865   6.752   4.502   1.414  0.5635  0.0655  0.0817
 1355THY    HA333866   6.685   4.575   1.457  0.5873  1.0673 -1.4968
 1355THY    CA433867   6.717   4.440   1.293  0.3050  0.1329  0.6217
 1355THY    HA433868   6.626   4.474   1.245  0.3324 -1.3735 -0.5850
 1355THY    CA533869   6.788   4.326   1.239 -0.7709 -0.2756 -0.5110
 1355THY    CM133870   6.752   4.275   1.110  0.5147 -0.0208 -0.5615
 1355THY    HM133871   6.774   4.338   1.022  1.1554 -1.9432 -1.8352
 1355THY    HM233872   6.800   4.178   1.095  0.9396  0.2718 -1.1593
 1355THY    HM333873   6.643   4.262   1.108  0.5204 -0.0932 -0.3972
 1355THY    CA633874   6.890   4.272   1.320 -0.4524 -1.1518  0.3550
 1355THY    HA633875   6.947   4.191   1.275  0.7857 -0.2793  0.3240
 1356THY      O33876   0.223   4.904   6.927 -0.1491 -0.2372  0.0432
 1356THY     HO33877   0.216   4.875   7.020  3.2020 -0.8322  0.2459
 1356THY    CA133878   0.130   4.839   6.861 -0.2697  0.0090 -0.2331
 1356THY    CA233879   0.041   4.915   6.777  0.3523  0.3165  0.4716
 1356THY    CP133880   0.036   5.071   6.777 -0.1267 -0.7266  0.5889
 1356THY    HP133881   0.080   5.109   6.871  1.0560 -0.9472  0.1453
 1356THY    CP233882   0.120   5.127   6.652 -0.6196 -0.0803  0.2503
 1356THY    HP233883   0.133   5.236   6.648 -0.2451 -0.1548 -1.4326
 1356THY    HP333884   0.216   5.074   6.658  0.4089  1.8426  2.3577
 1356THY    HP433885   0.063   5.089   6.567  0.4331 -2.4117  0.5078
 1356THY    CP333886  -0.106   5.114   6.764  0.7223  0.0821 -0.5199
 1356THY    HP533887  -0.124   5.208   6.816  0.7003 -0.8971  1.3238
 1356THY    HP633888  -0.143   5.154   6.669 -2.1952  0.5729  0.6993
 1356THY    HP733889  -0.180   5.040   6.799 -1.9534  3.2233  1.0540
 1356THY    CA333890  -0.039   4.845   6.682 -0.7733  0.5389 -0.4175
 1356THY    HA333891  -0.105   4.901   6.617 -1.4199  1.3035  0.8604
 1356THY    CA433892  -0.032   4.701   6.681 -0.2210 -0.1066 -0.2013
 1356THY    HA433893  -0.083   4.648   6.601  0.9045 -1.7445  0.1309
 1356THY    CA533894   0.058   4.633   6.765  0.3893  0.4589 -0.7127
 1356THY    CM133895   0.076   4.476   6.753  0.6760  0.5890 -0.3102
 1356THY    HM133896   0.006   4.434   6.680  0.5721  1.6260 -0.8377
 1356THY    HM233897   0.175   4.472   6.707 -0.4860  0.0011 -2.9463
 1356THY    HM333898   0.069   4.431   6.852 -1.2889  0.3229 -0.5237
 1356THY    CA633899   0.141   4.703   6.858  0.3890 -0.1314 -0.2416
 1356THY    HA633900   0.205   4.647   6.926 -1.3326 -0.9175  0.8157
 1357THY      O33901   3.868   5.526   2.073  0.0937 -0.5221 -0.4972
 1357THY     HO33902   3.856   5.607   2.022  0.2035 -1.8075 -2.7119
 1357THY    CA133903   3.768   5.519   2.167  0.0734 -0.8418 -0.2148
 1357THY    CA233904   3.767   5.432   2.279  0.0333  0.0078 -0.3327
 1357THY    CP133905   3.872   5.327   2.302  0.1021 -0.0767  0.0399
 1357THY    HP133906   3.960   5.355   2.241 -0.3661  0.2112 -0.5170
 1357THY    CP233907   3.930   5.319   2.448  0.4639  0.3091 -0.0408
 1357THY    HP233908   3.867   5.260   2.517 -0.0874 -0.8377 -1.4735
 1357THY    HP333909   4.018   5.255   2.435 -0.1998 -0.5921 -0.1753
 1357THY    HP433910   3.958   5.413   2.496 -0.8633  0.4339  0.5551
 1357THY    CP333911   3.815   5.193   2.242  0.1445 -0.7885 -0.0681
 1357THY    HP533912   3.727   5.166   2.301  1.6601 -1.4248  2.0260
 1357THY    HP633913   3.796   5.194   2.134  3.5202 -2.3495 -0.8073
 1357THY    HP733914   3.895   5.121   2.263  2.5177  1.1437 -1.8782
 1357THY    CA333915   3.666   5.442   2.380  0.2412 -0.5090  0.2836
 1357THY    HA333916   3.659   5.359   2.449 -1.0100 -0.6251  0.0461
 1357THY    CA433917   3.574   5.550   2.376  0.0527  0.2096 -0.5021
 1357THY    HA433918   3.511   5.570   2.462  0.4065  0.2629 -0.2537
 1357THY    CA533919   3.573   5.640   2.267 -0.3062  1.0386  0.0729
 1357THY    CM133920   3.480   5.754   2.268 -0.3242 -0.5354  0.3722
 1357THY    HM133921   3.462   5.805   2.172  2.3013  2.8624  1.5022
 1357THY    HM233922   3.384   5.723   2.311 -0.1392  1.7467  2.6519
 1357THY    HM333923   3.514   5.819   2.349 -0.9788 -1.0572  1.0853
 1357THY    CA633924   3.671   5.622   2.164  0.2304 -0.1237  0.4677
 1357THY    HA633925   3.674   5.699   2.088 -1.6380 -0.5670 -0.1121
 1358THY      O33926   5.414   8.369   2.282 -0.6093 -0.4696  0.5821
 1358THY     HO33927   5.354   8.444   2.296  3.8037  3.9520 -1.1468
 1358THY    CA133928   5.339   8.255   2.257  0.0297 -0.8486 -0.6442
 1358THY    CA233929   5.390   8.127   2.272  0.1262 -1.2090  0.5760
 1358THY    CP133930   5.539   8.121   2.305 -0.5664  0.8754 -0.4755
 1358THY    HP133931   5.589   8.203   2.252  2.5081 -1.0246 -0.7325
 1358THY    CP233932   5.559   8.141   2.460 -0.0181  0.6805  0.5046
 1358THY    HP233933   5.533   8.048   2.512  1.5463  0.0010  0.1457
 1358THY    HP333934   5.664   8.163   2.482  0.5995  0.6871 -2.1216
 1358THY    HP433935   5.496   8.224   2.492  1.5206  1.8565  0.5996
 1358THY    CP333936   5.617   8.000   2.246 -0.1113 -0.3077 -0.5187
 1358THY    HP533937   5.720   7.998   2.283  0.5344 -2.7860 -2.1825
 1358THY    HP633938   5.585   7.906   2.293  0.7783 -0.7247 -0.7314
 1358THY    HP733939   5.624   7.989   2.137 -2.0046  0.2596 -0.7412
 1358THY    CA333940   5.315   8.017   2.257 -0.1268 -0.8256 -1.0544
 1358THY    HA333941   5.349   7.914   2.259  1.1726 -0.3976 -0.4325
 1358THY    CA433942   5.175   8.032   2.238  0.5792  0.7532 -0.6427
 1358THY    HA433943   5.111   7.944   2.229  0.0887  0.6692  2.6087
 1358THY    CA533944   5.119   8.164   2.224 -0.3994 -0.7431  0.3663
 1358THY    CM133945   4.980   8.189   2.169 -0.2387 -0.6086 -0.1632
 1358THY    HM133946   4.946   8.104   2.108  1.6872 -1.1781 -0.5133
 1358THY    HM233947   4.914   8.211   2.254  2.6467  2.7566  1.4481
 1358THY    HM333948   4.991   8.283   2.114  4.5143 -0.5516  0.4258
 1358THY    CA633949   5.207   8.275   2.241  0.0162 -0.1477 -0.4600
 1358THY    HA633950   5.173   8.378   2.234  2.5408  0.7677 -0.0507
 1359THY      O33951   3.996   7.645   1.726  0.3011 -0.0609  0.1975
 1359THY     HO33952   4.089   7.675   1.719  0.1451  0.2594 -0.7280
 1359THY    CA133953   4.001   7.527   1.669  0.4154  0.5601  0.7278
 1359THY    CA233954   3.897   7.436   1.682  0.9799 -0.2917  0.5713
 1359THY    CP133955   3.768   7.467   1.756 -0.0300  0.1332 -0.3981
 1359THY    HP133956   3.776   7.574   1.781 -0.7273 -0.3399  2.1745
 1359THY    CP233957   3.644   7.441   1.671  0.6219  0.6109  0.7328
 1359THY    HP233958   3.616   7.335   1.671  0.3184  0.6814 -0.2803
 1359THY    HP333959   3.555   7.499   1.700 -0.9095 -0.7641 -0.9865
 1359THY    HP433960   3.660   7.456   1.564 -3.1545 -1.2927 -0.2501
 1359THY    CP333961   3.748   7.408   1.892 -0.1532 -0.2193  0.2726
 1359THY    HP533962   3.826   7.440   1.962 -1.4360  0.2547  1.5377
 1359THY    HP633963   3.651   7.436   1.934  0.8928  1.8321  1.5114
 1359THY    HP733964   3.745   7.299   1.895  3.4899 -0.4510 -0.3103
 1359THY    CA333965   3.903   7.308   1.616  0.2233 -0.2196  0.2620
 1359THY    HA333966   3.819   7.239   1.613 -0.9237  1.1749 -0.4182
 1359THY    CA433967   4.024   7.279   1.552  0.1351  0.0451  0.6551
 1359THY    HA433968   4.035   7.186   1.496  0.4917  0.7245 -0.4411
 1359THY    CA533969   4.133   7.369   1.548 -0.2106  0.0991  0.1861
 1359THY    CM133970   4.258   7.335   1.466 -0.0150 -0.0253  0.4804
 1359THY    HM133971   4.282   7.405   1.384  0.3281 -0.4289  0.2284
 1359THY    HM233972   4.346   7.310   1.526  1.8649  0.5711 -1.8319
 1359THY    HM333973   4.231   7.247   1.407 -1.4985  1.2541 -0.8379
 1359THY    CA633974   4.121   7.492   1.602  0.0121 -0.0420 -0.2004
 1359THY    HA633975   4.204   7.562   1.613  0.1141 -0.2091  0.0984
 1360THY      O33976   8.425   9.389   2.375  0.4800 -0.6139  0.4068
 1360THY     HO33977   8.330   9.394   2.357  0.5886 -1.4922 -0.4928
 1360THY    CA133978   8.497   9.446   2.270 -0.8924  0.5348 -0.5418
 1360THY    CA233979   8.639   9.464   2.269  0.6334 -0.4489  0.1302
 1360THY    CP133980   8.717   9.436   2.395  0.0574  0.2910 -0.4088
 1360THY    HP133981   8.664   9.360   2.454  0.7749  0.3088  0.2769
 1360THY    CP233982   8.850   9.379   2.369 -0.7275 -0.7073 -0.1300
 1360THY    HP233983   8.888   9.360   2.470 -2.1101 -0.0373  0.5384
 1360THY    HP333984   8.859   9.284   2.315  1.2966 -1.2190  0.9785
 1360THY    HP433985   8.916   9.453   2.322  0.9718 -1.7737  0.4420
 1360THY    CP333986   8.735   9.568   2.491  0.9731  0.6524  0.4675
 1360THY    HP533987   8.639   9.620   2.491 -0.6211 -2.0435  1.5548
 1360THY    HP633988   8.743   9.534   2.595 -0.3140  0.7568  0.6170
 1360THY    HP733989   8.812   9.634   2.450  0.2111  1.6022  0.5299
 1360THY    CA333990   8.702   9.513   2.152 -0.7287 -1.0529  0.7425
 1360THY    HA333991   8.808   9.534   2.152 -1.1730  1.5126  0.2040
 1360THY    CA433992   8.627   9.547   2.038  0.0043 -0.1526  0.1070
 1360THY    HA433993   8.673   9.588   1.949 -0.0462  0.0918  0.1913
 1360THY    CA533994   8.491   9.536   2.045 -0.1072  0.3821 -0.2095
 1360THY    CM133995   8.401   9.573   1.936 -0.2669  0.4632  0.2092
 1360THY    HM133996   8.453   9.596   1.842 -2.1999  0.9553 -0.7901
 1360THY    HM233997   8.312   9.510   1.933 -1.9153  2.6946 -0.7318
 1360THY    HM333998   8.357   9.673   1.941 -1.0024  0.2178 -1.0055
 1360THY    CA633999   8.426   9.489   2.157  0.8161  0.3284  0.2651
 1360THY    HA634000   8.319   9.472   2.155  0.6661  1.2537 -0.4392
 1361THY      O34001   3.310   7.208   6.932  0.2308  0.1196  0.7240
 1361THY     HO34002   3.275   7.161   6.855 -4.0834  3.1974  0.4547
 1361THY    CA134003   3.418   7.275   6.888 -0.1149  0.5478  0.6629
 1361THY    CA234004   3.511   7.341   6.970  0.2672 -0.3056 -0.5882
 1361THY    CP134005   3.498   7.358   7.121  0.2801  0.4946  0.0054
 1361THY    HP134006   3.403   7.320   7.162  1.6619 -2.4354  0.7291
 1361THY    CP234007   3.618   7.288   7.195 -0.1764  0.3334  0.3516
 1361THY    HP234008   3.646   7.194   7.147  0.0584 -0.7187  2.4274
 1361THY    HP334009   3.709   7.350   7.197 -0.7254  1.2177 -0.8064
 1361THY    HP434010   3.584   7.262   7.296 -1.2579 -0.4686 -0.2047
 1361THY    CP334011   3.499   7.509   7.151 -0.2626 -1.1918 -0.1124
 1361THY    HP534012   3.491   7.529   7.259 -0.5075  1.0328 -0.5100
 1361THY    HP634013   3.583   7.566   7.111 -3.4440  2.5553 -2.1481
 1361THY    HP734014   3.414   7.565   7.110  1.0069  0.0498 -1.1355
 1361THY    CA334015   3.626   7.391   6.905 -0.5332 -0.3224 -0.2830
 1361THY    HA334016   3.706   7.445   6.956 -1.3485 -0.7578  1.5470
 1361THY    CA434017   3.632   7.394   6.773  0.7621 -0.1688  0.1117
 1361THY    HA434018   3.720   7.438   6.726  0.4679 -0.7316 -1.0034
 1361THY    CA534019   3.538   7.339   6.691  0.1392  0.2631  0.3162
 1361THY    CM134020   3.568   7.324   6.542  0.2716  0.1401  0.7185
 1361THY    HM134021   3.672   7.344   6.513 -0.4069  1.4465 -0.9790
 1361THY    HM234022   3.546   7.222   6.509  0.7903  0.1458  0.3571
 1361THY    HM334023   3.511   7.387   6.473  0.2903 -2.0518 -1.4453
 1361THY    CA634024   3.429   7.272   6.747  0.5945  0.1428  0.2515
 1361THY    HA634025   3.349   7.227   6.688 -0.0189  2.1568 -0.5615
 1362THY      O34026   2.710   4.468   1.638  0.0810  0.2755 -0.2050
 1362THY     HO34027   2.652   4.465   1.716  1.0951 -2.5857  0.5894
 1362THY    CA134028   2.644   4.542   1.544  0.3356 -0.1849  0.4163
 1362THY    CA234029   2.706   4.589   1.423  0.2261 -0.8196  0.1337
 1362THY    CP134030   2.849   4.540   1.365  0.2802 -0.2769 -0.1551
 1362THY    HP134031   2.923   4.522   1.444  0.6887 -0.7495 -0.6381
 1362THY    CP234032   2.828   4.404   1.300 -0.0500 -0.2314 -0.2321
 1362THY    HP234033   2.800   4.336   1.382 -0.3961  2.1417  1.7590
 1362THY    HP334034   2.744   4.405   1.230  0.2766 -0.4550 -0.6251
 1362THY    HP434035   2.917   4.364   1.251 -0.8349  0.1525 -2.0518
 1362THY    CP334036   2.909   4.623   1.254  0.0261 -0.2153  0.5469
 1362THY    HP534037   2.945   4.722   1.287 -1.9455  0.6792  0.1544
 1362THY    HP634038   3.003   4.580   1.217  2.1494  4.6043 -0.4748
 1362THY    HP734039   2.847   4.635   1.164 -0.1227 -0.9875  0.5447
 1362THY    CA334040   2.631   4.680   1.346 -0.0935  0.0446  0.5204
 1362THY    HA334041   2.674   4.715   1.252 -2.1535  2.8165  0.4850
 1362THY    CA434042   2.503   4.718   1.373 -0.7918 -0.3719  0.3701
 1362THY    HA434043   2.452   4.782   1.303 -1.8153  0.6497  1.9971
 1362THY    CA534044   2.440   4.660   1.482 -0.0549  0.3141 -0.3895
 1362THY    CM134045   2.299   4.697   1.508 -0.6670 -0.7596 -0.4812
 1362THY    HM134046   2.276   4.800   1.479  0.5250 -0.7714 -1.5312
 1362THY    HM234047   2.236   4.636   1.441 -0.0213 -2.2228  0.2042
 1362THY    HM334048   2.271   4.694   1.614  4.6430 -0.5960  1.1960
 1362THY    CA634049   2.512   4.571   1.570  0.1751  0.0297 -0.1517
 1362THY    HA634050   2.461   4.517   1.649 -0.0310 -0.0527 -0.3398
 1363THY      O34051   3.774   8.550   1.706  0.3893  0.5073 -0.1996
 1363THY     HO34052   3.810   8.520   1.620  0.2754  1.9912 -0.7895
 1363THY    CA134053   3.875   8.586   1.791 -0.3501  0.4002  0.1803
 1363THY    CA234054   3.905   8.716   1.810 -0.5968 -0.1884  0.4630
 1363THY    CP134055   3.832   8.826   1.740  0.6807 -0.2110  0.3597
 1363THY    HP134056   3.776   8.780   1.657 -1.9143 -0.0333  1.8950
 1363THY    CP234057   3.726   8.899   1.832  0.2870 -0.3310 -0.4995
 1363THY    HP234058   3.661   8.827   1.883  0.1347  0.5107  0.5289
 1363THY    HP334059   3.759   8.970   1.908 -2.4295  0.0512  0.4468
 1363THY    HP434060   3.662   8.965   1.772  0.2058  1.7773  1.7482
 1363THY    CP334061   3.929   8.926   1.681 -0.2538 -0.4263 -0.1271
 1363THY    HP534062   3.884   8.992   1.606  2.1416  1.5943  0.0563
 1363THY    HP634063   3.976   8.980   1.764  0.7558  0.0908 -1.0054
 1363THY    HP734064   4.005   8.863   1.633  1.4893  0.0223  1.8585
 1363THY    CA334065   3.999   8.745   1.910 -0.0306  0.1408 -0.1352
 1363THY    HA334066   4.025   8.849   1.930 -1.2175  0.1049  1.7895
 1363THY    CA434067   4.065   8.647   1.992  0.1596 -0.2272  0.1973
 1363THY    HA434068   4.137   8.672   2.069  1.1005  0.6095 -0.9272
 1363THY    CA534069   4.038   8.516   1.959  0.3850 -0.4118  0.4314
 1363THY    CM134070   4.122   8.410   2.032 -0.2639 -0.0760 -1.0116
 1363THY    HM134071   4.181   8.364   1.952  2.0163  2.6895 -1.0761
 1363THY    HM234072   4.188   8.438   2.115  2.0765 -2.2090 -2.0070
 1363THY    HM334073   4.055   8.338   2.081  0.3288 -0.3585 -0.6029
 1363THY    CA634074   3.943   8.483   1.861  0.9674  0.2365  0.1164
 1363THY    HA634075   3.914   8.380   1.842 -1.4562  1.2975 -2.6813
 1364THY      O34076   9.904   1.703   8.278  0.5768 -0.1459 -0.0122
 1364THY     HO34077   9.909   1.611   8.246  0.7777 -0.3824  0.6890
 1364THY    CA134078  10.011   1.762   8.230 -1.0716 -0.1362  0.1001
 1364THY    CA234079  10.005   1.888   8.178  0.3608  0.0856 -0.3102
 1364THY    CP134080   9.883   1.977   8.197 -0.1157  0.6562 -0.3060
 1364THY    HP134081   9.798   1.911   8.219  0.1536  0.5745  0.5409
 1364THY    CP234082   9.891   2.090   8.306  0.1690  0.6272  0.0303
 1364THY    HP234083   9.934   2.058   8.402  1.9729  1.8745 -0.3184
 1364THY    HP334084   9.973   2.152   8.269 -0.5391  1.7636  0.2885
 1364THY    HP434085   9.802   2.153   8.321 -1.2422 -1.2623  0.0843
 1364THY    CP334086   9.836   2.033   8.067  0.1474 -0.2793  0.1038
 1364THY    HP534087   9.752   2.104   8.069  0.5648  0.2584 -0.5830
 1364THY    HP634088   9.905   2.109   8.027 -1.0140  0.5597 -0.3595
 1364THY    HP734089   9.826   1.956   7.989 -0.9040  0.7975 -0.8695
 1364THY    CA334090  10.122   1.945   8.126  0.8208 -0.0128 -0.0337
 1364THY    HA334091  10.114   2.046   8.087 -1.1924  0.8834  2.4045
 1364THY    CA434092  10.232   1.861   8.107  0.0108 -0.3514 -1.0342
 1364THY    HA434093  10.323   1.897   8.062  0.9249 -0.8944  0.3118
 1364THY    CA534094  10.241   1.734   8.172 -0.1484  0.7723  0.0035
 1364THY    CM134095  10.366   1.644   8.170 -0.5123  0.4737  0.4618
 1364THY    HM134096  10.433   1.685   8.246  0.5051 -1.8775  0.9203
 1364THY    HM234097  10.336   1.539   8.183 -0.2921 -0.0077 -2.2721
 1364THY    HM334098  10.418   1.650   8.074 -2.5917  0.4430 -0.7152
 1364THY    CA634099  10.128   1.686   8.231  0.3804 -0.2620 -0.1945
 1364THY    HA634100  10.133   1.586   8.273  1.9309  0.9118  2.7502
 1365THY      O34101   6.314   7.902   6.145 -0.2435 -0.5400  0.1734
 1365THY     HO34102   6.343   7.841   6.074  2.1980  1.0447 -0.3151
 1365THY    CA134103   6.337   7.824   6.256 -0.1023  0.7567  0.6690
 1365THY    CA234104   6.289   7.860   6.385  0.2196 -0.8324 -0.4908
 1365THY    CP134105   6.217   8.000   6.395  0.6887 -0.8209 -0.3775
 1365THY    HP134106   6.199   8.055   6.302 -2.0983  1.7053  1.4570
 1365THY    CP234107   6.072   7.989   6.439 -0.4356  0.1256 -0.6054
 1365THY    HP234108   6.023   7.910   6.380  2.5174 -1.9461 -0.5072
 1365THY    HP334109   6.067   7.965   6.546  0.9131  1.5254 -0.2018
 1365THY    HP434110   6.019   8.084   6.423  0.2796  0.9512  1.5128
 1365THY    CP334111   6.295   8.101   6.486 -0.2991  0.7138  0.4569
 1365THY    HP534112   6.373   8.154   6.431 -0.2300 -0.7325 -0.9071
 1365THY    HP634113   6.228   8.180   6.522 -0.8593  0.0471  0.9083
 1365THY    HP734114   6.358   8.058   6.564  0.8760  0.1855 -0.7520
 1365THY    CA334115   6.303   7.775   6.491  0.3230 -0.7980 -0.6732
 1365THY    HA334116   6.247   7.795   6.582  0.1918  2.0133 -1.2776
 1365THY    CA434117   6.377   7.658   6.472 -0.3107 -0.0464  0.0551
 1365THY    HA434118   6.387   7.581   6.548  0.0852 -2.2979 -2.1358
 1365THY    CA534119   6.422   7.617   6.345 -0.2653 -0.7005 -0.1701
 1365THY    CM134120   6.476   7.478   6.318  0.0325  0.2274  0.3145
 1365THY    HM134121   6.486   7.416   6.408 -0.7694  0.5506  0.6372
 1365THY    HM234122   6.404   7.430   6.250  1.6324 -1.5254 -0.2141
 1365THY    HM334123   6.573   7.481   6.268 -0.1924 -0.2683 -0.1617
 1365THY    CA634124   6.399   7.701   6.237  0.1081 -0.2797  0.4832
 1365THY    HA634125   6.414   7.661   6.137  0.5004 -3.7396  1.7620
 1366THY      O34126   9.858   4.104   2.712  0.3854 -0.1067 -0.5906
 1366THY     HO34127   9.827   4.059   2.792  0.8336 -2.0745 -1.4619
 1366THY    CA134128   9.911   4.217   2.758  0.2597  0.1092  0.0441
 1366THY    CA234129   9.950   4.323   2.673 -0.4683 -0.0638  0.0272
 1366THY    CP134130   9.926   4.314   2.522 -0.1630 -0.2603  0.0896
 1366THY    HP134131   9.901   4.216   2.480 -1.1572  0.3782 -0.8691
 1366THY    CP234132   9.806   4.408   2.479 -0.4336 -0.5083  0.4213
 1366THY    HP234133   9.848   4.508   2.493  1.6572 -1.2929  0.1432
 1366THY    HP334134   9.768   4.385   2.379 -1.0220 -1.7855  0.9202
 1366THY    HP434135   9.716   4.383   2.536  0.1260 -0.5718  1.2901
 1366THY    CP334136  10.047   4.355   2.436  0.3782 -0.5546  0.2684
 1366THY    HP534137  10.053   4.465   2.433  0.9650 -0.5844  0.1766
 1366THY    HP634138  10.142   4.323   2.482  2.6042  2.3080 -1.9069
 1366THY    HP734139  10.035   4.316   2.335  0.3423  1.9791 -0.7851
 1366THY    CA334140  10.014   4.438   2.722 -0.3860  0.2752  0.8609
 1366THY    HA334141  10.042   4.514   2.650 -0.9379 -0.8604 -0.6045
 1366THY    CA434142  10.048   4.441   2.857 -0.1253 -0.4056 -0.4438
 1366THY    HA434143  10.098   4.530   2.895 -1.1752  0.1875 -0.4270
 1366THY    CA534144  10.004   4.344   2.943  0.0004  0.5857  0.5459
 1366THY    CM134145  10.038   4.351   3.091  0.0341  0.4221  0.7721
 1366THY    HM134146  10.064   4.249   3.122  2.9961  0.9531  0.3382
 1366THY    HM234147  10.109   4.431   3.116 -0.5013  1.5339 -1.0885
 1366THY    HM334148   9.948   4.373   3.149  1.0856 -0.6280  2.9573
 1366THY    CA634149   9.950   4.223   2.887 -0.0532 -0.4257  0.6177
 1366THY    HA634150   9.932   4.152   2.967 -1.4763 -0.2242  0.5076
 1367THY      O34151   1.665   4.818   9.904 -0.0422  0.1017 -0.4318
 1367THY     HO34152   1.611   4.744   9.872  2.6231 -2.5048  0.5481
 1367THY    CA134153   1.760   4.753   9.978 -0.1250  0.3582 -0.6981
 1367THY    CA234154   1.861   4.817  10.050  0.0162 -0.5767 -0.0827
 1367THY    CP134155   1.879   4.973  10.049  0.2786 -0.3113 -0.6191
 1367THY    HP134156   1.851   5.022   9.955  0.6146  1.6447  0.2495
 1367THY    CP234157   1.790   5.029  10.161 -0.4584 -0.0475 -0.0958
 1367THY    HP234158   1.686   4.995  10.158 -0.3842 -0.3013  0.1758
 1367THY    HP334159   1.818   4.989  10.259  0.2041 -0.2037 -0.3476
 1367THY    HP434160   1.785   5.138  10.172 -0.8121  0.0666 -1.2230
 1367THY    CP334161   2.029   5.013  10.068 -0.9228 -0.5326 -0.3584
 1367THY    HP534162   2.049   5.116  10.038  0.5526 -0.9001 -0.7353
 1367THY    HP634163   2.044   5.009  10.177 -0.2682 -0.5681 -0.4467
 1367THY    HP734164   2.100   4.939  10.028 -1.4076 -0.4398 -1.4192
 1367THY    CA334165   1.952   4.740  10.119 -1.1532  0.2361 -0.8468
 1367THY    HA334166   2.022   4.783  10.189  0.0590 -1.4614 -0.9411
 1367THY    CA434167   1.935   4.602  10.136  0.3583 -0.2644  0.2432
 1367THY    HA434168   2.014   4.545  10.183 -0.1463  0.1598  1.6600
 1367THY    CA534169   1.835   4.538  10.060 -0.1275 -0.4882 -0.2274
 1367THY    CM134170   1.807   4.391  10.063 -0.1939  0.2560 -0.4152
 1367THY    HM134171   1.841   4.345  10.157 -0.1611  0.9755 -0.0708
 1367THY    HM234172   1.699   4.372  10.063 -0.0325 -1.4691  3.0424
 1367THY    HM334173   1.844   4.344   9.971 -0.9845  3.0929 -2.2897
 1367THY    CA634174   1.748   4.617   9.992 -0.2523  0.1570 -0.1957
 1367THY    HA634175   1.664   4.567   9.945 -1.3354  0.9653  0.8317
 1368THY      O34176   1.553   2.304   0.605 -0.4891  0.0786 -0.3738
 1368THY     HO34177   1.607   2.290   0.525  1.7939  0.8782  0.9255
 1368THY    CA134178   1.652   2.314   0.702  0.5157  0.4310  0.7151
 1368THY    CA234179   1.624   2.380   0.825 -0.7242  0.3253  0.6514
 1368THY    CP134180   1.488   2.437   0.849  0.4039  0.6396 -0.4483
 1368THY    HP134181   1.406   2.383   0.800  0.2026 -0.3956  0.9327
 1368THY    CP234182   1.451   2.442   1.000 -0.3535 -0.4397  0.1325
 1368THY    HP234183   1.482   2.354   1.058  1.8300  1.2304  1.6741
 1368THY    HP334184   1.495   2.520   1.063  1.1067 -1.2435  0.1690
 1368THY    HP434185   1.342   2.451   1.002 -0.4591 -1.0566 -1.4001
 1368THY    CP334186   1.472   2.578   0.794  0.1882 -0.8361 -0.2830
 1368THY    HP534187   1.409   2.582   0.705 -1.9292 -1.2763  1.1062
 1368THY    HP634188   1.406   2.635   0.861 -0.1781 -2.8898  1.2194
 1368THY    HP734189   1.569   2.623   0.772 -0.8161  0.5026 -2.2089
 1368THY    CA334190   1.741   2.386   0.917  0.2222  0.7281 -0.1876
 1368THY    HA334191   1.729   2.435   1.013 -1.2630  0.5591 -0.2638
 1368THY    CA434192   1.863   2.323   0.885  0.2708  0.3211  0.2168
 1368THY    HA434193   1.944   2.308   0.956  1.2022 -1.8030 -1.1831
 1368THY    CA534194   1.883   2.270   0.759 -0.5258 -0.4392  0.3885
 1368THY    CM134195   2.018   2.202   0.732  0.2942 -0.2142 -0.2759
 1368THY    HM134196   2.043   2.171   0.834  1.8353 -0.4629 -0.7050
 1368THY    HM234197   2.004   2.111   0.672  1.0293 -1.7110  1.6968
 1368THY    HM334198   2.090   2.267   0.682  0.8834 -0.7308 -0.1183
 1368THY    CA634199   1.783   2.270   0.665 -0.7437  0.5899 -0.2751
 1368THY    HA634200   1.813   2.243   0.564  2.8920 -1.1617  1.0737
 1369THY      O34201   4.961   7.878   7.328  0.3962  0.0845 -0.0233
 1369THY     HO34202   4.986   7.959   7.279 -1.5689  0.8876  0.2009
 1369THY    CA134203   5.048   7.865   7.428  0.0010 -0.7034 -0.3929
 1369THY    CA234204   5.048   7.756   7.519  0.0951 -0.4144 -0.1300
 1369THY    CP134205   4.939   7.649   7.499 -0.1906  0.9677 -0.1500
 1369THY    HP134206   4.883   7.671   7.407  1.8125  1.2731 -1.3669
 1369THY    CP234207   4.992   7.505   7.489  0.0356  0.2592  0.7609
 1369THY    HP234208   5.055   7.505   7.399 -0.4815 -2.8621  0.2728
 1369THY    HP334209   5.040   7.472   7.581  0.1507 -0.5006  0.4367
 1369THY    HP434210   4.909   7.438   7.463  1.4080 -0.9501 -0.7230
 1369THY    CP334211   4.845   7.656   7.618  0.5781 -0.5075 -0.3696
 1369THY    HP534212   4.759   7.589   7.601  0.5928 -0.6841  0.2260
 1369THY    HP634213   4.887   7.628   7.715 -3.0739  1.4426  2.0071
 1369THY    HP734214   4.817   7.762   7.622  0.3013 -0.5829 -0.2577
 1369THY    CA334215   5.138   7.760   7.626 -0.0700  0.3241  0.4023
 1369THY    HA334216   5.135   7.676   7.695 -0.5527  0.0597  0.0715
 1369THY    CA434217   5.241   7.851   7.627 -0.3520  0.9840 -0.2198
 1369THY    HA434218   5.322   7.839   7.698 -0.3077 -1.0714 -0.5565
 1369THY    CA534219   5.249   7.948   7.525 -0.7278 -0.1819 -0.1537
 1369THY    CM134220   5.362   8.053   7.545 -0.0058 -0.1778  0.0488
 1369THY    HM134221   5.349   8.146   7.488  1.0627 -0.4957 -0.7496
 1369THY    HM234222   5.374   8.090   7.647 -1.1062 -0.9387  0.4737
 1369THY    HM334223   5.455   8.013   7.502 -0.5844  0.2968 -1.7502
 1369THY    CA634224   5.143   7.969   7.434  0.4834 -0.4828 -0.0074
 1369THY    HA634225   5.148   8.056   7.369 -1.8153  0.7943  1.3689
 1370THY      O34226   0.541   9.446   3.255  0.0529 -0.6137  0.6436
 1370THY     HO34227   0.564   9.422   3.164 -0.5832  0.7645  0.0818
 1370THY    CA134228   0.497   9.337   3.319 -0.4111 -0.1359 -0.0009
 1370THY    CA234229   0.547   9.301   3.445 -0.4408 -0.0708 -0.3566
 1370THY    CP134230   0.653   9.382   3.518 -0.0536 -0.2076  0.9334
 1370THY    HP134231   0.645   9.487   3.485 -2.5159 -0.7274 -0.3491
 1370THY    CP234232   0.622   9.408   3.663 -0.0523  0.0745  0.0334
 1370THY    HP234233   0.520   9.447   3.667 -0.0775 -0.0502  0.8013
 1370THY    HP334234   0.634   9.316   3.722 -0.4794  0.5095  0.8147
 1370THY    HP434235   0.694   9.486   3.693 -1.7577  0.8915  2.2141
 1370THY    CP334236   0.798   9.326   3.503  0.0442  0.0278  0.2549
 1370THY    HP534237   0.785   9.220   3.526  2.1890 -0.9763 -2.6497
 1370THY    HP634238   0.835   9.328   3.400  1.0636  1.0271  0.6074
 1370THY    HP734239   0.865   9.371   3.578 -1.8665  0.7675  1.6025
 1370THY    CA334240   0.508   9.180   3.506 -0.9165 -0.0632 -0.5444
 1370THY    HA334241   0.550   9.150   3.601 -2.1431 -1.0494 -0.2946
 1370THY    CA434242   0.416   9.105   3.442 -0.0583 -0.1647 -0.2067
 1370THY    HA434243   0.390   9.007   3.482 -0.5935 -0.4128 -1.1236
 1370THY    CA534244   0.369   9.144   3.314 -0.0238 -0.2602  0.4079
 1370THY    CM134245   0.279   9.056   3.234 -0.2154  0.0779 -0.0800
 1370THY    HM134246   0.236   8.974   3.292 -1.2793 -0.1541 -1.1323
 1370THY    HM234247   0.195   9.121   3.206 -0.2050  0.2532  0.2979
 1370THY    HM334248   0.336   9.017   3.149  2.8308  1.8064  1.0367
 1370THY    CA634249   0.411   9.257   3.248  0.5770 -0.1570  0.2773
 1370THY    HA634250   0.376   9.276   3.147 -3.0060 -0.6160  1.2925
 1371THY      O34251   1.654   9.210   7.290 -0.0680 -0.4893 -0.8339
 1371THY     HO34252   1.575   9.154   7.303  1.3722 -2.1560  1.6640
 1371THY    CA134253   1.622   9.338   7.315 -0.4372  0.0234 -0.5798
 1371THY    CA234254   1.710   9.449   7.314 -0.5722 -0.5927 -0.2809
 1371THY    CP134255   1.859   9.421   7.297 -0.3547 -0.4943 -0.1111
 1371THY    HP134256   1.882   9.314   7.294  0.6554 -0.2997  0.2346
 1371THY    CP234257   1.917   9.472   7.158  0.2591  0.8220 -0.3725
 1371THY    HP234258   2.024   9.449   7.151  0.3269  0.3754  1.5563
 1371THY    HP334259   1.858   9.413   7.088 -0.3504 -1.3260  1.8438
 1371THY    HP434260   1.894   9.578   7.138  0.1312  0.4347 -2.4493
 1371THY    CP334261   1.949   9.464   7.414  0.1352 -0.4191 -0.0235
 1371THY    HP534262   1.960   9.572   7.404  2.5720 -0.6821 -0.8707
 1371THY    HP634263   1.908   9.428   7.509 -2.2857 -0.4355 -1.0026
 1371THY    HP734264   2.051   9.428   7.396  0.5976  2.4313 -4.6696
 1371THY    CA334265   1.661   9.582   7.318 -0.2715  0.8406 -0.1763
 1371THY    HA334266   1.729   9.667   7.314 -0.1257  0.6919 -1.1374
 1371THY    CA434267   1.522   9.597   7.328  0.2014  0.0325  0.2326
 1371THY    HA434268   1.472   9.692   7.344  0.3735 -0.0947  1.6665
 1371THY    CA534269   1.443   9.484   7.344  0.2288  0.3048  0.1699
 1371THY    CM134270   1.290   9.500   7.367 -0.5231  0.2956  0.6465
 1371THY    HM134271   1.253   9.407   7.412 -1.0725  0.4393  0.4901
 1371THY    HM234272   1.269   9.578   7.442 -0.1491 -1.0644  2.2364
 1371THY    HM334273   1.230   9.521   7.278  0.0813 -1.4515 -0.2080
 1371THY    CA634274   1.493   9.357   7.334  0.4445 -0.6882 -0.4788
 1371THY    HA634275   1.426   9.273   7.342  1.0664 -1.1976 -0.5900
 1372THY      O34276   6.847   4.533   9.945  0.1061 -0.2618 -0.2218
 1372THY     HO34277   6.896   4.579   9.874  1.3987  0.1868  0.9037
 1372THY    CA134278   6.760   4.469   9.885  0.4182 -0.3650  0.0923
 1372THY    CA234279   6.652   4.401   9.953 -0.6199  0.9035  0.0317
 1372THY    CP134280   6.642   4.386  10.109  0.9276  0.1396 -0.3878
 1372THY    HP134281   6.726   4.432  10.164  0.8514  0.6594 -0.7037
 1372THY    CP234282   6.514   4.444  10.164  0.3990 -0.4523  0.6627
 1372THY    HP234283   6.520   4.443  10.273 -2.5730 -0.8540  0.8976
 1372THY    HP334284   6.509   4.546  10.125  0.3248 -0.3674  0.8941
 1372THY    HP434285   6.427   4.380  10.143  1.2222 -1.1341 -0.8501
 1372THY    CP334286   6.641   4.237  10.161  0.0539  0.1171  0.2784
 1372THY    HP534287   6.645   4.238  10.270  0.7029  1.8680  0.2636
 1372THY    HP634288   6.560   4.180  10.114  1.1152 -0.1837 -1.2906
 1372THY    HP734289   6.724   4.174  10.127 -2.5133 -2.4756 -1.7521
 1372THY    CA334290   6.551   4.328   9.876 -0.8385  0.3469 -0.2167
 1372THY    HA334291   6.468   4.282   9.927 -1.2916  1.6258  0.2364
 1372THY    CA434292   6.564   4.327   9.738 -0.2745 -0.2600  0.5670
 1372THY    HA434293   6.491   4.271   9.680  1.0954 -2.0776  0.5091
 1372THY    CA534294   6.673   4.396   9.675  1.3283 -1.0035  0.2620
 1372THY    CM134295   6.696   4.397   9.524  0.1559  0.5645  0.1120
 1372THY    HM134296   6.676   4.501   9.496 -1.2790  0.4205  0.5395
 1372THY    HM234297   6.796   4.364   9.494 -1.4553 -2.1108 -2.9940
 1372THY    HM334298   6.622   4.335   9.473  0.8122 -0.4765  0.4033
 1372THY    CA634299   6.763   4.472   9.749  0.6960  0.7239  0.4194
 1372THY    HA634300   6.842   4.519   9.691 -0.2211 -0.1724 -1.6442
 1373THY      O34301   3.520   6.338   5.890 -0.0582  0.4522  0.2077
 1373THY     HO34302   3.613   6.341   5.862 -0.0907 -0.6374 -0.0840
 1373THY    CA134303   3.525   6.286   6.017 -0.4243 -0.0122  0.3360
 1373THY    CA234304   3.418   6.289   6.110 -0.1522  0.4138  0.0836
 1373THY    CP134305   3.281   6.333   6.066 -0.4330 -0.0981 -0.3810
 1373THY    HP134306   3.258   6.303   5.963 -0.5826 -1.6589  0.0795
 1373THY    CP234307   3.176   6.261   6.140 -0.2705  0.3144 -0.2590
 1373THY    HP234308   3.080   6.282   6.091 -0.2567  0.4787 -0.2182
 1373THY    HP334309   3.191   6.154   6.123 -1.5855  0.1714 -0.6624
 1373THY    HP434310   3.164   6.284   6.246  0.3043  2.7131 -0.6588
 1373THY    CP334311   3.251   6.479   6.076  0.2823 -0.5330 -0.0875
 1373THY    HP534312   3.224   6.505   6.179 -0.8008 -0.2088 -0.4403
 1373THY    HP634313   3.329   6.550   6.045  0.9079 -1.2708 -0.2212
 1373THY    HP734314   3.161   6.499   6.016 -1.5243 -0.8776  2.3656
 1373THY    CA334315   3.448   6.245   6.243 -0.2567  0.0017  0.0614
 1373THY    HA334316   3.374   6.252   6.323  0.4702 -1.3088  0.8700
 1373THY    CA434317   3.580   6.215   6.279  0.4091 -0.2239 -0.6294
 1373THY    HA434318   3.613   6.190   6.380  1.5235 -0.0900 -0.9397
 1373THY    CA534319   3.683   6.209   6.185  0.1358 -0.4971  0.7416
 1373THY    CM134320   3.820   6.166   6.219  0.0178 -0.6563  0.1161
 1373THY    HM134321   3.880   6.158   6.128 -0.6986  2.3028 -0.7316
 1373THY    HM234322   3.858   6.239   6.291 -1.2342  0.5033 -0.3516
 1373THY    HM334323   3.808   6.066   6.263 -0.3316  0.5606  2.9939
 1373THY    CA634324   3.654   6.248   6.052 -1.1077  0.1712  0.0846
 1373THY    HA634325   3.727   6.240   5.973 -1.7870  0.8331 -0.6250
 1374THY      O34326   7.461   5.761   0.135 -0.1232 -0.1906 -0.3910
 1374THY     HO34327   7.498   5.682   0.093  3.0750  0.7744  0.3687
 1374THY    CA134328   7.324   5.779   0.103 -0.6833  0.8888  1.1273
 1374THY    CA234329   7.285   5.816  -0.028 -0.2367  0.3741 -0.3083
 1374THY    CP134330   7.383   5.881  -0.125  0.3661 -0.5537  0.2926
 1374THY    HP134331   7.471   5.906  -0.064  0.2497  0.0435  0.2211
 1374THY    CP234332   7.408   5.790  -0.243 -0.5706  0.0684  0.8456
 1374THY    HP234333   7.458   5.700  -0.205 -0.4801 -0.6295 -0.8545
 1374THY    HP334334   7.311   5.772  -0.291 -0.8151  0.6390  1.1186
 1374THY    HP434335   7.474   5.837  -0.317 -0.2987 -0.3939  0.7898
 1374THY    CP334336   7.335   6.023  -0.177 -0.3177  0.5458  0.1401
 1374THY    HP534337   7.289   6.073  -0.091 -4.6846 -0.7499 -1.1723
 1374THY    HP634338   7.417   6.086  -0.212  0.9693 -0.4972  1.1958
 1374THY    HP734339   7.259   6.007  -0.255 -2.0186 -0.1116  1.8384
 1374THY    CA334340   7.149   5.812  -0.064 -0.3795  0.1544 -0.2649
 1374THY    HA334341   7.106   5.865  -0.149 -3.0711  0.9065  1.4522
 1374THY    CA434342   7.061   5.754   0.029 -0.1507 -0.4709 -0.1466
 1374THY    HA434343   6.958   5.736   0.002 -0.0587  0.1832 -0.9590
 1374THY    CA534344   7.109   5.699   0.147  0.0566  0.3579 -0.5409
 1374THY    CM134345   7.013   5.625   0.236 -0.2890  0.1158  0.4662
 1374THY    HM134346   7.047   5.522   0.254  0.2305  0.2128  0.0872
 1374THY    HM234347   6.990   5.678   0.329  1.4934 -0.1658  1.1098
 1374THY    HM334348   6.916   5.603   0.190  0.7074 -2.2480 -0.6864
 1374THY    CA634349   7.236   5.720   0.191  0.3036  0.1679  0.0188
 1374THY    HA634350   7.259   5.675   0.287 -3.9233 -0.2671  1.0540
 1375THY      O34351   2.438   8.248   9.548  0.0503 -0.4838  0.0368
 1375THY     HO34352   2.528   8.247   9.585 -0.3779  1.8397  1.3295
 1375THY    CA134353   2.419   8.148   9.461 -0.4241  0.0339 -0.3872
 1375THY    CA234354   2.285   8.098   9.432  0.2442  0.4651 -0.0108
 1375THY    CP134355   2.163   8.172   9.498  0.5351 -0.4808 -0.2273
 1375THY    HP134356   2.188   8.242   9.579  1.6960 -1.7208  0.5346
 1375THY    CP234357   2.105   8.267   9.384 -0.1546  0.6153  1.0951
 1375THY    HP234358   2.069   8.208   9.299  2.2634 -1.2160  1.2436
 1375THY    HP334359   2.029   8.328   9.435 -0.3808  0.5534  0.8332
 1375THY    HP434360   2.179   8.334   9.341  1.6039 -2.0539 -0.3045
 1375THY    CP334361   2.056   8.078   9.546 -0.8513 -0.1992 -0.1806
 1375THY    HP534362   1.994   8.148   9.603  1.0124  0.2278  1.4198
 1375THY    HP634363   2.010   8.028   9.460  2.0815 -0.5411 -1.6987
 1375THY    HP734364   2.093   8.004   9.617  0.1819 -0.3960 -0.8962
 1375THY    CA334365   2.270   7.985   9.349  0.1658 -0.3874  0.0071
 1375THY    HA334366   2.176   7.937   9.325  1.0468 -2.0852 -0.1937
 1375THY    CA434367   2.384   7.927   9.291  0.2533  0.3716 -0.9482
 1375THY    HA434368   2.369   7.840   9.228 -1.0891  0.2432 -0.4898
 1375THY    CA534369   2.513   7.972   9.314 -0.2058  0.2146 -0.4403
 1375THY    CM134370   2.625   7.908   9.246  0.1320  0.0955  0.4758
 1375THY    HM134371   2.599   7.801   9.240 -0.5730  0.3284 -1.4650
 1375THY    HM234372   2.637   7.931   9.139  1.7288  2.2454  1.0666
 1375THY    HM334373   2.718   7.930   9.300  1.0521  0.0003 -0.9980
 1375THY    CA634374   2.530   8.083   9.398 -0.1672 -0.9809 -0.2153
 1375THY    HA634375   2.634   8.115   9.400  0.0968 -1.8238 -0.0160
 1376THY      O34376   5.822   4.213   3.957 -0.1726  0.2931 -0.2636
 1376THY     HO34377   5.909   4.224   3.998  0.7290 -2.9594 -0.9488
 1376THY    CA134378   5.840   4.256   3.833 -0.5525 -0.0996  0.4869
 1376THY    CA234379   5.735   4.282   3.741 -0.5575  0.9907  0.2930
 1376THY    CP134380   5.590   4.272   3.799 -0.4544 -0.2120  0.1874
 1376THY    HP134381   5.582   4.222   3.896 -2.6813 -1.3557 -0.5178
 1376THY    CP234382   5.543   4.418   3.809 -0.4988 -0.0216  0.6457
 1376THY    HP234383   5.570   4.450   3.910  1.7759 -1.4011  0.5533
 1376THY    HP334384   5.585   4.478   3.728 -1.5471  0.3414  0.3605
 1376THY    HP434385   5.435   4.416   3.792 -0.2575 -0.5777 -1.0723
 1376THY    CP334386   5.502   4.184   3.706  1.0057 -0.4067  0.1202
 1376THY    HP534387   5.565   4.099   3.679  1.8086 -0.0635  0.8343
 1376THY    HP634388   5.409   4.148   3.752  0.8620 -0.8752 -0.5367
 1376THY    HP734389   5.476   4.233   3.611 -0.6605 -0.3953  0.5404
 1376THY    CA334390   5.761   4.312   3.611 -0.9971 -0.0517  0.1093
 1376THY    HA334391   5.680   4.337   3.544  0.3632 -0.5932 -1.8044
 1376THY    CA434392   5.894   4.322   3.567 -0.2418 -0.2419  0.2099
 1376THY    HA434393   5.908   4.347   3.462 -0.7706  1.2192  0.4566
 1376THY    CA534394   6.002   4.302   3.659  0.3270 -0.0347  0.2765
 1376THY    CM134395   6.139   4.312   3.611 -1.1294 -0.2227  0.1944
 1376THY    HM134396   6.199   4.353   3.693 -0.8691 -0.0422 -0.0854
 1376THY    HM234397   6.188   4.216   3.590  2.2508  1.5833 -0.9175
 1376THY    HM334398   6.156   4.385   3.532 -1.3291 -0.8106 -0.3997
 1376THY    CA634399   5.980   4.271   3.792  0.5348  0.8830  0.0341
 1376THY    HA634400   6.063   4.252   3.859  0.6412  1.2870  0.0172
 1377THY      O34401   0.810   8.158   9.252 -0.0582  0.4799 -0.6690
 1377THY     HO34402   0.826   8.254   9.247  0.9664  0.4829  1.4084
 1377THY    CA134403   0.850   8.135   9.377  1.0227  0.1916 -0.2188
 1377THY    CA234404   0.846   8.002   9.436  0.4085 -0.8707  0.4545
 1377THY    CP134405   0.777   7.888   9.356 -0.6855  0.3492 -0.0037
 1377THY    HP134406   0.777   7.909   9.249 -0.4491  1.3337  0.1757
 1377THY    CP234407   0.845   7.753   9.386  0.3090  0.1720  0.1719
 1377THY    HP234408   0.823   7.713   9.486 -1.7302 -1.9877 -1.0393
 1377THY    HP334409   0.786   7.680   9.329  1.3732  1.0536 -2.1693
 1377THY    HP434410   0.948   7.749   9.350  0.6676  0.8552  1.1005
 1377THY    CP334411   0.628   7.883   9.395 -0.7840 -0.0370  0.0638
 1377THY    HP534412   0.575   7.812   9.332 -1.3524  0.4811 -0.0581
 1377THY    HP634413   0.611   7.843   9.496 -2.1815 -0.7625 -0.4353
 1377THY    HP734414   0.586   7.984   9.379  0.2751  0.6676  1.5179
 1377THY    CA334415   0.889   7.975   9.569  0.2208  0.0776 -0.1885
 1377THY    HA334416   0.892   7.877   9.616 -0.9602  0.7175  1.3207
 1377THY    CA434417   0.928   8.080   9.646 -0.1281  0.7892 -0.7317
 1377THY    HA434418   0.954   8.048   9.747  0.9767 -0.1184 -1.2779
 1377THY    CA534419   0.927   8.206   9.584  1.2761 -0.9874 -0.1065
 1377THY    CM134420   0.964   8.316   9.663 -0.0913  0.5022 -0.3410
 1377THY    HM134421   1.033   8.379   9.606  1.7454  0.8321  2.0661
 1377THY    HM234422   0.876   8.380   9.678 -0.7269 -0.1302 -1.2672
 1377THY    HM334423   1.010   8.301   9.762 -3.5691 -1.1380  1.1925
 1377THY    CA634424   0.886   8.239   9.454 -0.6441  0.3378  0.1666
 1377THY    HA634425   0.893   8.341   9.417 -0.0379 -0.3727 -1.7782
 1378THY      O34426   9.604   8.133   2.425  0.4612 -0.5484 -0.3925
 1378THY     HO34427   9.677   8.068   2.422  0.9099 -0.1871  1.4731
 1378THY    CA134428   9.612   8.204   2.306 -0.6712  0.3792 -0.0343
 1378THY    CA234429   9.494   8.246   2.244 -0.7394 -0.1923  0.8918
 1378THY    CP134430   9.354   8.216   2.303  0.4711  0.1370 -0.2907
 1378THY    HP134431   9.356   8.125   2.365  3.1452  1.8787  2.4375
 1378THY    CP234432   9.283   8.322   2.383  0.0446 -0.2820 -0.2212
 1378THY    HP234433   9.332   8.337   2.480 -0.9706  2.6743 -0.0528
 1378THY    HP334434   9.295   8.417   2.330  0.5265  0.6906  1.5598
 1378THY    HP434435   9.174   8.313   2.387 -0.1726  1.9147  0.5256
 1378THY    CP334436   9.260   8.156   2.193  0.3032 -0.8492 -0.0514
 1378THY    HP534437   9.174   8.117   2.249 -0.4039 -0.4320 -0.8303
 1378THY    HP634438   9.228   8.224   2.114  3.1389  1.3318  0.5031
 1378THY    HP734439   9.307   8.066   2.152 -0.0820  0.2983 -3.2221
 1378THY    CA334440   9.512   8.308   2.119  0.4453 -0.3809 -0.8342
 1378THY    HA334441   9.427   8.345   2.062  0.4463 -1.0465 -1.2730
 1378THY    CA434442   9.637   8.328   2.065 -0.8888  0.2492 -0.4979
 1378THY    HA434443   9.653   8.377   1.969 -0.1805 -3.7903 -2.6841
 1378THY    CA534444   9.752   8.286   2.135  0.6749 -0.5299  0.3562
 1378THY    CM134445   9.889   8.297   2.074 -0.2589 -0.7040  0.3585
 1378THY    HM134446   9.892   8.390   2.015 -2.0898 -1.4393 -0.9872
 1378THY    HM234447   9.962   8.316   2.154 -0.4216  2.0317 -0.0433
 1378THY    HM334448   9.913   8.201   2.026  1.4653 -0.9371  1.5796
 1378THY    CA634449   9.743   8.219   2.252 -0.0741 -0.1479  0.1107
 1378THY    HA634450   9.827   8.167   2.296 -2.2589 -1.1623  3.4852
 1379THY      O34451   7.209   4.798   5.095 -0.3142  0.7719  0.3358
 1379THY     HO34452   7.272   4.849   5.041 -0.8294 -2.0619 -3.3945
 1379THY    CA134453   7.121   4.746   5.011  0.0604  0.0215  0.0721
 1379THY    CA234454   7.015   4.663   5.058 -0.2587  0.3343  0.3463
 1379THY    CP134455   6.996   4.641   5.207 -0.1042 -0.4529 -0.5670
 1379THY    HP134456   7.051   4.712   5.269  1.8210 -0.5787 -2.0481
 1379THY    CP234457   6.843   4.635   5.247  0.3648  0.1430 -0.0133
 1379THY    HP234458   6.788   4.719   5.202 -3.4412 -1.3602  1.3957
 1379THY    HP334459   6.789   4.545   5.215  0.9050 -0.0671 -0.3411
 1379THY    HP434460   6.826   4.653   5.354  2.9151  1.3320  0.2550
 1379THY    CP334461   7.060   4.506   5.244 -0.1874 -0.1077 -0.0390
 1379THY    HP534462   7.168   4.501   5.223  0.5585  1.4395  2.8024
 1379THY    HP634463   7.045   4.480   5.350 -1.8746 -1.4443 -0.5694
 1379THY    HP734464   7.017   4.427   5.182  1.5149 -0.6315 -0.6259
 1379THY    CA334465   6.930   4.609   4.951 -0.8638 -0.6998 -0.0480
 1379THY    HA334466   6.854   4.542   4.990  0.8305 -2.3870  0.5140
 1379THY    CA434467   6.954   4.629   4.817  0.4745  0.0561  0.6727
 1379THY    HA434468   6.893   4.578   4.743 -0.0016 -0.4797  1.4191
 1379THY    CA534469   7.057   4.718   4.779 -0.5162  0.1690  0.1346
 1379THY    CM134470   7.079   4.748   4.628  1.0202 -0.0395  0.2819
 1379THY    HM134471   7.175   4.713   4.588  0.6280 -0.4346 -0.3275
 1379THY    HM234472   6.994   4.700   4.578  1.0254 -0.5532  0.7494
 1379THY    HM334473   7.070   4.854   4.606  0.5409 -0.2822 -0.7220
 1379THY    CA634474   7.139   4.773   4.876 -0.8565 -0.3797  0.6670
 1379THY    HA634475   7.222   4.834   4.841 -2.5358 -0.0047 -3.1106
 1380THY      O34476   2.196   4.065   3.486  0.6132  0.4850  0.0871
 1380THY     HO34477   2.214   3.972   3.465 -2.1150 -0.5139  1.7467
 1380THY    CA134478   2.100   4.093   3.395  0.0228 -0.1068 -0.3272
 1380THY    CA234479   2.078   4.226   3.355  0.8970 -0.3226  0.7269
 1380THY    CP134480   2.162   4.346   3.413  0.6710  0.1056  0.4933
 1380THY    HP134481   2.244   4.302   3.471  0.8889 -1.7256 -1.1030
 1380THY    CP234482   2.225   4.440   3.311 -0.0761 -0.7990  0.0194
 1380THY    HP234483   2.279   4.376   3.241  0.5785 -1.8302  1.4110
 1380THY    HP334484   2.154   4.497   3.250  1.3911 -0.7179 -1.7010
 1380THY    HP434485   2.301   4.498   3.365  1.3239 -0.8436 -1.8047
 1380THY    CP334486   2.068   4.436   3.508  0.4721  0.3849 -0.3319
 1380THY    HP534487   2.030   4.370   3.588  1.4037  0.5461  0.2549
 1380THY    HP634488   2.123   4.519   3.553 -1.3311  1.1438  0.6005
 1380THY    HP734489   1.970   4.474   3.478 -0.4467  0.6008  2.5981
 1380THY    CA334490   1.978   4.246   3.260 -0.2332  0.0734  0.1088
 1380THY    HA334491   1.974   4.341   3.208 -0.1049  0.0231  0.0069
 1380THY    CA434492   1.892   4.141   3.218 -0.1872 -0.3271  0.3659
 1380THY    HA434493   1.809   4.160   3.150  0.8882  1.3056 -0.5698
 1380THY    CA534494   1.922   4.010   3.258 -0.3204 -0.3698  0.4491
 1380THY    CM134495   1.827   3.890   3.223 -0.3805 -0.3495  0.1807
 1380THY    HM134496   1.770   3.908   3.130 -2.4252  0.2913  1.4850
 1380THY    HM234497   1.890   3.803   3.201  0.6623  0.2858  0.6075
 1380THY    HM334498   1.764   3.869   3.310 -1.8224  2.4853 -0.0648
 1380THY    CA634499   2.025   3.989   3.352  0.2038 -0.5976  0.0318
 1380THY    HA634500   2.046   3.890   3.392 -1.7222 -0.2653  2.0986
 1381THY      O34501   8.273   3.741   0.990  0.2586 -0.4448  0.0987
 1381THY     HO34502   8.199   3.719   1.050  0.4910 -2.8614 -0.4135
 1381THY    CA134503   8.222   3.860   0.942  0.9245  0.1521  0.5885
 1381THY    CA234504   8.282   3.929   0.835 -0.0345 -0.3919 -0.4338
 1381THY    CP134505   8.411   3.870   0.766  1.1990 -0.2044 -0.5404
 1381THY    HP134506   8.424   3.762   0.780  2.5492  0.1531  1.2632
 1381THY    CP234507   8.396   3.882   0.618 -0.5403  0.2871  0.4777
 1381THY    HP234508   8.469   3.814   0.571 -2.7789 -0.2241 -2.5961
 1381THY    HP334509   8.300   3.853   0.572  0.5173  1.3588 -2.6970
 1381THY    HP434510   8.419   3.985   0.588 -0.5929  0.4914  1.1158
 1381THY    CP334511   8.531   3.937   0.830  0.0598 -0.2610 -0.1240
 1381THY    HP534512   8.535   4.043   0.800  1.7309 -0.6677 -1.5517
 1381THY    HP634513   8.532   3.921   0.938  1.7384 -1.4429 -0.2726
 1381THY    HP734514   8.626   3.891   0.799  0.2007 -0.4972  0.6503
 1381THY    CA334515   8.227   4.049   0.787 -0.2188  0.0058  0.4847
 1381THY    HA334516   8.282   4.104   0.711 -1.7316  0.8019 -0.0617
 1381THY    CA434517   8.109   4.092   0.849  0.1480  0.7041 -0.4585
 1381THY    HA434518   8.062   4.181   0.810 -1.4887  0.7568  1.4954
 1381THY    CA534519   8.046   4.020   0.952 -0.2415 -0.1157 -0.2548
 1381THY    CM134520   7.921   4.075   1.022  0.5990 -0.6185  0.3112
 1381THY    HM134521   7.854   4.115   0.945 -0.7929  1.0033  2.2545
 1381THY    HM234522   7.879   3.996   1.085 -0.4101  0.8353  1.5611
 1381THY    HM334523   7.964   4.144   1.095 -0.0276 -0.0936  0.1965
 1381THY    CA634524   8.105   3.901   0.999  0.0090 -0.3395 -0.5082
 1381THY    HA634525   8.056   3.832   1.068 -0.5564  0.9464  0.4040
 1382THY      O34526   4.967   2.474   4.120  0.2161 -0.0438 -0.4801
 1382THY     HO34527   5.061   2.500   4.123  0.5431 -1.2320  1.7729
 1382THY    CA134528   4.900   2.547   4.035  0.0437 -0.3963  1.1137
 1382THY    CA234529   4.767   2.525   3.987 -0.8053 -0.1238 -0.2008
 1382THY    CP134530   4.708   2.389   4.038  1.1797  0.4741  0.4304
 1382THY    HP134531   4.786   2.323   4.077 -0.8369 -0.7133  2.6963
 1382THY    CP234532   4.609   2.413   4.150 -0.3620 -0.3582 -0.4817
 1382THY    HP234533   4.510   2.444   4.114  0.0694 -0.3801 -1.7276
 1382THY    HP334534   4.610   2.322   4.211  0.2945  0.3044  0.5216
 1382THY    HP434535   4.639   2.505   4.200 -0.7299 -0.6512  0.2983
 1382THY    CP334536   4.642   2.307   3.926 -0.5184 -0.1050  0.1505
 1382THY    HP534537   4.551   2.349   3.882  0.0004 -0.0956 -0.9602
 1382THY    HP634538   4.712   2.300   3.842 -0.0508 -1.1595  0.6113
 1382THY    HP734539   4.622   2.206   3.964 -2.4112  0.9880  2.3260
 1382THY    CA334540   4.708   2.610   3.896  0.2087  0.1613 -0.3181
 1382THY    HA334541   4.602   2.592   3.876 -1.3591  2.8894  4.0830
 1382THY    CA434542   4.777   2.734   3.865 -0.0014 -0.1813 -0.2722
 1382THY    HA434543   4.729   2.809   3.804 -1.8230 -1.1996 -0.1705
 1382THY    CA534544   4.904   2.759   3.911  0.7884 -0.8154 -0.5548
 1382THY    CM134545   4.982   2.883   3.870 -0.4231  0.3223  0.3294
 1382THY    HM134546   4.942   2.967   3.929  3.3490  0.9246  2.3532
 1382THY    HM234547   5.085   2.878   3.907 -0.0914  1.1982 -0.4290
 1382THY    HM334548   4.966   2.913   3.766 -2.6638  0.8179  0.7647
 1382THY    CA634549   4.962   2.666   3.996  0.3128  0.0727 -0.1563
 1382THY    HA634550   5.059   2.695   4.036 -0.5200  0.5933  1.6220
 1383THY      O34551   4.117   5.871   2.044  0.8478 -0.9292  0.1995
 1383THY     HO34552   4.161   5.933   1.984  0.7527 -0.8017  0.2591
 1383THY    CA134553   4.184   5.876   2.163  0.0635  0.8024 -0.3367
 1383THY    CA234554   4.114   5.864   2.280 -0.4188  0.1290 -0.1844
 1383THY    CP134555   3.970   5.826   2.283 -0.2636 -0.3690 -0.5078
 1383THY    HP134556   3.938   5.798   2.182  0.2430 -3.5061  0.0881
 1383THY    CP234557   3.932   5.705   2.376 -0.2386 -0.6040 -0.2748
 1383THY    HP234558   3.988   5.718   2.469 -0.4157 -3.4608  0.3104
 1383THY    HP334559   3.823   5.706   2.394 -0.1797  1.2267  0.1735
 1383THY    HP434560   3.962   5.615   2.322 -1.6260 -1.0639 -0.3420
 1383THY    CP334561   3.869   5.932   2.324 -0.6197 -0.3193  0.0397
 1383THY    HP534562   3.884   6.020   2.260 -1.0919  0.6358  1.1823
 1383THY    HP634563   3.765   5.901   2.312 -0.4351 -1.2325  0.7291
 1383THY    HP734564   3.876   5.974   2.425 -2.3738  1.1952 -0.4082
 1383THY    CA334565   4.181   5.892   2.400  0.1431 -0.3905  0.1392
 1383THY    HA334566   4.126   5.882   2.493  0.0178 -0.4745  0.0573
 1383THY    CA434567   4.311   5.923   2.399 -0.5808 -0.0528 -0.0036
 1383THY    HA434568   4.371   5.947   2.487  0.0592  1.1241 -0.7237
 1383THY    CA534569   4.388   5.918   2.278 -0.0638  0.5594  0.2832
 1383THY    CM134570   4.537   5.932   2.283 -0.7740 -0.3674  1.1164
 1383THY    HM134571   4.575   6.007   2.212 -3.4296  1.5627  1.5929
 1383THY    HM234572   4.563   5.968   2.383 -1.2189 -1.8643  1.8015
 1383THY    HM334573   4.586   5.834   2.273  0.6397  0.4615 -0.7481
 1383THY    CA634574   4.322   5.904   2.156  1.4713 -0.1048  0.0976
 1383THY    HA634575   4.373   5.907   2.060  0.6252 -0.8181 -0.3908
 1384THY      O34576   2.152   2.698   1.535 -0.2741  0.3150  0.2295
 1384THY     HO34577   2.171   2.609   1.570  0.8792 -0.1566 -1.4240
 1384THY    CA134578   2.111   2.678   1.411  0.0615 -0.0697 -0.8566
 1384THY    CA234579   1.999   2.747   1.359  0.0619 -0.0957 -0.3545
 1384THY    CP134580   1.935   2.867   1.433  0.1581 -0.2524 -0.4181
 1384THY    HP134581   1.934   2.848   1.541  3.2389 -0.3187 -0.3138
 1384THY    CP234582   2.028   2.989   1.411  0.1562 -0.1820 -0.1309
 1384THY    HP234583   2.035   3.023   1.307  0.3439 -1.7361 -0.6500
 1384THY    HP334584   2.004   3.075   1.475 -1.3245 -0.2445 -0.5751
 1384THY    HP434585   2.127   2.955   1.442 -0.5296 -1.3563  0.8795
 1384THY    CP334586   1.789   2.912   1.391 -0.1955 -0.1104  0.7216
 1384THY    HP534587   1.784   2.947   1.287 -0.8993 -0.7764  0.5246
 1384THY    HP634588   1.713   2.834   1.401 -3.4156  1.9409 -3.8619
 1384THY    HP734589   1.753   2.999   1.448  0.1167  0.5615 -0.0786
 1384THY    CA334590   1.938   2.703   1.247 -0.5845  0.0977  0.1968
 1384THY    HA334591   1.848   2.751   1.210 -1.8757 -1.9786  0.5067
 1384THY    CA434592   1.990   2.594   1.186 -0.6822  0.0952  0.6613
 1384THY    HA434593   1.951   2.554   1.093 -0.7622  1.4094  0.1146
 1384THY    CA534594   2.112   2.530   1.220 -0.2965  0.0673 -0.8651
 1384THY    CM134595   2.169   2.406   1.148  0.6882 -0.0797  0.1212
 1384THY    HM134596   2.150   2.414   1.040 -0.5649  0.4988  0.3644
 1384THY    HM234597   2.274   2.399   1.179  0.3820 -0.4445  1.1268
 1384THY    HM334598   2.138   2.307   1.184  1.2564  0.5963  2.7056
 1384THY    CA634599   2.163   2.574   1.344 -0.3210  0.3660 -0.6459
 1384THY    HA634600   2.253   2.522   1.374  0.0409  1.4906  0.2673
 1385THY      O34601   3.245   0.599   4.707  0.0871 -0.0242  0.3606
 1385THY     HO34602   3.319   0.576   4.765  2.0175  0.9563 -1.5681
 1385THY    CA134603   3.286   0.694   4.617 -0.8655 -0.1865  0.0042
 1385THY    CA234604   3.193   0.783   4.559 -0.6119 -0.3838 -0.2002
 1385THY    CP134605   3.047   0.785   4.597  0.9466 -0.0924 -0.0232
 1385THY    HP134606   3.029   0.744   4.697 -0.2497  0.8796  0.1803
 1385THY    CP234607   2.983   0.934   4.607 -0.7584  1.4600  0.1128
 1385THY    HP234608   2.879   0.929   4.642 -1.0962  0.6910 -0.9593
 1385THY    HP334609   3.043   0.996   4.675 -0.8520  1.9523 -0.2510
 1385THY    HP434610   2.985   0.969   4.503  1.1178  0.3982 -0.2534
 1385THY    CP334611   2.972   0.708   4.486  0.5760 -0.5332  0.3036
 1385THY    HP534612   2.969   0.770   4.396  2.5141  0.0459  0.5998
 1385THY    HP634613   3.026   0.620   4.452  1.3203  0.5855 -1.5391
 1385THY    HP734614   2.866   0.687   4.507 -0.2076  0.3247 -2.4050
 1385THY    CA334615   3.244   0.864   4.454 -0.3113 -0.7921  0.3902
 1385THY    HA334616   3.174   0.925   4.399  1.1254 -0.0211 -0.6354
 1385THY    CA434617   3.387   0.884   4.436 -0.1306  0.3775 -0.4200
 1385THY    HA434618   3.422   0.957   4.364  1.1914 -1.2092 -1.4761
 1385THY    CA534619   3.471   0.794   4.505 -0.2024 -0.4215  0.0361
 1385THY    CM134620   3.616   0.805   4.481 -0.0363 -0.0551  1.2863
 1385THY    HM134621   3.647   0.783   4.378 -0.4621 -3.1720  1.7288
 1385THY    HM234622   3.650   0.903   4.515  0.5544  0.1258  0.2291
 1385THY    HM334623   3.676   0.736   4.541  0.2220 -0.0938  0.9889
 1385THY    CA634624   3.424   0.699   4.596 -0.4202 -0.2347  0.2434
 1385THY    HA634625   3.490   0.623   4.635  0.6903  0.9263  0.6898
 1386THY      O34626   8.076   8.719   6.060  0.5692 -0.2881 -0.1538
 1386THY     HO34627   8.042   8.645   6.114 -0.2784  1.2897  1.5916
 1386THY    CA134628   8.026   8.835   6.113 -0.0561  0.0315 -0.5285
 1386THY    CA234629   8.032   8.960   6.048  0.0564  0.3709 -0.0949
 1386THY    CP134630   8.107   8.972   5.914  0.4115  0.2778 -0.1579
 1386THY    HP134631   8.103   8.880   5.855 -1.3114  1.8317 -2.6399
 1386THY    CP234632   8.034   9.078   5.821 -0.8332  0.3095 -0.3029
 1386THY    HP234633   8.044   9.174   5.873  1.6349  0.2680 -0.5627
 1386THY    HP334634   8.087   9.085   5.725  2.2977 -2.3381  1.0246
 1386THY    HP434635   7.930   9.046   5.815 -0.7822  0.1515 -0.3427
 1386THY    CP334636   8.248   9.023   5.925 -0.5498  0.3302  0.0381
 1386THY    HP534637   8.312   8.955   5.982 -0.0541  1.4102  0.8089
 1386THY    HP634638   8.297   9.036   5.828 -3.1520  2.1443 -1.1476
 1386THY    HP734639   8.248   9.120   5.975  0.3976  1.7181 -2.5033
 1386THY    CA334640   7.969   9.068   6.116  1.0322 -0.6683 -0.4528
 1386THY    HA334641   7.966   9.165   6.067  2.2156 -0.3874  0.0015
 1386THY    CA434642   7.902   9.054   6.243 -0.0661 -0.0572  0.3857
 1386THY    HA434643   7.852   9.141   6.283  1.1062  0.7557  0.1231
 1386THY    CA534644   7.910   8.932   6.309  0.1187 -0.4964 -0.5732
 1386THY    CM134645   7.851   8.913   6.449 -0.0387 -0.0031 -0.1578
 1386THY    HM134646   7.744   8.888   6.450 -0.1927  0.6489  0.8910
 1386THY    HM234647   7.901   8.830   6.499 -2.1783 -1.1876  0.1500
 1386THY    HM334648   7.873   8.999   6.513  2.2500  0.9678 -2.0907
 1386THY    CA634649   7.970   8.823   6.245 -0.7337  0.5824 -0.0871
 1386THY    HA634650   7.970   8.726   6.293 -0.2480  0.5044 -0.2442
 1387THY      O34651   4.822   5.264   6.516 -0.8317 -0.4376 -0.7087
 1387THY     HO34652   4.778   5.300   6.595  0.7223 -0.2520  0.1142
 1387THY    CA134653   4.943   5.322   6.505 -0.5832  1.0331 -0.1689
 1387THY    CA234654   5.026   5.275   6.400 -0.1475  0.3611  0.3698
 1387THY    CP134655   4.976   5.168   6.306 -0.3935  1.1184 -0.0177
 1387THY    HP134656   4.875   5.133   6.326 -0.0347 -1.3583 -1.9800
 1387THY    CP234657   4.979   5.214   6.163  1.0939 -0.9511 -0.1774
 1387THY    HP234658   4.899   5.283   6.133  0.9983 -1.7399 -1.8676
 1387THY    HP334659   5.081   5.248   6.140  0.5221  0.1312 -1.2162
 1387THY    HP434660   4.964   5.129   6.094 -2.3568 -2.0483  1.6793
 1387THY    CP334661   5.069   5.045   6.336 -0.0246  0.2247  0.3125
 1387THY    HP534662   5.030   4.955   6.287 -0.0563  0.3394  0.1265
 1387THY    HP634663   5.168   5.056   6.291  1.0050 -1.9771  1.8550
 1387THY    HP734664   5.072   5.012   6.441  0.2960 -0.2968  0.1449
 1387THY    CA334665   5.163   5.324   6.393  0.4376  0.2024  0.0986
 1387THY    HA334666   5.228   5.290   6.313  0.8110 -1.1232  0.9342
 1387THY    CA434667   5.207   5.410   6.493 -0.0208  0.5825  0.6591
 1387THY    HA434668   5.308   5.451   6.492 -0.5705  2.0874 -1.6183
 1387THY    CA534669   5.123   5.450   6.599  0.0551 -0.2540  0.0779
 1387THY    CM134670   5.167   5.546   6.701 -0.5275 -0.3280  0.0311
 1387THY    HM134671   5.117   5.643   6.691 -0.9947 -0.5352  0.2869
 1387THY    HM234672   5.139   5.502   6.798 -3.4804 -1.2545 -1.1379
 1387THY    HM334673   5.275   5.563   6.705 -0.4649 -0.2118 -1.6651
 1387THY    CA634674   4.989   5.414   6.600  0.0969  1.0639  0.8096
 1387THY    HA634675   4.914   5.456   6.667 -0.7367  0.5825  0.1889
 1388THY      O34676   0.345   4.023   3.946 -0.0451 -0.1934  0.0197
 1388THY     HO34677   0.250   4.040   3.939  0.1170  0.4753 -0.7442
 1388THY    CA134678   0.389   4.047   3.823 -1.1275 -0.8220 -0.3945
 1388THY    CA234679   0.520   4.013   3.778  0.2147  0.9324 -0.4041
 1388THY    CP134680   0.621   3.945   3.869 -0.0896 -0.0383  0.4636
 1388THY    HP134681   0.579   3.934   3.970 -0.0298 -2.0508  0.3176
 1388THY    CP234682   0.662   3.799   3.834 -0.0988 -0.7996 -0.1125
 1388THY    HP234683   0.714   3.755   3.920 -1.4443 -1.2370  0.4954
 1388THY    HP334684   0.574   3.739   3.811  0.1253 -0.1541 -3.0497
 1388THY    HP434685   0.725   3.781   3.746 -1.3083  1.1015 -1.4618
 1388THY    CP334686   0.750   4.018   3.876 -0.0393 -0.6794 -0.2660
 1388THY    HP534687   0.719   4.120   3.902  0.8295 -1.0053  2.3535
 1388THY    HP634688   0.820   3.968   3.944  0.9099  0.7199 -0.1677
 1388THY    HP734689   0.797   4.021   3.777  0.7999 -0.6621  0.1278
 1388THY    CA334690   0.567   4.035   3.647  0.6255 -0.3215  0.3525
 1388THY    HA334691   0.666   3.998   3.621  0.5575 -1.8290  1.9934
 1388THY    CA434692   0.473   4.085   3.560  0.5026 -0.3498  0.2157
 1388THY    HA434693   0.506   4.105   3.458  2.0899  2.3170  1.1580
 1388THY    CA534694   0.338   4.113   3.594 -0.1995  0.1845 -0.7707
 1388THY    CM134695   0.248   4.171   3.489  0.1543 -0.4064  0.6593
 1388THY    HM134696   0.296   4.210   3.399 -2.9738  1.1475 -0.4843
 1388THY    HM234697   0.168   4.103   3.458 -1.3196  1.6645 -0.3649
 1388THY    HM334698   0.199   4.259   3.535  0.3693  0.4631 -0.7327
 1388THY    CA634699   0.299   4.092   3.727 -0.0666 -0.3914  0.5249
 1388THY    HA634700   0.194   4.107   3.748 -0.6628 -2.8968 -0.2761
 1389THY      O34701   3.510   9.065   9.646 -0.4901 -0.4740 -0.2916
 1389THY     HO34702   3.561   9.063   9.729 -0.8572 -0.9072 -0.0749
 1389THY    CA134703   3.480   9.198   9.627 -0.3808 -0.3969 -0.9699
 1389THY    CA234704   3.426   9.242   9.509  1.0132 -0.0359  0.1732
 1389THY    CP134705   3.378   9.150   9.394 -0.3533  0.6670 -0.3711
 1389THY    HP134706   3.416   9.050   9.413 -0.8333  0.3781 -0.9066
 1389THY    CP234707   3.224   9.123   9.394 -0.0839 -0.3803 -0.5701
 1389THY    HP234708   3.184   9.073   9.482 -3.5970 -1.6269 -2.6582
 1389THY    HP334709   3.163   9.213   9.375  1.2773  0.4726 -1.0612
 1389THY    HP434710   3.207   9.061   9.305  2.5092 -1.6345 -0.2817
 1389THY    CP334711   3.424   9.204   9.252  0.6578 -0.0118 -0.7413
 1389THY    HP534712   3.399   9.124   9.181  0.6992 -0.9490  0.2633
 1389THY    HP634713   3.361   9.291   9.229 -0.4569 -0.6446 -0.1995
 1389THY    HP734714   3.529   9.232   9.257  0.4891  0.4726  1.5374
 1389THY    CA334715   3.395   9.376   9.497 -0.3693  0.1031  0.5178
 1389THY    HA334716   3.370   9.420   9.401  0.9839 -1.5607 -0.6632
 1389THY    CA434717   3.416   9.459   9.612 -0.3700  0.0479  0.3570
 1389THY    HA434718   3.402   9.565   9.591  4.3938  0.6754 -0.6779
 1389THY    CA534719   3.466   9.410   9.735  0.6365 -0.0618 -0.0430
 1389THY    CM134720   3.499   9.514   9.837 -0.3143 -0.3333  0.1306
 1389THY    HM134721   3.581   9.479   9.901 -1.5068  0.4847  2.2198
 1389THY    HM234722   3.544   9.599   9.785 -0.4907  1.9210  3.4063
 1389THY    HM334723   3.420   9.546   9.905 -0.5323  1.3095 -0.8330
 1389THY    CA634724   3.502   9.277   9.736 -0.5267 -0.1720 -0.0236
 1389THY    HA634725   3.560   9.244   9.822  2.3282  0.9306 -1.3791
 1390THY      O34726   7.566   4.940   5.541 -0.8911  0.2345 -0.3943
 1390THY     HO34727   7.517   4.882   5.603  1.3544 -1.2079  0.1361
 1390THY    CA134728   7.538   5.064   5.578  1.6701 -1.2929  1.3066
 1390THY    CA234729   7.634   5.165   5.548  0.0892 -0.3538  0.1601
 1390THY    CP134730   7.772   5.139   5.473  0.0613 -0.7950 -0.5868
 1390THY    HP134731   7.741   5.071   5.393  0.5068 -0.0492 -1.4111
 1390THY    CP234732   7.840   5.263   5.411 -0.5929 -0.2215  0.1421
 1390THY    HP234733   7.848   5.350   5.478  3.0429 -0.2501 -0.0641
 1390THY    HP334734   7.945   5.241   5.390 -0.0208  0.8775  1.6185
 1390THY    HP434735   7.788   5.295   5.320 -0.9275  1.1341  0.7843
 1390THY    CP334736   7.880   5.077   5.571  0.3247  0.0166 -0.0160
 1390THY    HP534737   7.924   5.160   5.627 -0.7121 -0.7674  2.0448
 1390THY    HP634738   7.839   4.996   5.631 -0.5050  1.4217  1.3766
 1390THY    HP734739   7.953   5.035   5.501 -0.7734 -0.9359 -0.6390
 1390THY    CA334740   7.600   5.293   5.603  0.1915  0.4007  0.3331
 1390THY    HA334741   7.671   5.375   5.599 -1.6415  2.2004  2.1918
 1390THY    CA434742   7.482   5.307   5.673  0.5048 -0.6680  0.1432
 1390THY    HA434743   7.460   5.400   5.724  0.1661  0.0686 -1.2824
 1390THY    CA534744   7.389   5.205   5.684 -0.1254 -0.4245  0.6627
 1390THY    CM134745   7.257   5.212   5.765  0.2886 -0.0532  0.4614
 1390THY    HM134746   7.199   5.127   5.729 -2.5775  1.4884  1.1374
 1390THY    HM234747   7.271   5.219   5.874 -0.1542  1.6664  0.4334
 1390THY    HM334748   7.200   5.302   5.737 -0.2838 -0.6163 -0.2226
 1390THY    CA634749   7.418   5.077   5.640  0.0526 -0.0349 -0.8706
 1390THY    HA634750   7.345   4.997   5.652 -0.3280  0.4966  0.4950
 1391THY      O34751   9.045   8.476   9.285 -0.0143  0.8108  0.0422
 1391THY     HO34752   9.099   8.463   9.364 -2.0369 -1.4316  1.1815
 1391THY    CA134753   8.952   8.376   9.278 -0.6862  0.7882  0.3205
 1391THY    CA234754   8.819   8.399   9.260  0.4664  0.0606 -0.2305
 1391THY    CP134755   8.777   8.547   9.225  0.0933  0.3952  0.9487
 1391THY    HP134756   8.859   8.609   9.187 -1.7093  1.8368 -0.7622
 1391THY    CP234757   8.663   8.544   9.122  0.1745 -0.2725  0.0624
 1391THY    HP234758   8.576   8.487   9.156 -0.5120  0.6903 -0.0512
 1391THY    HP334759   8.634   8.649   9.108  2.2746  0.5378  1.2835
 1391THY    HP434760   8.693   8.504   9.024  0.7688  0.0983  0.0859
 1391THY    CP334761   8.713   8.615   9.347 -0.2031  0.5946  0.4902
 1391THY    HP534762   8.677   8.716   9.324 -0.9084  0.4307  0.8517
 1391THY    HP634763   8.632   8.555   9.389 -2.2459  1.9930 -1.2290
 1391THY    HP734764   8.794   8.631   9.419 -1.3032  0.9092  1.6976
 1391THY    CA334765   8.729   8.283   9.260 -0.1309  0.2611  0.0032
 1391THY    HA334766   8.628   8.277   9.219 -0.0705 -3.6312 -0.0119
 1391THY    CA434767   8.785   8.153   9.267 -0.4704  0.1027  0.4258
 1391THY    HA434768   8.719   8.066   9.262 -1.5334  0.8165  1.4300
 1391THY    CA534769   8.920   8.138   9.290  0.1265  0.4509  0.5527
 1391THY    CM134770   8.985   7.993   9.311  0.2286 -0.7792  0.6366
 1391THY    HM134771   9.094   8.006   9.322  0.5500 -2.7578  0.1399
 1391THY    HM234772   8.934   7.952   9.399 -1.7992  0.3060  0.0297
 1391THY    HM334773   8.961   7.927   9.227  0.4911 -0.2451  0.1265
 1391THY    CA634774   9.003   8.248   9.304  0.2329  0.6642  0.0073
 1391THY    HA634775   9.107   8.230   9.333  0.6522  3.4073  0.4869
 1392THY      O34776   0.797   8.883   1.667 -0.1554  0.1512  0.9778
 1392THY     HO34777   0.883   8.921   1.641 -1.4312  2.5447 -0.1319
 1392THY    CA134778   0.702   8.963   1.609  0.1036 -0.4930  0.0600
 1392THY    CA234779   0.565   8.958   1.644  0.2789  0.6364 -0.6175
 1392THY    CP134780   0.521   8.861   1.756  0.3679  0.0834 -0.1141
 1392THY    HP134781   0.615   8.822   1.799  1.2610  2.2721  0.0412
 1392THY    CP234782   0.451   8.938   1.871 -0.0600  0.2089 -0.3849
 1392THY    HP234783   0.359   8.989   1.840 -0.2166  0.4515  0.4405
 1392THY    HP334784   0.430   8.866   1.951 -2.8636  0.1386 -1.0837
 1392THY    HP434785   0.518   9.012   1.919 -0.7284 -0.1027  1.0969
 1392THY    CP334786   0.424   8.747   1.717  0.0944 -0.1097 -0.2150
 1392THY    HP534787   0.369   8.700   1.800 -1.8798  0.2966 -1.2220
 1392THY    HP634788   0.356   8.780   1.637  0.6510 -1.9357 -1.5125
 1392THY    HP734789   0.471   8.665   1.663 -2.6878 -1.4021 -0.8624
 1392THY    CA334790   0.475   9.052   1.592  0.3472  0.4780  0.2292
 1392THY    HA334791   0.370   9.039   1.617  0.0238 -1.0532 -1.6667
 1392THY    CA434792   0.522   9.138   1.489 -0.2679 -0.5149  0.5020
 1392THY    HA434793   0.451   9.213   1.455  0.8106  0.3478  0.0964
 1392THY    CA534794   0.659   9.139   1.451 -0.1129 -0.3809  0.7901
 1392THY    CM134795   0.709   9.234   1.342 -0.0165 -0.6177 -0.4958
 1392THY    HM134796   0.803   9.198   1.299  1.0218 -0.0527  1.2087
 1392THY    HM234797   0.634   9.251   1.265 -1.7380  0.9464  1.4061
 1392THY    HM334798   0.724   9.336   1.380  0.8449 -0.3143 -1.6001
 1392THY    CA634799   0.749   9.056   1.515 -0.7775  0.0585  0.1467
 1392THY    HA634800   0.852   9.055   1.481 -1.4648 -1.0817 -2.1365
 1393THY      O34801   4.540   5.207   8.526 -0.1220  0.1884  0.4279
 1393THY     HO34802   4.584   5.191   8.611 -0.3436 -1.5312  0.2586
 1393THY    CA134803   4.438   5.117   8.527  0.1106 -0.0897 -0.4616
 1393THY    CA234804   4.314   5.151   8.475  0.2359 -0.2414  0.6852
 1393THY    CP134805   4.283   5.289   8.402 -0.7564 -0.0182 -0.1693
 1393THY    HP134806   4.370   5.351   8.424 -1.5924  0.5637  1.7076
 1393THY    CP234807   4.272   5.279   8.245 -1.1634  0.5201 -0.1325
 1393THY    HP234808   4.214   5.367   8.216  0.3611  1.1082 -1.5152
 1393THY    HP334809   4.364   5.290   8.188 -1.2403  0.8161 -0.2007
 1393THY    HP434810   4.217   5.192   8.208 -0.4751  0.6212 -1.4464
 1393THY    CP334811   4.154   5.355   8.459  0.1711 -1.0600 -0.5415
 1393THY    HP534812   4.059   5.306   8.436 -0.2244 -0.0386 -1.1553
 1393THY    HP634813   4.154   5.370   8.567  0.5641 -1.2203 -0.5223
 1393THY    HP734814   4.146   5.453   8.409 -1.8543 -1.0828 -0.3677
 1393THY    CA334815   4.215   5.056   8.479 -0.2004 -0.0362  0.7645
 1393THY    HA334816   4.120   5.070   8.428  0.3712 -0.9414 -0.5884
 1393THY    CA434817   4.249   4.930   8.526 -0.7670  0.0888  0.1604
 1393THY    HA434818   4.184   4.843   8.523 -2.1631  0.9810  2.0792
 1393THY    CA534819   4.366   4.897   8.588  0.2042 -0.1306 -0.0738
 1393THY    CM134820   4.387   4.759   8.654  0.2198  0.5470  0.5562
 1393THY    HM134821   4.419   4.775   8.757 -2.5256  0.0368  1.5831
 1393THY    HM234822   4.298   4.694   8.654  0.0477  0.7733  1.3510
 1393THY    HM334823   4.471   4.713   8.601  2.2318  1.3856  2.8722
 1393THY    CA634824   4.459   4.995   8.598 -0.2396 -0.6066  0.5440
 1393THY    HA634825   4.550   4.977   8.655  1.0078  1.0714 -0.8064
 1394THY      O34826   0.709   4.036   2.574 -0.3484 -0.1550  0.0680
 1394THY     HO34827   0.799   4.001   2.561  0.0374 -0.0645  2.1865
 1394THY    CA134828   0.627   3.935   2.601 -0.1050 -0.4180  0.0178
 1394THY    CA234829   0.483   3.944   2.591  0.0364 -0.8285 -0.2510
 1394THY    CP134830   0.426   4.069   2.538  1.1193  0.8259  0.5405
 1394THY    HP134831   0.488   4.101   2.454  1.1548  0.9448  0.6114
 1394THY    CP234832   0.287   4.066   2.476  0.1212 -0.1885 -0.2572
 1394THY    HP234833   0.285   4.145   2.400 -3.4257 -0.0683 -0.1936
 1394THY    HP334834   0.273   3.974   2.417  0.6380  0.7797 -1.9631
 1394THY    HP434835   0.209   4.092   2.548 -0.3450  0.4666 -0.9809
 1394THY    CP334836   0.435   4.183   2.632 -0.4751  0.2538  0.0881
 1394THY    HP534837   0.526   4.186   2.693  0.4494 -0.3736 -1.2058
 1394THY    HP634838   0.428   4.275   2.573 -1.1424  0.9107  1.1422
 1394THY    HP734839   0.349   4.191   2.700 -0.5493 -0.8053  0.1398
 1394THY    CA334840   0.409   3.837   2.631  0.5204  0.1140 -0.4042
 1394THY    HA334841   0.302   3.852   2.624  0.2769 -1.4307 -0.3264
 1394THY    CA434842   0.464   3.723   2.685  0.4492  0.7032 -0.0261
 1394THY    HA434843   0.409   3.647   2.741  0.4032  0.9455  0.2576
 1394THY    CA534844   0.603   3.714   2.682 -0.1270  0.2701 -0.2000
 1394THY    CM134845   0.661   3.581   2.732  0.5551 -1.0108  0.1413
 1394THY    HM134846   0.597   3.492   2.730  0.2915 -0.8560  1.0456
 1394THY    HM234847   0.752   3.564   2.673 -0.0775 -0.4765 -1.0236
 1394THY    HM334848   0.703   3.604   2.831  0.6948 -0.3451 -0.0645
 1394THY    CA634849   0.686   3.821   2.648  0.2516 -0.1743  0.2578
 1394THY    HA634850   0.791   3.801   2.667  1.0676  1.1231 -2.3923
 1395THY      O34851   7.983   5.113   6.603  0.1703  0.1188  0.1796
 1395THY     HO34852   7.992   5.036   6.661  0.1877 -0.0787 -0.0822
 1395THY    CA134853   7.963   5.061   6.480 -0.3671 -0.9325  0.3258
 1395THY    CA234854   8.027   5.112   6.361  0.2835 -0.7203  0.2788
 1395THY    CP134855   8.113   5.245   6.361  0.2681  0.7169 -0.6644
 1395THY    HP134856   8.091   5.301   6.452 -0.4056 -0.3642 -0.1407
 1395THY    CP234857   8.263   5.219   6.366 -0.4388  0.2953 -0.4994
 1395THY    HP234858   8.324   5.310   6.368 -2.7864  1.9666  0.7508
 1395THY    HP334859   8.285   5.167   6.461 -1.7178 -0.8211 -0.7709
 1395THY    HP434860   8.300   5.153   6.287  0.5998 -0.5433  0.6460
 1395THY    CP334861   8.080   5.339   6.240  0.2410 -0.5554 -0.2489
 1395THY    HP534862   8.120   5.289   6.151 -0.5042  1.5810 -1.8724
 1395THY    HP634863   7.970   5.341   6.240  0.2555  0.2312 -0.1869
 1395THY    HP734864   8.117   5.441   6.253 -0.2403 -0.3358 -0.5708
 1395THY    CA334865   8.007   5.042   6.234 -0.2489 -1.3873  0.3970
 1395THY    HA334866   8.070   5.069   6.150  2.1438 -1.1561  2.1702
 1395THY    CA434867   7.923   4.928   6.229  0.9373  0.1732  0.6647
 1395THY    HA434868   7.907   4.875   6.135  1.6637 -0.2470  0.7793
 1395THY    CA534869   7.861   4.886   6.347  0.7081 -0.5624  0.4012
 1395THY    CM134870   7.781   4.758   6.335 -0.3227 -0.8502  0.7436
 1395THY    HM134871   7.678   4.772   6.368 -0.6755 -2.8330  0.5934
 1395THY    HM234872   7.753   4.733   6.232 -0.9010 -2.0946  1.1784
 1395THY    HM334873   7.816   4.676   6.399 -0.8700 -1.8220 -0.1793
 1395THY    CA634874   7.879   4.951   6.466 -0.4824  0.0264 -1.0300
 1395THY    HA634875   7.819   4.925   6.552  0.3313 -1.0123 -0.7560
 1396THY      O34876   5.811   5.068   4.752  0.4786 -0.0920  0.0345
 1396THY     HO34877   5.786   5.046   4.843  1.4229  1.7714  0.7931
 1396THY    CA134878   5.810   5.205   4.763 -0.0978 -0.1403  0.5978
 1396THY    CA234879   5.814   5.289   4.651  0.6996  0.0567  0.4827
 1396THY    CP134880   5.781   5.227   4.508  0.0995  0.4573 -0.0127
 1396THY    HP134881   5.835   5.131   4.505 -0.7122 -0.1377  2.3269
 1396THY    CP234882   5.636   5.189   4.491  0.3758 -0.3993  0.7517
 1396THY    HP234883   5.607   5.117   4.569  0.3381  0.3826  1.4688
 1396THY    HP334884   5.580   5.281   4.509 -0.3341 -0.4201 -1.0919
 1396THY    HP434885   5.622   5.142   4.392  0.9133 -1.1699  1.0273
 1396THY    CP334886   5.831   5.314   4.393  0.1661 -0.0541  0.4210
 1396THY    HP534887   5.767   5.402   4.399  1.8219  1.1645  1.1223
 1396THY    HP634888   5.931   5.357   4.407 -0.3006  0.8339  1.0813
 1396THY    HP734889   5.814   5.275   4.292  0.4776 -0.5524  0.5556
 1396THY    CA334890   5.831   5.429   4.674 -0.3337  0.0832  0.0528
 1396THY    HA334891   5.832   5.497   4.589 -0.8517 -1.3267 -1.1325
 1396THY    CA434892   5.832   5.481   4.804  0.3152 -0.3635 -0.2967
 1396THY    HA434893   5.842   5.587   4.826 -0.9407 -0.1131 -0.8059
 1396THY    CA534894   5.826   5.390   4.914 -0.1028 -0.5149 -0.5688
 1396THY    CM134895   5.827   5.445   5.057 -0.3240  0.5885  0.3394
 1396THY    HM134896   5.806   5.365   5.129  2.3455 -1.6818 -1.1818
 1396THY    HM234897   5.923   5.497   5.068 -0.5711  1.0772  0.2169
 1396THY    HM334898   5.743   5.515   5.055 -1.3640 -0.6132  0.4433
 1396THY    CA634899   5.817   5.254   4.890  0.6571  0.4272  0.1053
 1396THY    HA634900   5.805   5.187   4.975 -3.5044  0.0622 -0.5614
 1397THY      O34901   7.878   6.185   2.876 -0.5264  0.5336 -1.0655
 1397THY     HO34902   7.851   6.257   2.816 -0.1154  0.8039 -0.9323
 1397THY    CA134903   7.904   6.259   2.978 -0.2201 -0.1066 -0.1273
 1397THY    CA234904   8.010   6.234   3.066  0.0298 -0.1097  0.4552
 1397THY    CP134905   8.108   6.118   3.053  0.1754  0.2749  0.5123
 1397THY    HP134906   8.088   6.057   2.965  0.7774  1.1094 -0.2212
 1397THY    CP234907   8.260   6.155   3.046 -1.1436  0.4585  0.5645
 1397THY    HP234908   8.281   6.223   2.962 -3.5013 -0.0136 -0.4765
 1397THY    HP334909   8.298   6.197   3.140 -0.2906 -0.8733  0.8462
 1397THY    HP434910   8.319   6.067   3.019  0.6766  1.2283  1.8609
 1397THY    CP334911   8.088   6.016   3.169  0.2283 -0.4058  0.6683
 1397THY    HP534912   8.144   6.057   3.253  3.1154  1.1961 -1.8276
 1397THY    HP634913   7.985   6.006   3.206  0.9537 -2.8769  2.2804
 1397THY    HP734914   8.109   5.912   3.142  0.6856 -0.1801  0.1395
 1397THY    CA334915   8.031   6.334   3.169 -0.0358 -0.2682  0.0256
 1397THY    HA334916   8.124   6.336   3.226  0.4020  2.2805 -0.6435
 1397THY    CA434917   7.934   6.439   3.183 -0.1675 -0.7295  0.6534
 1397THY    HA434918   7.959   6.510   3.261  2.2976  1.9076 -2.2493
 1397THY    CA534919   7.831   6.463   3.096  1.0335 -0.2556 -0.0736
 1397THY    CM134920   7.737   6.577   3.122 -0.5740  1.0163  0.3092
 1397THY    HM134921   7.798   6.667   3.117  0.4963  0.2803 -0.4519
 1397THY    HM234922   7.659   6.593   3.047 -1.4805  2.1487  1.4486
 1397THY    HM334923   7.707   6.570   3.227  1.6695  0.2831  0.9580
 1397THY    CA634924   7.813   6.367   2.995 -0.5021 -0.1457 -0.1643
 1397THY    HA634925   7.729   6.378   2.926 -0.8515 -1.2406  0.0631
 1398THY      O34926   8.181   9.749   7.890 -0.1120 -0.1036  0.1878
 1398THY     HO34927   8.172   9.774   7.983 -0.5263 -0.8604  0.3556
 1398THY    CA134928   8.301   9.685   7.885  0.5982  0.4177  0.1530
 1398THY    CA234929   8.348   9.621   7.763 -0.0463 -0.4086  0.4631
 1398THY    CP134930   8.271   9.635   7.623 -0.7585  0.9699  0.6167
 1398THY    HP134931   8.223   9.734   7.619  0.9720  1.8062 -0.5448
 1398THY    CP234932   8.349   9.609   7.489  0.0015 -0.0067  0.5264
 1398THY    HP234933   8.377   9.505   7.470  0.0045  0.0769  0.0652
 1398THY    HP334934   8.311   9.667   7.403  3.5847  0.7569 -0.7038
 1398THY    HP434935   8.449   9.651   7.498  0.6638 -1.1208 -1.1476
 1398THY    CP334936   8.155   9.537   7.622  0.2123  0.0899 -0.4428
 1398THY    HP534937   8.085   9.559   7.541 -0.0500 -1.3717 -0.6394
 1398THY    HP634938   8.198   9.438   7.599  1.9272  0.6211  0.2600
 1398THY    HP734939   8.102   9.530   7.718  0.4588  0.0592 -0.3081
 1398THY    CA334940   8.476   9.558   7.771  0.0018 -0.0603 -0.2886
 1398THY    HA334941   8.527   9.518   7.683  1.9353 -0.8707  1.1201
 1398THY    CA434942   8.548   9.561   7.891 -0.6891  0.4615 -0.4850
 1398THY    HA434943   8.641   9.507   7.906 -0.7791  0.9240  2.4975
 1398THY    CA534944   8.496   9.610   8.012 -0.1379 -0.1073 -0.2585
 1398THY    CM134945   8.572   9.591   8.143  0.4076  0.0254  0.7368
 1398THY    HM134946   8.525   9.634   8.232  0.8618 -0.0744  1.0234
 1398THY    HM234947   8.578   9.487   8.175  1.7838 -0.6621 -1.5140
 1398THY    HM334948   8.673   9.631   8.131  0.4519 -0.1498  0.5213
 1398THY    CA634949   8.366   9.668   8.008  0.5836  0.4034  0.1049
 1398THY    HA634950   8.320   9.698   8.102  0.9894 -1.3406  0.9153
 1399THY      O34951   8.730   8.409   8.408  0.1211  0.2130  0.1168
 1399THY     HO34952   8.729   8.408   8.505 -1.1039 -0.8370  0.1177
 1399THY    CA134953   8.771   8.286   8.374  0.0501 -0.1643  0.7741
 1399THY    CA234954   8.754   8.246   8.234 -0.1803 -0.7110 -0.0100
 1399THY    CP134955   8.709   8.351   8.128 -0.0953  0.5842 -0.2508
 1399THY    HP134956   8.674   8.442   8.178 -0.7391  1.3212 -1.9694
 1399THY    CP234957   8.834   8.392   8.047 -0.1904 -0.4667  0.9027
 1399THY    HP234958   8.918   8.413   8.114  0.9771  0.0882 -0.6615
 1399THY    HP334959   8.864   8.303   7.991 -0.6184  0.3202 -0.6670
 1399THY    HP434960   8.811   8.485   7.993 -2.0938 -0.5077  1.5684
 1399THY    CP334961   8.605   8.306   8.027  0.2224 -0.0178 -0.4676
 1399THY    HP534962   8.638   8.228   7.957  0.0989 -0.3387 -0.1725
 1399THY    HP634963   8.522   8.251   8.072  0.1393  1.1462  0.8784
 1399THY    HP734964   8.568   8.376   7.952  1.3509 -0.5177 -1.5144
 1399THY    CA334965   8.794   8.115   8.195 -0.3875  0.2656 -0.3837
 1399THY    HA334966   8.800   8.078   8.093  0.4383 -2.7368  0.6538
 1399THY    CA434967   8.859   8.036   8.296  0.4188  0.5123 -0.0062
 1399THY    HA434968   8.906   7.941   8.270  1.9772  0.7073  1.8500
 1399THY    CA534969   8.870   8.077   8.430  0.7473 -0.2431  0.2221
 1399THY    CM134970   8.939   7.987   8.524 -0.3033  0.0096 -0.5621
 1399THY    HM134971   9.047   7.996   8.508  0.1004 -2.5352  0.3495
 1399THY    HM234972   8.913   8.009   8.628  2.0619 -0.7395  0.2464
 1399THY    HM334973   8.902   7.886   8.506 -0.2898 -0.0885 -0.0490
 1399THY    CA634974   8.816   8.198   8.467  0.3390  0.6611  0.3431
 1399THY    HA634975   8.829   8.229   8.571  1.5091  2.6740 -0.3334
 1400THY      O34976   1.455   6.613   1.614  0.2089 -0.2004 -0.3748
 1400THY     HO34977   1.515   6.662   1.673  1.2590 -0.9503 -0.7863
 1400THY    CA134978   1.525   6.540   1.529 -0.2911  0.2344  0.3654
 1400THY    CA234979   1.472   6.424   1.484  0.5187  0.3699  0.6737
 1400THY    CP134980   1.334   6.363   1.528 -0.5137 -0.1455  0.0282
 1400THY    HP134981   1.279   6.434   1.590  2.5751  2.6034 -0.1202
 1400THY    CP234982   1.247   6.314   1.409  0.5397 -0.6585  0.4854
 1400THY    HP234983   1.219   6.398   1.344  1.1143  0.0718  1.1718
 1400THY    HP334984   1.292   6.233   1.349  0.8954 -0.9322  1.1087
 1400THY    HP434985   1.150   6.277   1.441 -0.4547 -0.7960 -2.3767
 1400THY    CP334986   1.351   6.245   1.640 -0.1767  0.6071 -0.0235
 1400THY    HP534987   1.396   6.272   1.736 -1.5011  2.5647  0.1098
 1400THY    HP634988   1.254   6.205   1.673  0.0027 -0.2045 -0.4581
 1400THY    HP734989   1.408   6.161   1.598 -0.4670  0.6456 -0.5035
 1400THY    CA334990   1.550   6.346   1.394  0.1822  0.0741 -0.4485
 1400THY    HA334991   1.503   6.259   1.349 -2.0073  1.2556 -0.5776
 1400THY    CA434992   1.678   6.388   1.353 -0.1687  0.6200  0.4771
 1400THY    HA434993   1.736   6.333   1.280  1.9052  2.5653  0.5553
 1400THY    CA534994   1.733   6.499   1.402  0.2468  0.1539  0.1396
 1400THY    CM134995   1.864   6.546   1.345  0.0005 -0.2014  0.0284
 1400THY    HM134996   1.910   6.464   1.288  2.0540 -0.0189  1.3264
 1400THY    HM234997   1.846   6.632   1.280  0.4039 -1.1404 -1.3746
 1400THY    HM334998   1.942   6.564   1.419  0.3215 -1.0261 -0.0913
 1400THY    CA634999   1.647   6.588   1.473  0.4053  0.2091  0.0459
 1400THY    HA635000   1.685   6.683   1.509  0.3777 -0.8747  3.2430
 1401THY      O35001   0.427   6.029   2.117  0.2263  0.1969 -0.6159
 1401THY     HO35002   0.506   6.038   2.171 -0.9937 -0.8329  1.4621
 1401THY    CA135003   0.402   5.897   2.110 -0.1786 -0.2514 -0.7270
 1401THY    CA235004   0.315   5.850   2.009  0.4633 -0.2724 -0.4400
 1401THY    CP135005   0.245   5.944   1.908 -0.6149  0.5333 -0.8738
 1401THY    HP135006   0.248   6.048   1.944 -1.2896  0.6381 -1.1169
 1401THY    CP235007   0.301   5.927   1.769 -1.3041  0.8903 -0.3868
 1401THY    HP235008   0.408   5.947   1.760 -0.9656  0.0834  1.3497
 1401THY    HP335009   0.281   5.824   1.737 -0.2721  1.3572 -2.6986
 1401THY    HP435010   0.248   5.996   1.702  0.2353  0.2191 -2.4025
 1401THY    CP335011   0.091   5.917   1.910  0.4291  0.4773 -0.2601
 1401THY    HP535012   0.026   5.965   1.836  0.6165  1.8177  0.4165
 1401THY    HP635013   0.067   5.816   1.875  2.0958 -0.7368  1.8327
 1401THY    HP735014   0.046   5.929   2.009 -3.8019  1.4982 -2.0913
 1401THY    CA335015   0.284   5.711   2.010  0.5695 -0.6586  0.0650
 1401THY    HA335016   0.212   5.671   1.938 -0.0168 -0.3291  0.4577
 1401THY    CA435017   0.339   5.627   2.105  1.3621 -0.7910 -0.0904
 1401THY    HA435018   0.315   5.521   2.115  1.9823 -0.8399  1.1782
 1401THY    CA535019   0.428   5.676   2.201 -0.0957  0.3433 -0.5303
 1401THY    CM135020   0.496   5.584   2.293  0.2373 -0.0259 -0.3163
 1401THY    HM135021   0.518   5.486   2.248 -0.3594 -0.3926  0.1684
 1401THY    HM235022   0.596   5.623   2.315 -0.8347  2.4705  0.4628
 1401THY    HM335023   0.431   5.561   2.378 -0.5294  0.0744 -0.8630
 1401THY    CA635024   0.460   5.809   2.202 -0.4161 -0.3437  0.0801
 1401THY    HA635025   0.526   5.850   2.277  1.8390 -2.0292 -0.8554
 1402THY      O35026   1.101   1.671   7.310  0.1406 -0.3288  0.6113
 1402THY     HO35027   1.184   1.645   7.352  0.5682  0.8248  0.5066
 1402THY    CA135028   1.012   1.689   7.409 -0.1202 -0.0089 -0.2059
 1402THY    CA235029   0.891   1.758   7.389  0.1159 -1.1598  0.0578
 1402THY    CP135030   0.868   1.837   7.258  0.8575  1.0435 -0.8332
 1402THY    HP135031   0.935   1.820   7.173  1.5425 -0.7715  0.0350
 1402THY    CP235032   0.728   1.789   7.197 -0.2047 -0.7547  0.5000
 1402THY    HP235033   0.718   1.807   7.089 -0.0459 -3.4817 -0.0409
 1402THY    HP335034   0.722   1.680   7.199  1.0618 -0.9000 -1.1996
 1402THY    HP435035   0.638   1.823   7.249 -1.3028 -2.7981  0.0236
 1402THY    CP335036   0.858   1.988   7.269 -0.0419 -0.0748  0.8398
 1402THY    HP535037   0.842   2.036   7.172  0.5016 -0.6525  0.4604
 1402THY    HP635038   0.790   2.017   7.350 -0.3501 -0.5342  0.7504
 1402THY    HP735039   0.956   2.029   7.294  0.5687 -0.1783 -1.2194
 1402THY    CA335040   0.792   1.759   7.491 -0.5678 -0.1153  0.4279
 1402THY    HA335041   0.700   1.816   7.485 -0.7431 -0.4928 -0.7552
 1402THY    CA435042   0.817   1.680   7.606 -0.0212 -0.0201  0.1929
 1402THY    HA435043   0.745   1.668   7.686  0.6418  0.0689  0.8194
 1402THY    CA535044   0.932   1.599   7.618  0.4651  0.1558  0.0861
 1402THY    CM135045   0.941   1.522   7.745  0.6288  1.0200 -0.1158
 1402THY    HM135046   0.899   1.421   7.731  1.3540  0.4293  1.7188
 1402THY    HM235047   1.044   1.506   7.778  1.1817 -1.6611 -2.6884
 1402THY    HM335048   0.886   1.575   7.823 -0.0220 -0.3432  0.3791
 1402THY    CA635049   1.031   1.604   7.519 -0.1010  0.2828 -0.5655
 1402THY    HA635050   1.111   1.532   7.522 -1.4704 -1.2624  0.9608
 1403THY      O35051   4.249   1.179   2.815  0.1434 -0.0184 -0.3201
 1403THY     HO35052   4.237   1.182   2.911 -4.1559 -0.8908 -0.6182
 1403THY    CA135053   4.335   1.283   2.784 -0.2874  0.4261  0.0786
 1403THY    CA235054   4.323   1.336   2.653 -0.2425 -0.2913  0.1383
 1403THY    CP135055   4.233   1.268   2.548 -0.9472  0.1272  0.2829
 1403THY    HP135056   4.141   1.242   2.601 -1.4270 -0.3665 -0.7823
 1403THY    CP235057   4.193   1.350   2.420 -0.1265 -0.0618  0.1838
 1403THY    HP235058   4.124   1.296   2.355  0.6924 -0.4810 -0.3513
 1403THY    HP335059   4.151   1.441   2.465  2.5866  1.0019  0.8000
 1403THY    HP435060   4.287   1.370   2.367 -0.6854 -2.9740 -2.2007
 1403THY    CP335061   4.304   1.139   2.501  0.4500 -0.5208  0.2211
 1403THY    HP535062   4.348   1.076   2.579  1.9959 -1.2676 -1.1690
 1403THY    HP635063   4.234   1.078   2.443  1.7941 -1.2758 -0.6825
 1403THY    HP735064   4.383   1.160   2.427 -0.7445  0.7158 -0.7424
 1403THY    CA335065   4.399   1.449   2.617  0.3543 -0.4196  0.0230
 1403THY    HA335066   4.393   1.492   2.517 -3.8844  0.2315  0.3791
 1403THY    CA435067   4.477   1.506   2.718 -0.7748 -0.4005  0.1946
 1403THY    HA435068   4.545   1.588   2.695 -0.6637 -0.5831 -0.1311
 1403THY    CA535069   4.478   1.454   2.849 -0.4525 -0.0630 -0.3471
 1403THY    CM135070   4.545   1.537   2.956  0.9537 -0.0156 -0.0935
 1403THY    HM135071   4.582   1.631   2.913  2.7167 -0.6572 -0.0688
 1403THY    HM235072   4.472   1.546   3.037  2.1163 -3.9845  1.6376
 1403THY    HM335073   4.633   1.483   2.993 -0.5067 -2.4160  0.0492
 1403THY    CA635074   4.412   1.340   2.885  0.4458  0.2744  0.1540
 1403THY    HA635075   4.409   1.296   2.984 -0.0699 -0.7388 -0.3068
 1404THY      O35076   0.067   7.438   2.922  0.6970 -0.2036  0.1077
 1404THY     HO35077  -0.017   7.404   2.956  0.8833 -0.8668 -0.0717
 1404THY    CA135078   0.087   7.558   2.973  0.1891  0.6767  0.5426
 1404THY    CA235079   0.216   7.610   2.994  0.1483 -0.5189 -0.3866
 1404THY    CP135080   0.340   7.537   2.937 -1.2689  0.1458  1.2382
 1404THY    HP135081   0.309   7.451   2.876 -0.7138  1.1890 -0.5598
 1404THY    CP235082   0.412   7.637   2.851  0.4938  0.1057  0.1296
 1404THY    HP235083   0.471   7.708   2.910 -1.0210  0.5677  1.1278
 1404THY    HP335084   0.484   7.589   2.783  0.7808 -0.5263  0.8583
 1404THY    HP435085   0.343   7.681   2.778 -0.7967 -2.7832 -0.5537
 1404THY    CP335086   0.437   7.485   3.048 -0.2646  0.0997 -0.1605
 1404THY    HP535087   0.529   7.436   3.013 -0.5848  1.5904 -3.5374
 1404THY    HP635088   0.470   7.566   3.114 -0.3955 -0.4108  0.5440
 1404THY    HP735089   0.381   7.407   3.101 -2.1584  1.1614 -0.5093
 1404THY    CA335090   0.225   7.736   3.057 -0.2797 -0.2683  0.3241
 1404THY    HA335091   0.322   7.778   3.082  0.9949 -1.8039 -1.7230
 1404THY    CA435092   0.106   7.804   3.096  0.8880  0.4526  0.4686
 1404THY    HA435093   0.101   7.902   3.142 -0.9260 -0.0766  1.4995
 1404THY    CA535094  -0.016   7.753   3.061  0.0802  0.3368 -0.0372
 1404THY    CM135095  -0.142   7.821   3.097  0.4250  0.0548 -0.2342
 1404THY    HM135096  -0.120   7.919   3.142 -1.8785  1.1121 -1.2688
 1404THY    HM235097  -0.211   7.833   3.014 -0.3767  1.2364  0.5703
 1404THY    HM335098  -0.199   7.764   3.172  0.6461  1.2929  0.9152
 1404THY    CA635099  -0.028   7.628   3.002  0.5847 -0.9088 -0.3913
 1404THY    HA635100  -0.124   7.586   2.974 -0.7539  1.1905  0.7209
 1405THY      O35101   8.358   5.622   9.166 -0.2254  0.4495  0.0937
 1405THY     HO35102   8.307   5.672   9.100 -1.0390 -0.5499 -0.0608
 1405THY    CA135103   8.466   5.701   9.203  0.2582 -1.0060 -0.4391
 1405THY    CA235104   8.559   5.655   9.303  0.0323 -0.0776  0.9962
 1405THY    CP135105   8.556   5.512   9.347 -0.8304 -0.1457  0.3813
 1405THY    HP135106   8.454   5.475   9.330 -0.8615 -0.1999  0.6721
 1405THY    CP235107   8.647   5.427   9.264 -0.1546 -0.2062 -0.4345
 1405THY    HP235108   8.744   5.476   9.280  0.2313 -1.1024  0.0711
 1405THY    HP335109   8.648   5.329   9.313  1.5705  1.2279  2.6984
 1405THY    HP435110   8.606   5.435   9.162  1.1055  0.0158 -0.9490
 1405THY    CP335111   8.579   5.491   9.498 -0.4680 -0.3208  0.1841
 1405THY    HP535112   8.681   5.521   9.526 -1.1341  1.6122  0.6561
 1405THY    HP635113   8.507   5.546   9.559 -0.8538  1.0870 -1.4877
 1405THY    HP735114   8.574   5.385   9.529 -1.1545 -0.4691 -0.4159
 1405THY    CA335115   8.664   5.738   9.339 -0.4614  0.1595 -0.2502
 1405THY    HA335116   8.742   5.693   9.400 -0.3643 -0.6211 -0.9297
 1405THY    CA435117   8.674   5.876   9.299  0.0664  0.7942  0.6368
 1405THY    HA435118   8.759   5.938   9.328  0.4843 -0.5267  2.4718
 1405THY    CA535119   8.572   5.923   9.216 -0.0651  0.0793 -0.2959
 1405THY    CM135120   8.581   6.066   9.168  0.2956  0.6284 -0.8502
 1405THY    HM135121   8.641   6.066   9.077  0.6684 -0.9361 -0.6314
 1405THY    HM235122   8.482   6.113   9.165  1.8560  4.2453 -0.4587
 1405THY    HM335123   8.634   6.129   9.241 -2.2786  1.1140  0.7484
 1405THY    CA635124   8.470   5.841   9.166  0.1173 -0.2776 -0.6132
 1405THY    HA635125   8.394   5.879   9.098 -1.1795  2.8833  2.3105
 1406THY      O35126   3.068   3.240   7.952 -0.1483  0.0551  0.2082
 1406THY     HO35127   3.029   3.243   7.863 -0.7894  1.7098  0.4949
 1406THY    CA135128   3.030   3.360   8.004  0.5359 -0.1244  0.4226
 1406THY    CA235129   3.055   3.386   8.141 -0.5398 -0.2905 -0.0238
 1406THY    CP135130   3.143   3.292   8.226 -0.1411  0.6242 -0.4467
 1406THY    HP135131   3.137   3.191   8.183 -0.9353  0.4258  0.0948
 1406THY    CP235132   3.293   3.333   8.228 -0.3575 -0.2733 -0.1854
 1406THY    HP235133   3.356   3.258   8.278  1.8527 -0.1709 -2.6180
 1406THY    HP335134   3.341   3.366   8.135 -0.5933  0.3303 -0.0986
 1406THY    HP435135   3.303   3.422   8.292  0.3878 -0.8771  0.5649
 1406THY    CP335136   3.092   3.275   8.372  0.3839  0.0602 -0.7215
 1406THY    HP535137   2.991   3.231   8.369 -0.2995  1.5970 -1.7042
 1406THY    HP635138   3.159   3.202   8.418 -0.6694 -0.2885  0.3110
 1406THY    HP735139   3.091   3.373   8.422 -0.5984 -0.3884  0.1734
 1406THY    CA335140   3.018   3.509   8.182  0.4153 -0.0959 -0.1236
 1406THY    HA335141   3.017   3.536   8.288 -1.1240 -2.2219  0.4662
 1406THY    CA435142   2.948   3.600   8.096  0.0944 -0.0681 -0.3036
 1406THY    HA435143   2.910   3.691   8.143 -0.3777 -0.7901  0.7506
 1406THY    CA535144   2.930   3.573   7.966  0.5317  0.3423  0.7268
 1406THY    CM135145   2.849   3.672   7.881  1.1613 -0.1431 -0.7900
 1406THY    HM135146   2.755   3.688   7.935  2.7144  2.5680  1.3424
 1406THY    HM235147   2.906   3.765   7.866  2.0304 -0.9625 -2.9535
 1406THY    HM335148   2.827   3.646   7.777  0.4222  1.8959 -1.1875
 1406THY    CA635149   2.972   3.455   7.919  0.8120  0.6140  0.7015
 1406THY    HA635150   2.961   3.438   7.812  1.7681 -2.0471  0.9454
 1407THY      O35151   7.113   1.048   9.481 -0.7061  0.3538  0.1448
 1407THY     HO35152   7.066   1.095   9.552 -1.5232 -1.5855  0.9584
 1407THY    CA135153   7.231   1.010   9.535 -0.1258 -0.0003 -0.1523
 1407THY    CA235154   7.336   0.953   9.461  0.9132  0.3714  0.2762
 1407THY    CP135155   7.315   0.935   9.317 -0.4961 -0.9627  0.0464
 1407THY    HP135156   7.212   0.899   9.300 -0.0258 -2.0133 -0.6881
 1407THY    CP235157   7.339   1.060   9.240 -0.6693  0.2454 -0.0461
 1407THY    HP235158   7.275   1.146   9.260 -0.8291  0.2819 -0.6947
 1407THY    HP335159   7.446   1.083   9.251 -0.4168 -1.5053  1.7897
 1407THY    HP435160   7.328   1.052   9.132 -0.4976  0.2776 -0.0675
 1407THY    CP335161   7.399   0.821   9.258 -0.1167 -0.7217  0.1571
 1407THY    HP535162   7.507   0.838   9.262 -0.0872 -0.3434 -1.7245
 1407THY    HP635163   7.373   0.733   9.319  3.8233 -0.8768  1.9342
 1407THY    HP735164   7.368   0.791   9.157 -0.5433  3.2839 -1.0788
 1407THY    CA335165   7.454   0.911   9.526 -1.1327 -0.1962  0.0826
 1407THY    HA335166   7.535   0.858   9.475  0.5682  0.5713  1.8664
 1407THY    CA435167   7.462   0.928   9.664  0.5115  0.8730  0.2548
 1407THY    HA435168   7.549   0.891   9.719  0.9316  0.9233 -0.3624
 1407THY    CA535169   7.362   0.985   9.734  0.0881  0.8965  0.3872
 1407THY    CM135170   7.363   1.008   9.876 -0.1610 -0.4739  0.4825
 1407THY    HM135171   7.384   1.113   9.901  0.3843 -0.0917 -1.4535
 1407THY    HM235172   7.265   0.989   9.921 -0.7355  0.2117 -0.4426
 1407THY    HM335173   7.434   0.943   9.928  0.6655 -1.0914 -1.3311
 1407THY    CA635174   7.243   1.024   9.671  0.6135  0.0158  0.3360
 1407THY    HA635175   7.158   1.070   9.722  0.4536 -0.2094  0.2748
 1408THY      O35176   1.383   0.653   6.328  0.1224  0.0562  0.0016
 1408THY     HO35177   1.370   0.570   6.377  0.6628 -0.5767 -0.9046
 1408THY    CA135178   1.263   0.692   6.270 -0.3421  0.6496  0.1764
 1408THY    CA235179   1.251   0.805   6.190  0.3626  0.2559  0.4428
 1408THY    CP135180   1.362   0.918   6.179 -0.1978  0.3600  0.0090
 1408THY    HP135181   1.330   1.004   6.120 -2.5543 -0.0751  0.5083
 1408THY    CP235182   1.397   0.987   6.310 -0.4509  0.6301 -0.2326
 1408THY    HP235183   1.433   0.918   6.387  2.6749  3.0222  0.6752
 1408THY    HP335184   1.471   1.066   6.290  0.3785 -0.8105 -3.4740
 1408THY    HP435185   1.310   1.041   6.350 -1.3909  0.0641 -1.4436
 1408THY    CP335186   1.490   0.865   6.115  0.6046 -0.6962 -0.4314
 1408THY    HP535187   1.474   0.804   6.025 -1.8876 -2.1464  0.8799
 1408THY    HP635188   1.566   0.942   6.093 -0.6968  0.2993 -1.6495
 1408THY    HP735189   1.540   0.794   6.181  1.2379  1.0995  1.1164
 1408THY    CA335190   1.130   0.837   6.127  0.3390 -0.4678  0.0242
 1408THY    HA335191   1.124   0.929   6.070  1.2937  0.1116  0.8307
 1408THY    CA435192   1.027   0.748   6.140 -0.7254 -0.4053 -0.4352
 1408THY    HA435193   0.934   0.772   6.090  0.1692  1.1576 -1.4118
 1408THY    CA535194   1.038   0.630   6.212 -0.4809  0.0471  0.0493
 1408THY    CM135195   0.928   0.534   6.246 -0.3728 -0.0621 -0.2900
 1408THY    HM135196   0.931   0.496   6.348  1.0456 -1.7629 -0.9158
 1408THY    HM235197   0.833   0.589   6.236 -0.6027 -0.8570 -4.1600
 1408THY    HM335198   0.920   0.439   6.192 -0.5894  0.6222 -1.5185
 1408THY    CA635199   1.155   0.606   6.285 -0.2332 -0.2631 -0.9387
 1408THY    HA635200   1.162   0.517   6.346  2.3657  0.6448  0.2472
 1409THY      O35201   8.130   4.520   0.519  0.0605  0.3456  0.1571
 1409THY     HO35202   8.195   4.486   0.583  0.9160 -0.7025 -1.1942
 1409THY    CA135203   8.109   4.421   0.435 -0.2218  0.5629  0.3524
 1409THY    CA235204   8.007   4.432   0.334  0.0581  0.5088 -0.2251
 1409THY    CP135205   7.921   4.558   0.319  0.0322 -0.0353  0.0260
 1409THY    HP135206   7.934   4.624   0.406 -2.6504  1.3779 -0.5248
 1409THY    CP235207   7.966   4.639   0.204 -0.2907 -0.8094  0.2187
 1409THY    HP235208   8.074   4.654   0.198 -0.4199  0.9200  1.5432
 1409THY    HP335209   7.947   4.587   0.110 -0.2433 -0.2735 -0.0913
 1409THY    HP435210   7.908   4.733   0.207 -0.3312 -0.8173  3.1605
 1409THY    CP335211   7.769   4.523   0.295  0.0856  0.0595 -0.0418
 1409THY    HP535212   7.723   4.449   0.362 -0.2110 -1.0494 -1.4252
 1409THY    HP635213   7.712   4.616   0.307 -0.5536 -0.5106  1.7071
 1409THY    HP735214   7.749   4.475   0.198 -2.0027 -0.0252  0.3877
 1409THY    CA335215   7.985   4.327   0.244 -0.6620 -0.1033 -0.7959
 1409THY    HA335216   7.918   4.334   0.158 -0.1075  1.8340 -1.1147
 1409THY    CA435217   8.076   4.217   0.247  0.0742 -0.0985  0.0132
 1409THY    HA435218   8.065   4.131   0.182 -0.0499 -0.1401  0.0889
 1409THY    CA535219   8.168   4.205   0.349 -0.4948  0.0291  1.3257
 1409THY    CM135220   8.251   4.082   0.359 -0.0374  0.3784 -0.0730
 1409THY    HM135221   8.351   4.095   0.317 -0.2405 -0.2713 -0.7868
 1409THY    HM235222   8.257   4.066   0.468 -0.5723  2.2021  0.2536
 1409THY    HM335223   8.201   4.003   0.301  1.6525  0.4425 -1.6737
 1409THY    CA635224   8.192   4.308   0.442 -0.3630 -0.4585  0.2701
 1409THY    HA635225   8.274   4.296   0.512  1.7333 -4.2881 -2.5351
 1410THY      O35226   7.679   5.201   8.293 -0.3813  0.0621 -0.5641
 1410THY     HO35227   7.601   5.200   8.351  0.6124  0.2218  0.8011
 1410THY    CA135228   7.696   5.327   8.248 -0.1290  0.4932  0.3690
 1410THY    CA235229   7.754   5.353   8.121  0.6665  0.7059  0.2530
 1410THY    CP135230   7.817   5.238   8.042  0.4572 -0.0745 -0.5077
 1410THY    HP135231   7.834   5.146   8.100  0.9923 -1.0019 -2.0606
 1410THY    CP235232   7.731   5.204   7.917  0.0461 -0.2616  0.5582
 1410THY    HP235233   7.713   5.289   7.851 -2.4477 -2.1654 -1.4506
 1410THY    HP335234   7.776   5.115   7.870 -1.0232 -1.5909  1.9215
 1410THY    HP435235   7.629   5.189   7.954  0.7624 -2.0930  1.9455
 1410THY    CP335236   7.955   5.276   7.994  1.0738 -0.6457  0.3665
 1410THY    HP535237   7.994   5.199   7.927  0.6616  0.5851 -1.3787
 1410THY    HP635238   7.949   5.365   7.930 -0.8925 -3.3135 -3.5762
 1410THY    HP735239   8.026   5.295   8.075 -0.0556  0.1398  1.2102
 1410THY    CA335240   7.763   5.482   8.067  0.5276  0.3335  0.3013
 1410THY    HA335241   7.810   5.505   7.972  0.8948 -0.6887  0.2253
 1410THY    CA435242   7.695   5.583   8.142 -0.4028 -1.0022 -0.9621
 1410THY    HA435243   7.685   5.688   8.114 -2.2745 -0.3529  1.6602
 1410THY    CA535244   7.637   5.557   8.269 -0.1364 -0.3335 -0.1484
 1410THY    CM135245   7.566   5.667   8.343  0.2226 -0.5466 -0.9071
 1410THY    HM135246   7.622   5.665   8.437 -0.3712 -0.9819 -0.5565
 1410THY    HM235247   7.577   5.763   8.290 -0.7147 -0.7764 -1.5529
 1410THY    HM335248   7.461   5.643   8.365 -0.1051  2.1271  0.9466
 1410THY    CA635249   7.635   5.430   8.316  0.1150 -0.5261 -0.5885
 1410THY    HA635250   7.600   5.401   8.415 -0.8359 -1.7386 -1.2660
 1411THY      O35251   8.467   6.209   8.207 -0.3082  0.2870 -0.1583
 1411THY     HO35252   8.493   6.194   8.300  0.2033  0.0698 -0.3329
 1411THY    CA135253   8.432   6.343   8.206  0.1666 -0.0140 -0.9636
 1411THY    CA235254   8.383   6.407   8.086 -0.2535  0.2997  0.0825
 1411THY    CP135255   8.387   6.332   7.956  0.0409  0.4180  0.2840
 1411THY    HP135256   8.396   6.223   7.970  0.5885  0.3848 -0.2980
 1411THY    CP235257   8.238   6.333   7.901 -0.0356  0.1397  0.6918
 1411THY    HP235258   8.231   6.293   7.799  1.6518 -0.4704  0.7884
 1411THY    HP335259   8.164   6.290   7.969 -0.5120  0.1891  0.2191
 1411THY    HP435260   8.217   6.440   7.900  0.3384  0.2141  0.0777
 1411THY    CP335261   8.478   6.387   7.849  0.1936  0.8334  0.1067
 1411THY    HP535262   8.566   6.422   7.905 -0.1306  0.0330  1.1492
 1411THY    HP635263   8.513   6.303   7.787  1.4688  0.4881  1.2491
 1411THY    HP735264   8.427   6.466   7.793 -0.7038 -0.5253 -1.0818
 1411THY    CA335265   8.363   6.549   8.090  0.7985  0.1872  0.8124
 1411THY    HA335266   8.337   6.602   7.999 -0.2948  0.6614  1.3731
 1411THY    CA435267   8.372   6.611   8.213  0.2648 -0.8618  0.6464
 1411THY    HA435268   8.363   6.719   8.217 -1.4435 -0.9727  0.4417
 1411THY    CA535269   8.420   6.552   8.330 -0.0542 -0.0755  0.2598
 1411THY    CM135270   8.443   6.638   8.450 -0.6862  1.5477  0.0099
 1411THY    HM135271   8.390   6.734   8.447  1.7017  2.9378 -0.3119
 1411THY    HM235272   8.400   6.592   8.539 -3.3604  1.3768 -1.2476
 1411THY    HM335273   8.548   6.658   8.470 -0.0314 -0.1244 -1.4491
 1411THY    CA635274   8.456   6.416   8.321  0.2763  0.0866 -0.0274
 1411THY    HA635275   8.492   6.376   8.415  2.1961 -0.8234 -1.1019
 1412THY      O35276   2.803   7.376   9.209  0.9539  0.0754 -0.0139
 1412THY     HO35277   2.765   7.386   9.120  0.3070 -1.1835  0.0951
 1412THY    CA135278   2.860   7.488   9.247 -0.5488  0.1701  0.4524
 1412THY    CA235279   2.855   7.529   9.376  0.7625 -0.5095  0.1740
 1412THY    CP135280   2.764   7.470   9.482  0.3576  0.7966 -0.7517
 1412THY    HP135281   2.706   7.395   9.426  0.9212 -2.7351  2.9633
 1412THY    CP235282   2.850   7.399   9.581 -0.1331 -1.1603 -0.0637
 1412THY    HP235283   2.920   7.348   9.514  0.0475  0.1447 -0.8972
 1412THY    HP335284   2.914   7.458   9.647  1.4598 -3.8540  0.9455
 1412THY    HP435285   2.787   7.334   9.643 -2.7154  0.2578 -0.9988
 1412THY    CP335286   2.677   7.578   9.537  0.7159 -0.6301 -0.8631
 1412THY    HP535287   2.591   7.533   9.588  0.9827 -0.0056  0.1753
 1412THY    HP635288   2.722   7.631   9.622  0.4895 -1.4024 -0.2413
 1412THY    HP735289   2.641   7.652   9.464  0.1244 -0.0478 -0.0041
 1412THY    CA335290   2.932   7.648   9.410  0.1841  0.0182 -0.3157
 1412THY    HA335291   2.910   7.692   9.506  2.0760  0.5187 -0.0773
 1412THY    CA435292   3.027   7.688   9.314  0.0239  0.2831  0.3573
 1412THY    HA435293   3.092   7.773   9.333 -0.5054  0.6342  0.6174
 1412THY    CA535294   3.041   7.634   9.187 -0.2351 -0.2416  0.0081
 1412THY    CM135295   3.122   7.698   9.081 -0.2285 -0.1355  0.0895
 1412THY    HM135296   3.187   7.618   9.043  0.4012  0.3396  0.1388
 1412THY    HM235297   3.057   7.725   8.997 -1.9577  0.4893  1.5665
 1412THY    HM335298   3.175   7.783   9.126  0.6389  0.1638 -1.4273
 1412THY    CA635299   2.946   7.542   9.155  1.0602 -0.5555  0.0629
 1412THY    HA635300   2.953   7.491   9.059 -1.6803 -0.8554 -0.0793
 1413THY      O35301   4.346   0.873   2.965 -0.3053  0.4509 -0.7031
 1413THY     HO35302   4.403   0.829   2.900 -1.2167  0.6159 -1.6331
 1413THY    CA135303   4.252   0.778   2.990 -0.0655 -0.0834  0.1690
 1413THY    CA235304   4.133   0.765   2.910 -1.2209  0.4235  0.4488
 1413THY    CP135305   4.095   0.870   2.807 -0.9361 -0.1780  0.8795
 1413THY    HP135306   4.150   0.964   2.816 -0.7035 -0.0893 -1.0041
 1413THY    CP235307   4.136   0.821   2.668  0.0259 -0.3516 -0.1135
 1413THY    HP235308   4.058   0.755   2.629 -0.6835  1.0594 -1.1314
 1413THY    HP335309   4.145   0.909   2.604  1.8178  0.5419  1.2681
 1413THY    HP435310   4.235   0.776   2.683 -0.0539  0.1661  2.6178
 1413THY    CP335311   3.953   0.914   2.800  0.1207  0.0197 -0.7405
 1413THY    HP535312   3.888   0.827   2.785 -0.4901 -0.0178  1.7263
 1413THY    HP635313   3.928   0.971   2.890  1.1247 -1.0410  0.2414
 1413THY    HP735314   3.923   0.978   2.716 -3.2188 -1.5538 -0.9274
 1413THY    CA335315   4.053   0.652   2.940  0.7510  0.0251 -0.7103
 1413THY    HA335316   3.965   0.637   2.877  1.0283  3.0668 -2.0165
 1413THY    CA435317   4.084   0.560   3.039 -0.2867  0.4539 -0.0716
 1413THY    HA435318   4.017   0.478   3.063  0.4371  0.1754  1.0422
 1413THY    CA535319   4.199   0.576   3.119 -0.0394 -0.0092 -0.4159
 1413THY    CM135320   4.235   0.478   3.232 -0.3198 -0.5698 -0.3099
 1413THY    HM135321   4.197   0.376   3.223  2.5445 -1.7306 -0.3171
 1413THY    HM235322   4.344   0.472   3.234 -0.2215 -0.9522 -3.2890
 1413THY    HM335323   4.209   0.526   3.328 -0.4609  0.5606 -0.8957
 1413THY    CA635324   4.281   0.684   3.095 -0.3501  0.2505  0.6329
 1413THY    HA635325   4.376   0.695   3.146 -0.9040  1.8571  1.3932
 1414THY      O35326   4.947   8.516   3.276 -0.5510  0.2142  0.6333
 1414THY     HO35327   5.037   8.501   3.309 -0.5032  2.3304  1.5819
 1414THY    CA135328   4.898   8.401   3.224 -0.0753  0.1742  0.4437
 1414THY    CA235329   4.807   8.398   3.116 -0.4578 -0.4943  0.6630
 1414THY    CP135330   4.781   8.528   3.044  0.0850  0.3835 -0.4007
 1414THY    HP135331   4.866   8.595   3.058 -1.0959  1.7455  0.5069
 1414THY    CP235332   4.777   8.510   2.891 -0.0995  0.3350 -0.3419
 1414THY    HP235333   4.862   8.446   2.864 -0.2189  0.1913 -0.3779
 1414THY    HP335334   4.699   8.449   2.846 -2.5072  1.4831  2.0174
 1414THY    HP435335   4.792   8.603   2.834 -3.1300  1.5917  0.7551
 1414THY    CP335336   4.660   8.599   3.102  0.5776 -0.2935 -0.0177
 1414THY    HP535337   4.574   8.532   3.109  0.6951 -0.6068 -1.3605
 1414THY    HP635338   4.694   8.615   3.205 -1.5789 -1.5385  0.9423
 1414THY    HP735339   4.638   8.698   3.060  1.9373  0.0309 -0.0249
 1414THY    CA335340   4.759   8.280   3.070 -0.0288  0.3537 -0.1115
 1414THY    HA335341   4.693   8.268   2.985  0.8854  0.8633 -0.9185
 1414THY    CA435342   4.787   8.161   3.144 -0.7127  0.3626 -0.1210
 1414THY    HA435343   4.733   8.072   3.113 -0.1886  0.0490 -0.1318
 1414THY    CA535344   4.870   8.157   3.254 -0.7039 -0.3847 -0.0745
 1414THY    CM135345   4.896   8.031   3.333  0.2260  0.1759  0.3236
 1414THY    HM135346   4.969   7.962   3.287 -1.6372 -0.9884 -1.0444
 1414THY    HM235347   4.937   8.054   3.432 -1.3676  2.0098  0.6083
 1414THY    HM335348   4.802   7.979   3.352  0.4100  0.3502  1.7841
 1414THY    CA635349   4.932   8.285   3.287 -0.2913  0.7308  0.4082
 1414THY    HA635350   5.001   8.279   3.371  1.2585  0.3808 -0.8349
 1415THY      O35351   3.143   7.765   7.682 -0.2618 -0.0373 -0.1061
 1415THY     HO35352   3.100   7.852   7.687  1.6486  1.0570 -1.4584
 1415THY    CA135353   3.142   7.739   7.554  0.5864  0.4858  0.3443
 1415THY    CA235354   3.211   7.624   7.497  0.4677 -0.3382  0.1622
 1415THY    CP135355   3.272   7.510   7.583  0.3151 -0.1640 -0.1579
 1415THY    HP135356   3.327   7.561   7.663  1.5936  1.1482 -1.7956
 1415THY    CP235357   3.150   7.426   7.631  0.3185  0.6770 -0.3965
 1415THY    HP235358   3.057   7.438   7.574  0.1542  1.1272 -0.0474
 1415THY    HP335359   3.163   7.318   7.637  1.4720  0.8521  0.6996
 1415THY    HP435360   3.127   7.447   7.736  0.2990 -2.3400  0.2783
 1415THY    CP335361   3.360   7.413   7.505  0.0519 -0.1980  0.0140
 1415THY    HP535362   3.307   7.363   7.423 -0.6524 -0.9386  0.8948
 1415THY    HP635363   3.455   7.457   7.472  1.5411 -2.5922  0.8393
 1415THY    HP735364   3.396   7.333   7.570  2.0342 -0.8466 -1.7690
 1415THY    CA335365   3.218   7.614   7.355 -0.0144  0.4194  0.4917
 1415THY    HA335366   3.276   7.537   7.306  1.9800  1.9388  0.3446
 1415THY    CA435367   3.150   7.702   7.270 -0.1322  0.2228 -0.0637
 1415THY    HA435368   3.146   7.693   7.162 -3.4858 -2.4041  0.1138
 1415THY    CA535369   3.091   7.809   7.329  0.8036 -0.8730  0.3165
 1415THY    CM135370   3.037   7.921   7.245  0.1636  0.8262 -0.1273
 1415THY    HM135371   2.993   7.998   7.309  0.2523  0.2501  0.6336
 1415THY    HM235372   3.117   7.973   7.189  1.0806  2.2757  2.3800
 1415THY    HM335373   2.963   7.889   7.171 -1.2563  1.3191  1.0492
 1415THY    CA635374   3.074   7.824   7.471  0.4456 -0.4394  0.1396
 1415THY    HA635375   3.020   7.912   7.506  1.5317  0.3975 -0.2041
 1416THY      O35376   0.801   3.096   7.761  0.4037  0.2238 -0.0891
 1416THY     HO35377   0.860   3.020   7.772 -0.2636 -0.2210  0.5199
 1416THY    CA135378   0.868   3.207   7.817 -0.0610  0.0460  0.5570
 1416THY    CA235379   0.807   3.292   7.909 -0.6263 -0.3648 -0.1663
 1416THY    CP135380   0.665   3.274   7.950  0.5654  1.0066  0.0259
 1416THY    HP135381   0.618   3.245   7.855  1.1960 -0.7075  0.1917
 1416THY    CP235382   0.664   3.153   8.046 -0.2976  0.4170  0.1786
 1416THY    HP235383   0.703   3.182   8.145 -0.7467 -0.2356  0.5615
 1416THY    HP335384   0.563   3.124   8.075 -0.4994  0.9049 -0.0285
 1416THY    HP435385   0.724   3.070   8.006  0.0937  0.6889  0.1957
 1416THY    CP335386   0.584   3.389   7.997 -0.0315 -0.4540  0.1851
 1416THY    HP535387   0.486   3.347   8.025 -0.2298  0.7611  1.4437
 1416THY    HP635388   0.632   3.444   8.080  1.4753  0.7854 -1.4429
 1416THY    HP735389   0.565   3.451   7.909 -0.8255 -1.7066 -0.5462
 1416THY    CA335390   0.882   3.403   7.952 -0.0001 -0.0843 -0.8095
 1416THY    HA335391   0.843   3.474   8.024  3.6785  1.2352  0.1150
 1416THY    CA435392   1.020   3.412   7.916 -0.0003 -0.4906 -0.0629
 1416THY    HA435393   1.073   3.499   7.956 -1.8138  0.7517 -0.2288
 1416THY    CA535394   1.080   3.323   7.823  0.4364 -0.8229 -0.8412
 1416THY    CM135395   1.209   3.348   7.782 -0.4216 -0.0459  0.5570
 1416THY    HM135396   1.222   3.323   7.676 -1.0033  0.4865  0.3520
 1416THY    HM235397   1.237   3.454   7.786 -0.0965  0.0417 -2.1312
 1416THY    HM335398   1.279   3.282   7.836 -0.9548  0.6209  2.1095
 1416THY    CA635399   0.999   3.220   7.769  1.2954 -0.2722 -0.2336
 1416THY    HA635400   1.037   3.155   7.691 -0.4078 -1.0373 -0.4908
 1417THY      O35401   4.753   2.245   5.764 -0.5762  0.1810 -0.0093
 1417THY     HO35402   4.704   2.185   5.705  0.0836 -1.3063  0.8918
 1417THY    CA135403   4.859   2.286   5.691 -0.2969 -0.2851  0.2734
 1417THY    CA235404   4.917   2.413   5.711 -0.4357 -0.0776  0.8768
 1417THY    CP135405   4.851   2.509   5.803  0.3524 -0.6138 -0.6002
 1417THY    HP135406   4.758   2.471   5.848 -0.1794  0.7476 -0.5194
 1417THY    CP235407   4.949   2.534   5.923 -0.4692  0.6817 -0.2448
 1417THY    HP235408   5.042   2.572   5.879 -1.1449  1.6326 -0.8825
 1417THY    HP335409   4.907   2.604   5.996  0.5800 -0.3088  1.3633
 1417THY    HP435410   4.983   2.443   5.973  0.9860  0.4620 -1.5638
 1417THY    CP335411   4.825   2.644   5.734  1.1176 -0.0365  0.3549
 1417THY    HP535412   4.745   2.694   5.790 -1.1253 -2.8026 -0.1473
 1417THY    HP635413   4.919   2.699   5.722  0.6602  0.6024 -0.4379
 1417THY    HP735414   4.790   2.619   5.633  0.5369 -2.7876  1.1627
 1417THY    CA335415   5.035   2.438   5.634 -0.3301 -0.3793  0.0683
 1417THY    HA335416   5.075   2.538   5.651  3.4873 -1.7172 -0.0689
 1417THY    CA435417   5.081   2.344   5.534 -0.5636 -0.4189 -0.0255
 1417THY    HA435418   5.166   2.355   5.467 -1.1691 -1.5952 -1.0218
 1417THY    CA535419   5.010   2.226   5.518  0.7095  0.0058  0.5319
 1417THY    CM135420   5.054   2.125   5.424  0.4583 -0.3558  0.2839
 1417THY    HM135421   4.992   2.035   5.416  0.3046 -0.3514  1.2574
 1417THY    HM235422   5.067   2.166   5.324 -2.2945 -1.6554 -0.7177
 1417THY    HM335423   5.152   2.092   5.460  0.1018 -0.7925  0.8733
 1417THY    CA635424   4.897   2.196   5.590  0.4073  0.2790  0.2427
 1417THY    HA635425   4.848   2.101   5.572  0.8796  0.3686 -1.7429
 1418THY      O35426   0.747   1.613   0.205 -0.3114  0.1691 -0.2474
 1418THY     HO35427   0.660   1.619   0.161 -2.9739  0.1464  4.2981
 1418THY    CA135428   0.752   1.687   0.314  0.2442 -0.7632  0.2432
 1418THY    CA235429   0.808   1.635   0.432 -0.6658 -0.6809 -1.1848
 1418THY    CP135430   0.838   1.485   0.450  0.5149 -0.3754  0.0051
 1418THY    HP135431   0.775   1.434   0.377  1.0883 -3.1008  1.2649
 1418THY    CP235432   0.980   1.449   0.421 -0.1409  1.2144  0.5648
 1418THY    HP235433   1.050   1.485   0.497  1.8985 -2.4898  0.6546
 1418THY    HP335434   0.993   1.342   0.404 -0.0810  1.3976 -0.6470
 1418THY    HP435435   1.009   1.502   0.328 -0.7216  1.4692  0.5281
 1418THY    CP335436   0.798   1.429   0.586  0.5466  0.0594 -0.0013
 1418THY    HP535437   0.853   1.486   0.662  0.2183 -0.1044  0.3653
 1418THY    HP635438   0.689   1.424   0.593  0.5343 -3.0209 -0.8457
 1418THY    HP735439   0.831   1.325   0.593 -1.2054 -0.7034 -2.0238
 1418THY    CA335440   0.834   1.724   0.538 -0.2929  0.4831 -0.1516
 1418THY    HA335441   0.884   1.697   0.631  2.7717  2.4666 -1.0966
 1418THY    CA435442   0.801   1.858   0.525  0.0245 -0.1306  0.6332
 1418THY    HA435443   0.831   1.932   0.599 -1.7024  1.2207  0.0393
 1418THY    CA535444   0.738   1.903   0.408 -0.1713 -0.1667 -0.5206
 1418THY    CM135445   0.706   2.048   0.407 -0.3185  0.2977 -0.3961
 1418THY    HM135446   0.657   2.076   0.501 -1.2632 -3.6837  0.4666
 1418THY    HM235447   0.796   2.106   0.382  0.0511 -0.3283 -0.5353
 1418THY    HM335448   0.644   2.058   0.318  1.8135 -2.4182 -2.3346
 1418THY    CA635449   0.719   1.820   0.297 -0.1725 -0.3950 -0.5433
 1418THY    HA635450   0.683   1.859   0.202 -1.0603 -0.1163 -0.1038
 1419THY      O35451   1.374   6.378   2.564  0.5740 -0.9401 -0.4030
 1419THY     HO35452   1.388   6.465   2.603  1.1278 -2.1093  2.2057
 1419THY    CA135453   1.468   6.304   2.632  0.2191 -0.0362 -1.0999
 1419THY    CA235454   1.537   6.204   2.561  0.1174  0.1688 -0.0809
 1419THY    CP135455   1.483   6.148   2.424 -0.4326 -0.1384  0.4978
 1419THY    HP135456   1.377   6.176   2.420 -0.1433  0.8795 -0.6931
 1419THY    CP235457   1.572   6.221   2.319  0.3878  0.0517  0.6582
 1419THY    HP235458   1.677   6.204   2.345  0.1213 -2.5373  0.3579
 1419THY    HP335459   1.550   6.172   2.223  0.8018 -0.1306  0.6543
 1419THY    HP435460   1.541   6.325   2.309  0.7095  0.0085 -1.1835
 1419THY    CP335461   1.501   5.991   2.413 -0.0935 -0.2118  0.8129
 1419THY    HP535462   1.449   5.946   2.328 -0.4472  1.5294  0.0564
 1419THY    HP635463   1.608   5.967   2.417  0.3294  1.1713 -0.9629
 1419THY    HP735464   1.450   5.951   2.502  0.5178 -0.1238  1.2102
 1419THY    CA335465   1.653   6.152   2.621 -0.1162  0.7680 -0.7270
 1419THY    HA335466   1.713   6.078   2.569 -0.0112  0.4777 -0.1996
 1419THY    CA435467   1.693   6.199   2.745 -0.1277  0.4114 -0.3927
 1419THY    HA435468   1.774   6.150   2.798 -0.6803 -0.2193 -0.1249
 1419THY    CA535469   1.621   6.293   2.811 -0.6402 -0.3149  0.7482
 1419THY    CM135470   1.673   6.342   2.943  0.3885  0.3555  0.7271
 1419THY    HM135471   1.781   6.360   2.944  0.7161 -1.4142  1.4503
 1419THY    HM235472   1.634   6.438   2.978 -0.4500  1.2024 -2.2254
 1419THY    HM335473   1.649   6.267   3.019  2.5218 -1.1098  0.0592
 1419THY    CA635474   1.513   6.351   2.756  0.5295  0.3083  0.7577
 1419THY    HA635475   1.456   6.430   2.802  0.5965 -0.0265  1.4234
 1420THY      O35476   8.768   2.137   3.228 -0.4706  0.0995  0.1352
 1420THY     HO35477   8.822   2.069   3.270 -2.8961 -1.3460  1.1415
 1420THY    CA135478   8.819   2.254   3.273 -0.2504 -0.3119  0.5413
 1420THY    CA235479   8.754   2.383   3.271 -0.2926  0.4092 -0.0887
 1420THY    CP135480   8.620   2.400   3.214 -0.1256 -0.1374  0.4865
 1420THY    HP135481   8.589   2.299   3.183  3.3006 -1.7137  1.6575
 1420THY    CP235482   8.515   2.444   3.314  0.8707 -0.2215 -0.0052
 1420THY    HP235483   8.513   2.386   3.407 -2.2917 -0.2218  0.0088
 1420THY    HP335484   8.543   2.542   3.356  1.7072 -0.4887  0.0807
 1420THY    HP435485   8.416   2.443   3.269 -0.8242 -1.2536  3.3932
 1420THY    CP335486   8.614   2.492   3.092 -0.3572 -1.1654 -0.1530
 1420THY    HP535487   8.676   2.453   3.010  0.4709  0.5657 -0.3799
 1420THY    HP635488   8.514   2.513   3.053 -0.1564  0.5690  0.2034
 1420THY    HP735489   8.655   2.589   3.122 -0.6849 -1.3664  0.9751
 1420THY    CA335490   8.819   2.495   3.334  0.1061 -0.5411 -0.4846
 1420THY    HA335491   8.767   2.591   3.338 -2.6324 -1.9613  1.5842
 1420THY    CA435492   8.934   2.477   3.402 -0.1363  0.2032 -0.2358
 1420THY    HA435493   8.971   2.562   3.458 -0.7345  0.0631  0.3732
 1420THY    CA535494   8.990   2.351   3.410 -0.6299 -0.2364  0.0149
 1420THY    CM135495   9.116   2.337   3.486  0.4358 -0.0910  0.0718
 1420THY    HM135496   9.189   2.276   3.431 -0.1950 -0.3775 -0.4565
 1420THY    HM235497   9.163   2.434   3.508  0.8910  0.3040 -2.3235
 1420THY    HM335498   9.096   2.282   3.579 -0.7150  0.1470 -0.0301
 1420THY    CA635499   8.940   2.243   3.342 -0.5403  0.5572 -0.1587
 1420THY    HA635500   8.999   2.153   3.349 -1.5257 -0.0100  1.0206
 1421THY      O35501   8.434   5.814   8.443  0.1661 -0.1200  0.1163
 1421THY     HO35502   8.424   5.818   8.347 -0.9297  0.6262  0.2459
 1421THY    CA135503   8.545   5.746   8.472 -0.5173 -0.5233 -0.0407
 1421THY    CA235504   8.567   5.694   8.602 -0.5729  0.2726 -0.1682
 1421THY    CP135505   8.471   5.726   8.712  0.2341 -0.2094  0.0312
 1421THY    HP135506   8.391   5.792   8.676  0.6197  0.4540  0.3750
 1421THY    CP235507   8.401   5.607   8.759 -0.0981 -0.2773  0.1251
 1421THY    HP235508   8.353   5.625   8.856  0.2412 -0.4655  0.3299
 1421THY    HP335509   8.320   5.586   8.688 -0.8794  3.0596 -0.1533
 1421THY    HP435510   8.473   5.526   8.774 -0.2379 -0.4639 -0.1965
 1421THY    CP335511   8.540   5.802   8.823  0.4276 -0.3164  0.4367
 1421THY    HP535512   8.643   5.820   8.789  0.6137 -0.1932  1.0498
 1421THY    HP635513   8.496   5.900   8.844 -0.5104 -0.4574 -0.7765
 1421THY    HP735514   8.552   5.738   8.911  0.7182 -1.4661 -0.4089
 1421THY    CA335515   8.683   5.615   8.623 -0.5425  0.2959 -0.8052
 1421THY    HA335516   8.698   5.570   8.721  0.9269  1.0120 -0.6692
 1421THY    CA435517   8.781   5.603   8.518  0.5350  0.0217  0.0770
 1421THY    HA435518   8.868   5.538   8.524  0.5438 -0.3493 -2.6260
 1421THY    CA535519   8.757   5.658   8.394 -0.3823 -0.5223  0.5437
 1421THY    CM135520   8.862   5.651   8.291 -0.9290 -0.0286 -0.5051
 1421THY    HM135521   8.870   5.745   8.236  1.2185 -1.7281 -3.4267
 1421THY    HM235522   8.961   5.631   8.332 -1.4251 -2.6436 -0.3614
 1421THY    HM335523   8.834   5.592   8.203  0.4439 -0.8871 -0.3919
 1421THY    CA635524   8.629   5.725   8.365 -0.8904  0.6980  0.6106
 1421THY    HA635525   8.617   5.782   8.273 -1.7797 -2.1531 -1.1557
 1422THY      O35526   3.505   8.737   6.110  0.1846 -0.2574 -0.3357
 1422THY     HO35527   3.553   8.661   6.071  2.3022 -0.3809  2.2507
 1422THY    CA135528   3.593   8.837   6.110 -0.4726 -0.6051  0.1971
 1422THY    CA235529   3.554   8.971   6.102 -0.0128  0.2813 -0.6783
 1422THY    CP135530   3.402   9.004   6.122  0.4429 -0.1235  0.3216
 1422THY    HP135531   3.338   8.915   6.122 -0.1797  0.3175  1.3537
 1422THY    CP235532   3.387   9.091   6.241 -0.0626  0.5058 -0.0495
 1422THY    HP235533   3.416   9.038   6.333  0.5317 -1.6726 -1.4123
 1422THY    HP335534   3.446   9.183   6.234  0.5311  0.3977  2.4742
 1422THY    HP435535   3.281   9.115   6.250 -0.7695 -1.5423 -1.7989
 1422THY    CP335536   3.341   9.087   6.002  0.0432 -0.5734 -0.0988
 1422THY    HP535537   3.406   9.159   5.951  0.6547 -2.1057 -1.6016
 1422THY    HP635538   3.304   9.024   5.919 -4.2633  0.4970  0.7728
 1422THY    HP735539   3.244   9.128   6.032  0.7393  0.2845  1.0216
 1422THY    CA335540   3.654   9.065   6.075  0.3169  1.0201 -0.3395
 1422THY    HA335541   3.640   9.173   6.070 -0.0852  1.1095  1.6859
 1422THY    CA435542   3.786   9.020   6.058 -0.7367 -0.2999 -0.1570
 1422THY    HA435543   3.869   9.087   6.037  0.5769 -1.6110  0.7262
 1422THY    CA535544   3.818   8.889   6.080 -0.2219 -0.4519  0.4702
 1422THY    CM135545   3.963   8.848   6.066 -0.4009  0.0560 -0.3478
 1422THY    HM135546   3.975   8.741   6.049  2.3236  0.1180  0.6911
 1422THY    HM235547   4.022   8.894   5.985  0.0734 -1.5256 -0.9417
 1422THY    HM335548   4.017   8.852   6.161  2.0635 -0.7462 -1.6226
 1422THY    CA635549   3.728   8.797   6.102 -0.5704 -0.6599  0.1700
 1422THY    HA635550   3.754   8.692   6.111 -0.3604 -0.4959  2.0048
 1423THY      O35551   5.883   2.101   5.315  0.5341  0.1898 -0.8501
 1423THY     HO35552   5.969   2.141   5.334  0.5465 -0.2372  0.0316
 1423THY    CA135553   5.906   2.006   5.223  0.3682 -0.6790 -0.3966
 1423THY    CA235554   5.801   1.929   5.177  0.6612 -0.2725  0.0154
 1423THY    CP135555   5.649   1.968   5.212 -0.5930 -0.4841  0.0003
 1423THY    HP135556   5.650   2.055   5.278  0.6331 -1.9461  2.0285
 1423THY    CP235557   5.565   1.993   5.095  0.0842 -0.5105  0.1366
 1423THY    HP235558   5.470   2.041   5.122  0.8287  0.0840  1.8801
 1423THY    HP335559   5.613   2.057   5.020  0.5288 -0.3493  0.5451
 1423THY    HP435560   5.550   1.897   5.046 -0.5266 -0.0253 -0.6528
 1423THY    CP335561   5.599   1.854   5.288  0.7551 -1.0817 -0.9697
 1423THY    HP535562   5.494   1.876   5.312  1.5496  0.2092  1.8154
 1423THY    HP635563   5.593   1.759   5.234 -1.1139 -2.0158  0.7035
 1423THY    HP735564   5.664   1.855   5.377 -0.4529  0.3071 -0.0406
 1423THY    CA335565   5.830   1.838   5.076 -0.4264 -0.0409 -0.7167
 1423THY    HA335566   5.753   1.774   5.035 -1.8794  2.6858 -2.5390
 1423THY    CA435567   5.958   1.828   5.022 -0.3193 -0.2421 -0.7719
 1423THY    HA435568   5.981   1.747   4.953  0.1073 -2.4109  1.7572
 1423THY    CA535569   6.067   1.902   5.072  0.2617 -0.7195  0.8457
 1423THY    CM135570   6.205   1.902   5.009  0.0666  0.2169 -0.2760
 1423THY    HM135571   6.208   1.813   4.945  0.3823 -1.4824  1.9529
 1423THY    HM235572   6.224   1.994   4.953  2.6785  0.2762  0.5927
 1423THY    HM335573   6.283   1.892   5.086  1.3499  0.9457 -1.4419
 1423THY    CA635574   6.038   1.993   5.170  0.0203 -1.1688 -0.6114
 1423THY    HA635575   6.118   2.052   5.215 -1.0761  0.7777 -1.1188
 1424THY      O35576   5.438   8.573   9.934 -0.0573 -0.2512 -0.3551
 1424THY     HO35577   5.412   8.543  10.023  2.2000 -2.0329 -0.2012
 1424THY    CA135578   5.513   8.481   9.881 -0.6975  0.0411  0.1386
 1424THY    CA235579   5.572   8.497   9.754  0.2426  0.7391  0.0259
 1424THY    CP135580   5.587   8.646   9.702 -0.0032 -0.4934  0.0360
 1424THY    HP135581   5.525   8.706   9.770 -0.4424 -1.1631  0.2345
 1424THY    CP235582   5.727   8.691   9.684 -0.0670  0.0953  0.4544
 1424THY    HP235583   5.789   8.617   9.631  0.0826  0.3192  0.3165
 1424THY    HP335584   5.734   8.792   9.643 -1.5565  0.0095 -0.0594
 1424THY    HP435585   5.772   8.703   9.784 -2.3395  3.5218  1.2165
 1424THY    CP335586   5.522   8.669   9.554 -0.5193 -0.3008  1.0060
 1424THY    HP535587   5.568   8.617   9.470 -3.2037 -0.0427 -0.7421
 1424THY    HP635588   5.415   8.644   9.554 -0.8859  1.0778 -0.7563
 1424THY    HP735589   5.516   8.774   9.523  1.5668 -0.4168  0.0392
 1424THY    CA335590   5.647   8.393   9.700 -0.2234  0.2364  0.2395
 1424THY    HA335591   5.686   8.411   9.600  2.5037  2.9796  1.6551
 1424THY    CA435592   5.652   8.261   9.762 -0.1494 -0.6767  0.6084
 1424THY    HA435593   5.705   8.176   9.721 -1.3787 -0.6725 -1.1009
 1424THY    CA535594   5.599   8.248   9.895 -0.3481 -0.0418 -0.0366
 1424THY    CM135595   5.609   8.126   9.965 -0.2318  0.6140  0.0124
 1424THY    HM135596   5.714   8.096   9.963  0.3261  2.3761 -2.3506
 1424THY    HM235597   5.570   8.146  10.065  1.9998 -1.2069  1.3285
 1424THY    HM335598   5.548   8.047   9.921 -2.2336  1.0453  1.8613
 1424THY    CA635599   5.528   8.358   9.952 -0.6977  0.5143 -0.2922
 1424THY    HA635600   5.512   8.352  10.059  1.4198 -2.0793 -0.0283
 1425THY      O35601   8.444   6.131   1.741 -0.2137  0.2167  0.7390
 1425THY     HO35602   8.509   6.066   1.711 -0.5982  0.7769 -1.5078
 1425THY    CA135603   8.499   6.262   1.748 -0.0096  0.6529  0.4271
 1425THY    CA235604   8.426   6.372   1.789 -0.0759  0.0356 -0.5058
 1425THY    CP135605   8.278   6.360   1.846 -0.4310  0.3488  0.3981
 1425THY    HP135606   8.236   6.259   1.837  1.6814 -0.5781  0.3867
 1425THY    CP235607   8.273   6.407   1.990  0.3614 -0.1919 -0.8620
 1425THY    HP235608   8.325   6.503   2.003  0.8739 -0.4703 -0.8238
 1425THY    HP335609   8.170   6.426   2.022  0.4714 -0.1094 -0.5574
 1425THY    HP435610   8.324   6.331   2.050 -0.8636  0.0586  0.5233
 1425THY    CP335611   8.176   6.437   1.761  0.0534  1.0465 -0.0507
 1425THY    HP535612   8.078   6.448   1.808 -0.9033 -0.0460 -1.6974
 1425THY    HP635613   8.207   6.538   1.735  0.1114  1.9848  3.1521
 1425THY    HP735614   8.162   6.380   1.669 -1.7216  1.0202  0.2104
 1425THY    CA335615   8.495   6.496   1.788 -0.6380  0.0997  0.1515
 1425THY    HA335616   8.442   6.587   1.815  0.4424  0.9775 -0.6113
 1425THY    CA435617   8.638   6.504   1.757 -0.0274 -0.6211  0.0289
 1425THY    HA435618   8.681   6.603   1.748 -1.0607 -0.3204 -2.3292
 1425THY    CA535619   8.707   6.391   1.719  0.5951  0.1417 -0.7467
 1425THY    CM135620   8.853   6.402   1.688 -0.3377  0.0763  0.5009
 1425THY    HM135621   8.903   6.459   1.767 -0.5427  0.5372  0.3011
 1425THY    HM235622   8.905   6.305   1.685  0.0766  0.3145 -0.3223
 1425THY    HM335623   8.869   6.447   1.590  0.1215 -0.0360  0.5227
 1425THY    CA635624   8.637   6.271   1.713  0.5968  0.0135  0.0158
 1425THY    HA635625   8.691   6.180   1.687 -0.5090 -0.3690 -1.0213
 1426THY      O35626   9.276   0.165   9.594 -0.6885 -0.1096 -0.1643
 1426THY     HO35627   9.366   0.158   9.630  0.3214  3.5649 -1.5263
 1426THY    CA135628   9.222   0.045   9.567 -0.3949  0.4893 -0.5216
 1426THY    CA235629   9.120   0.026   9.470  0.7662 -0.3828  0.3019
 1426THY    CP135630   9.044   0.146   9.420  0.3387 -0.3195 -0.8224
 1426THY    HP135631   9.099   0.238   9.443 -3.2590  1.8265 -0.1199
 1426THY    CP235632   9.040   0.144   9.269  0.1381 -0.4344 -0.0200
 1426THY    HP235633   9.016   0.245   9.236 -0.9528 -0.4639  0.6452
 1426THY    HP335634   9.142   0.112   9.246  0.8634  2.3555 -1.0533
 1426THY    HP435635   8.958   0.080   9.235 -2.0752  2.4646 -0.4643
 1426THY    CP335636   8.904   0.167   9.483 -0.1214  0.3024 -0.7301
 1426THY    HP535637   8.851   0.073   9.466 -1.7625  0.8832  0.8221
 1426THY    HP635638   8.915   0.188   9.591 -0.0181 -2.0011 -0.2532
 1426THY    HP735639   8.841   0.244   9.437 -0.1144 -0.0733 -1.3705
 1426THY    CA335640   9.082  -0.100   9.427  0.3137 -0.1991 -0.4929
 1426THY    HA335641   8.995  -0.113   9.363  0.7273 -0.0706 -1.0891
 1426THY    CA435642   9.143  -0.214   9.488  0.3870 -0.4389  0.8522
 1426THY    HA435643   9.106  -0.312   9.455 -0.8957  0.7279 -1.4996
 1426THY    CA535644   9.237  -0.197   9.590  1.2853  0.8788  0.4936
 1426THY    CM135645   9.284  -0.315   9.670 -0.9529  0.6995 -0.0017
 1426THY    HM135646   9.199  -0.381   9.690  0.7550 -1.0388  1.9457
 1426THY    HM235647   9.369  -0.370   9.627 -1.2354  1.7529 -2.0398
 1426THY    HM335648   9.318  -0.281   9.768 -1.7573 -0.2185  0.6162
 1426THY    CA635649   9.293  -0.069   9.616  0.1240 -0.2421  0.0903
 1426THY    HA635650   9.363  -0.065   9.699  1.0519  3.4968 -0.6699
 1427THY      O35651   9.458   1.642   7.781  0.6913 -0.1733  0.8732
 1427THY     HO35652   9.474   1.562   7.729 -1.8558 -0.2880  0.1238
 1427THY    CA135653   9.498   1.755   7.718 -0.2599  0.2975  0.0344
 1427THY    CA235654   9.489   1.886   7.775  0.6602 -0.2312  0.0963
 1427THY    CP135655   9.410   1.899   7.907 -0.4688  0.6445  0.1754
 1427THY    HP135656   9.331   1.824   7.912 -0.1872  0.3855  0.8083
 1427THY    CP235657   9.505   1.870   8.021 -0.2272  0.2929 -0.2632
 1427THY    HP235658   9.451   1.856   8.116  1.2267  1.8288  0.8482
 1427THY    HP335659   9.574   1.789   7.996 -1.4331 -0.5409 -0.9647
 1427THY    HP435660   9.565   1.953   8.061  1.3948 -2.2826  3.1595
 1427THY    CP335661   9.352   2.040   7.927  0.0972  0.1052  0.3232
 1427THY    HP535662   9.289   2.031   8.016 -2.8790 -0.2251 -1.6859
 1427THY    HP635663   9.430   2.115   7.944  0.8521 -0.4610 -0.5218
 1427THY    HP735664   9.276   2.067   7.853 -0.4887  0.0565  0.9020
 1427THY    CA335665   9.557   1.994   7.720  0.0969 -0.3977 -0.6175
 1427THY    HA335666   9.558   2.090   7.770  1.1386  0.2518 -1.8351
 1427THY    CA435667   9.639   1.971   7.606  0.2518  0.2839  0.0743
 1427THY    HA435668   9.679   2.063   7.564 -3.1933  3.6430  3.3145
 1427THY    CA535669   9.645   1.841   7.548  0.7096 -0.0762  0.1123
 1427THY    CM135670   9.724   1.817   7.422  0.0511  0.0559 -0.3054
 1427THY    HM135671   9.795   1.897   7.398 -1.0218  0.9945 -0.4523
 1427THY    HM235672   9.791   1.731   7.435  1.4230  1.3300  1.7465
 1427THY    HM335673   9.655   1.795   7.340 -0.4080 -2.5295  0.6924
 1427THY    CA635674   9.573   1.737   7.608 -1.0688  0.0843 -0.4643
 1427THY    HA635675   9.593   1.641   7.562  1.9398  0.6706 -0.5681
 1428THY      O35676   1.448   4.431   7.209 -0.2659  0.4298 -0.1857
 1428THY     HO35677   1.454   4.516   7.161 -3.0685  0.0735 -1.3596
 1428THY    CA135678   1.524   4.341   7.150 -1.2255 -0.0806  0.1300
 1428THY    CA235679   1.479   4.213   7.137  0.4137 -0.2381  0.8398
 1428THY    CP135680   1.347   4.171   7.195 -0.2098 -0.0281  0.7062
 1428THY    HP135681   1.283   4.261   7.196 -0.4765 -0.2180  1.7391
 1428THY    CP235682   1.270   4.061   7.116 -0.0259 -0.0441  0.2048
 1428THY    HP235683   1.169   4.056   7.159  0.5604 -0.9693  1.5514
 1428THY    HP335684   1.245   4.075   7.010 -1.9299  1.1318  0.7423
 1428THY    HP435685   1.306   3.959   7.134 -0.7118 -0.2037  0.7426
 1428THY    CP335686   1.371   4.121   7.335 -0.0797 -0.1826 -0.1630
 1428THY    HP535687   1.276   4.092   7.380  0.8014 -1.4715  0.9733
 1428THY    HP635688   1.443   4.038   7.330  0.3394 -0.0586  2.3705
 1428THY    HP735689   1.422   4.194   7.399  2.2490 -2.5498  0.8963
 1428THY    CA335690   1.560   4.126   7.065 -0.2027  0.5105 -0.0658
 1428THY    HA335691   1.526   4.024   7.057  0.9477 -0.2450  3.2432
 1428THY    CA435692   1.680   4.165   7.008  0.2880 -0.8235 -0.4795
 1428THY    HA435693   1.730   4.084   6.955  0.4972 -1.4996  0.7319
 1428THY    CA535694   1.739   4.285   7.046 -0.5078 -0.3043 -0.6710
 1428THY    CM135695   1.874   4.335   7.007 -0.0880 -0.1629 -0.3363
 1428THY    HM135696   1.858   4.428   6.953 -0.4501 -0.4338 -0.6962
 1428THY    HM235697   1.931   4.363   7.097 -1.0886  0.5137  0.1034
 1428THY    HM335698   1.930   4.262   6.947 -0.7067  0.1391 -1.2855
 1428THY    CA635699   1.659   4.368   7.126  0.6292 -0.0322  0.0306
 1428THY    HA635700   1.704   4.460   7.163  0.2725  0.7872 -1.4857
 1429THY      O35701   5.747   3.148   2.958 -0.0001 -0.6715 -0.4473
 1429THY     HO35702   5.671   3.089   2.973 -0.3478 -0.1330 -0.0536
 1429THY    CA135703   5.760   3.218   3.074 -0.1276 -0.8830  0.9686
 1429THY    CA235704   5.848   3.332   3.081 -0.0650 -0.6360 -0.1277
 1429THY    CP135705   5.909   3.397   2.961 -0.1054 -0.1455  0.6040
 1429THY    HP135706   5.884   3.349   2.866 -2.3017  0.6463  0.7119
 1429THY    CP235707   5.861   3.536   2.943 -0.0143  0.5208  0.5642
 1429THY    HP235708   5.914   3.583   2.859 -0.8373  1.1864  0.4045
 1429THY    HP335709   5.754   3.529   2.921  0.2076 -3.3643  0.0673
 1429THY    HP435710   5.875   3.602   3.029  0.8575 -0.1184  0.9344
 1429THY    CP335711   6.065   3.392   2.973 -0.3129 -0.3287 -0.0252
 1429THY    HP535712   6.095   3.288   2.990  0.4924 -0.2908 -1.1143
 1429THY    HP635713   6.111   3.419   2.877 -0.6575  0.8732  0.1288
 1429THY    HP735714   6.106   3.466   3.043 -1.2747  0.6215 -0.4298
 1429THY    CA335715   5.868   3.396   3.200  0.0451  0.9360 -0.5023
 1429THY    HA335716   5.938   3.479   3.206  2.4960 -1.1269  0.9868
 1429THY    CA435717   5.805   3.339   3.321 -0.1494 -0.1105 -0.1334
 1429THY    HA435718   5.828   3.384   3.417 -1.3646 -1.0820  0.6357
 1429THY    CA535719   5.737   3.218   3.314  0.0319  0.7912 -0.2887
 1429THY    CM135720   5.686   3.146   3.433 -0.2925  0.5371  0.4704
 1429THY    HM135721   5.717   3.041   3.439 -0.0215  0.5534 -0.4473
 1429THY    HM235722   5.715   3.188   3.530 -0.5076 -0.0632  0.8005
 1429THY    HM335723   5.576   3.144   3.440 -0.3776 -0.8796 -0.6348
 1429THY    CA635724   5.709   3.166   3.187 -0.1635  0.3973 -0.3064
 1429THY    HA635725   5.651   3.077   3.167  0.0209  0.4211 -0.9786
 1430THY      O35726   7.453   3.143   0.518 -0.2952 -0.3004  0.3060
 1430THY     HO35727   7.385   3.183   0.462  0.8332 -0.8581 -1.5327
 1430THY    CA135728   7.544   3.246   0.531 -0.2325 -0.5487  0.2976
 1430THY    CA235729   7.682   3.219   0.511 -0.6968 -0.3620  0.0502
 1430THY    CP135730   7.735   3.075   0.492  0.1180 -0.5257 -0.3816
 1430THY    HP135731   7.654   3.001   0.482 -0.0019 -0.1004 -3.8193
 1430THY    CP235732   7.808   3.057   0.360 -0.1106  0.1809  0.6535
 1430THY    HP235733   7.907   3.103   0.359  0.9176 -1.8930 -1.5100
 1430THY    HP335734   7.825   2.952   0.333 -0.9188  0.5287 -1.3778
 1430THY    HP435735   7.744   3.099   0.282  1.2447  0.0952 -0.5267
 1430THY    CP335736   7.823   3.035   0.611 -0.1997 -0.1589  0.0672
 1430THY    HP535737   7.855   2.931   0.597 -0.0798  0.1472 -2.3540
 1430THY    HP635738   7.910   3.100   0.605 -0.2110 -0.2875 -2.0619
 1430THY    HP735739   7.772   3.049   0.707 -0.1229  0.4314  0.0244
 1430THY    CA335740   7.771   3.327   0.530  1.1498 -0.4048 -0.0749
 1430THY    HA335741   7.877   3.311   0.508  1.4287  1.8129 -0.5988
 1430THY    CA435742   7.721   3.455   0.558 -0.5552  0.3244 -0.1601
 1430THY    HA435743   7.792   3.537   0.551 -1.0615  0.7186 -0.9336
 1430THY    CA535744   7.586   3.478   0.579 -0.4062  0.3295  0.3875
 1430THY    CM135745   7.542   3.620   0.608 -0.6887  0.6842  0.0863
 1430THY    HM135746   7.579   3.666   0.700 -0.0541  0.4019 -0.0189
 1430THY    HM235747   7.588   3.683   0.531  2.2034  1.2953  2.1527
 1430THY    HM335748   7.433   3.631   0.603 -0.4789  2.6602 -3.3171
 1430THY    CA635749   7.495   3.373   0.556  0.4133 -0.3367  0.0175
 1430THY    HA635750   7.389   3.389   0.573  0.9781  1.6995  2.2017
 1431THY      O35751   5.554   7.740   7.364 -0.2845  0.1599 -0.5537
 1431THY     HO35752   5.466   7.715   7.397 -0.4338  3.1837  1.7763
 1431THY    CA135753   5.622   7.768   7.477 -0.3115  0.2164  0.3233
 1431THY    CA235754   5.750   7.830   7.476 -1.0048  0.6441  1.0816
 1431THY    CP135755   5.806   7.865   7.343  0.1146  0.6317 -0.4601
 1431THY    HP135756   5.730   7.856   7.265 -1.1369 -0.4830  0.8419
 1431THY    CP235757   5.840   8.010   7.333  0.2193 -0.4941  0.5539
 1431THY    HP235758   5.756   8.078   7.349  0.1424  0.1116 -2.0030
 1431THY    HP335759   5.914   8.042   7.408 -1.0794  1.3914  1.1020
 1431THY    HP435760   5.876   8.031   7.232 -1.2870 -0.3245  0.0293
 1431THY    CP335761   5.931   7.778   7.313 -0.4426 -0.3529 -0.1947
 1431THY    HP535762   5.895   7.678   7.285  1.3104 -0.2569 -3.1415
 1431THY    HP635763   5.976   7.809   7.218 -0.2512  0.4921  0.1640
 1431THY    HP735764   6.013   7.771   7.386 -0.4530 -1.1847 -0.2495
 1431THY    CA335765   5.835   7.832   7.591 -0.9601 -0.2024  0.0994
 1431THY    HA335766   5.939   7.861   7.594 -0.7068 -1.1532  0.7866
 1431THY    CA435767   5.776   7.784   7.713  0.5842  0.2779 -0.5816
 1431THY    HA435768   5.833   7.781   7.805  0.1055 -0.0823 -0.2920
 1431THY    CA535769   5.646   7.737   7.711  0.6284 -0.7774 -0.0825
 1431THY    CM135770   5.596   7.670   7.828 -0.6385  0.3624  0.4026
 1431THY    HM135771   5.492   7.703   7.835 -1.2080 -1.2473 -0.0007
 1431THY    HM235772   5.610   7.562   7.818  1.4776  0.7396 -1.9218
 1431THY    HM335773   5.653   7.709   7.913  2.8168 -1.2880 -0.9464
 1431THY    CA635774   5.570   7.731   7.598  0.2740 -0.2694  0.6984
 1431THY    HA635775   5.475   7.679   7.601  0.7814 -1.3161 -0.3673
 1432THY      O35776   6.758   8.605   2.159  0.1055  0.0298 -0.7390
 1432THY     HO35777   6.682   8.544   2.168 -0.4241  0.8609  0.7162
 1432THY    CA135778   6.784   8.639   2.029 -0.0466 -0.2951 -0.0049
 1432THY    CA235779   6.913   8.652   1.983 -0.4806  0.0646  0.1285
 1432THY    CP135780   7.033   8.622   2.074  0.4689  0.1502  0.0794
 1432THY    HP135781   7.015   8.536   2.139  1.0712 -1.0172 -1.2403
 1432THY    CP235782   7.155   8.572   2.001  1.0684 -0.0391 -0.2681
 1432THY    HP235783   7.236   8.564   2.075  1.1245 -0.2968 -0.3552
 1432THY    HP335784   7.127   8.485   1.940  1.6672 -0.4936  0.0900
 1432THY    HP435785   7.182   8.647   1.926 -0.2635  0.9013  0.1432
 1432THY    CP335786   7.084   8.745   2.156 -0.0880  0.5521 -0.2085
 1432THY    HP535787   7.176   8.726   2.213  1.0524 -1.6839 -2.5858
 1432THY    HP635788   7.114   8.824   2.086  0.2262  1.5211  0.9894
 1432THY    HP735789   7.003   8.784   2.219  0.9642  0.7191  1.0872
 1432THY    CA335790   6.917   8.689   1.847 -0.6430 -0.2923 -0.0344
 1432THY    HA335791   7.014   8.694   1.799  0.1995 -2.7685  1.2602
 1432THY    CA435792   6.807   8.718   1.769  0.6351  0.1963  0.2696
 1432THY    HA435793   6.819   8.746   1.665 -0.4444 -0.6677 -0.1122
 1432THY    CA535794   6.677   8.694   1.821  0.1945 -0.7663 -0.5715
 1432THY    CM135795   6.553   8.732   1.733  0.5489 -0.4585  0.7272
 1432THY    HM135796   6.473   8.769   1.798 -0.2627  1.1248 -1.0632
 1432THY    HM235797   6.585   8.812   1.666 -2.0563  1.0750  1.1799
 1432THY    HM335798   6.513   8.650   1.671  1.8169 -1.3765  1.0780
 1432THY    CA635799   6.668   8.653   1.954  0.4773 -0.2879  0.3101
 1432THY    HA635800   6.572   8.623   1.995  0.8391  0.8866  2.1629
 1433THY      O35801   1.337   0.024   4.650  0.0952 -0.0578  0.1034
 1433THY     HO35802   1.425   0.031   4.611  0.1380 -0.3567  0.1418
 1433THY    CA135803   1.315   0.145   4.715 -0.4527  0.2205  0.3324
 1433THY    CA235804   1.259   0.142   4.845 -0.2577  0.8999 -0.3216
 1433THY    CP135805   1.234   0.004   4.911 -0.0940 -0.3717  0.0015
 1433THY    HP135806   1.262  -0.081   4.849  0.2875 -0.5220  0.3713
 1433THY    CP235807   1.328  -0.021   5.028  0.2614  0.4102 -0.5932
 1433THY    HP235808   1.306  -0.113   5.084 -1.2264  1.3173  0.4028
 1433THY    HP335809   1.428  -0.026   4.985  1.4879  0.9189  1.9560
 1433THY    HP435810   1.326   0.061   5.101 -0.3831 -1.0160  1.0723
 1433THY    CP335811   1.089  -0.006   4.956  0.1472  0.6010 -0.2770
 1433THY    HP535812   1.026   0.018   4.870 -0.3203 -1.2636 -0.4962
 1433THY    HP635813   1.068  -0.106   4.997 -1.2755  1.5236  1.3852
 1433THY    HP735814   1.071   0.068   5.035  1.3510  0.4758  0.1299
 1433THY    CA335815   1.252   0.264   4.919  0.6606 -0.1929 -0.5507
 1433THY    HA335816   1.208   0.256   5.018 -2.9908 -2.3824 -2.1401
 1433THY    CA435817   1.292   0.381   4.854  0.1821  0.1376  0.4800
 1433THY    HA435818   1.288   0.473   4.911 -0.4025  2.3928 -2.9106
 1433THY    CA535819   1.351   0.380   4.726  0.3701 -0.1246  0.2905
 1433THY    CM135820   1.413   0.507   4.672 -0.3934  0.2843 -0.3941
 1433THY    HM135821   1.375   0.600   4.716  0.5256  1.0867 -1.2282
 1433THY    HM235822   1.521   0.506   4.693 -0.1069 -0.6365 -1.7630
 1433THY    HM335823   1.395   0.521   4.565 -1.5111 -1.7594 -0.5113
 1433THY    CA635824   1.366   0.258   4.657  0.7808  0.2811 -0.1044
 1433THY    HA635825   1.425   0.262   4.566  2.5840 -0.7020  0.9641
 1434THY      O35826   7.523   9.616   6.552 -0.1490  0.2666 -0.1001
 1434THY     HO35827   7.428   9.632   6.538  0.0622  3.1444  1.1076
 1434THY    CA135828   7.584   9.670   6.444  0.3300 -0.2484 -0.2275
 1434THY    CA235829   7.707   9.630   6.395 -0.6655 -0.5715 -0.2969
 1434THY    CP135830   7.780   9.516   6.462  0.7076  0.8083 -0.2962
 1434THY    HP135831   7.728   9.501   6.557 -1.1766  2.5660 -0.9545
 1434THY    CP235832   7.750   9.390   6.383  0.0668 -0.2867  0.3664
 1434THY    HP235833   7.786   9.417   6.284 -0.2943 -0.7313  0.1088
 1434THY    HP335834   7.803   9.305   6.429 -0.2874 -1.0133 -0.5314
 1434THY    HP435835   7.641   9.379   6.375 -0.4309  3.7465 -0.6073
 1434THY    CP335836   7.936   9.539   6.482  0.1146 -0.7675  0.7016
 1434THY    HP535837   7.954   9.494   6.581 -2.8418 -1.3729  1.0620
 1434THY    HP635838   8.001   9.494   6.406 -0.3296  2.5321 -1.8881
 1434THY    HP735839   7.950   9.647   6.475 -1.1673 -0.5895  0.5353
 1434THY    CA335840   7.766   9.704   6.286  0.4549  0.6218 -0.3239
 1434THY    HA335841   7.865   9.676   6.252 -0.3914  0.8471 -3.2266
 1434THY    CA435842   7.701   9.821   6.240  0.2016  0.4893  0.1786
 1434THY    HA435843   7.748   9.882   6.163 -0.1261 -0.0477 -0.4585
 1434THY    CA535844   7.576   9.859   6.289 -0.1698 -0.1017 -0.2875
 1434THY    CM135845   7.507   9.982   6.225 -0.2496 -0.4236 -0.0375
 1434THY    HM135846   7.398   9.987   6.236 -0.3636 -1.8251 -0.3509
 1434THY    HM235847   7.551  10.071   6.272 -0.4115  1.4881 -3.2081
 1434THY    HM335848   7.531   9.984   6.118  1.7750  0.2679  0.3763
 1434THY    CA635849   7.517   9.778   6.388  0.2407 -0.4114  0.5215
 1434THY    HA635850   7.420   9.801   6.432 -0.5700 -0.5310 -1.1409
 1435THY      O35851   4.518   1.084   1.494 -0.2138 -0.1046  0.3913
 1435THY     HO35852   4.586   1.014   1.502  0.1804  0.4031  1.7700
 1435THY    CA135853   4.479   1.086   1.621  0.3915 -0.0635 -0.1351
 1435THY    CA235854   4.346   1.085   1.665  0.1691 -0.6703  0.4192
 1435THY    CP135855   4.230   1.092   1.559  0.0476 -0.0317  0.5832
 1435THY    HP135856   4.273   1.060   1.464 -0.5059 -0.3311  0.4264
 1435THY    CP235857   4.128   0.988   1.588 -0.5970 -0.2248  0.0776
 1435THY    HP235858   4.079   0.984   1.687 -2.0758 -3.1147 -0.6658
 1435THY    HP335859   4.044   0.996   1.518 -0.6187 -1.4826 -0.0588
 1435THY    HP435860   4.177   0.891   1.573  2.8720  1.3564  0.2695
 1435THY    CP335861   4.163   1.227   1.548  0.7097 -0.4995 -0.4304
 1435THY    HP535862   4.240   1.305   1.544 -1.0544  1.2961 -0.7013
 1435THY    HP635863   4.083   1.218   1.473  0.4691 -2.7935  0.0170
 1435THY    HP735864   4.112   1.254   1.641  1.0703  1.0690 -0.6659
 1435THY    CA335865   4.321   1.107   1.803  0.1966  0.6295 -0.3181
 1435THY    HA335866   4.219   1.116   1.839  0.6817  0.1608  1.2387
 1435THY    CA435867   4.418   1.106   1.897 -0.1120 -0.3463 -0.4959
 1435THY    HA435868   4.389   1.109   2.002 -0.0901  0.3469 -0.5064
 1435THY    CA535869   4.551   1.096   1.849 -0.0260  0.5310  0.1979
 1435THY    CM135870   4.662   1.112   1.957  0.0630  0.9052 -0.0960
 1435THY    HM135871   4.762   1.104   1.912  0.9493  0.2974  1.8475
 1435THY    HM235872   4.661   1.215   1.994  0.6841  1.4795 -1.6120
 1435THY    HM335873   4.657   1.039   2.038 -3.0815  1.2104  0.0843
 1435THY    CA635874   4.580   1.081   1.714 -0.4877  0.6292 -0.5176
 1435THY    HA635875   4.681   1.077   1.674 -1.0419 -1.9296 -1.9180
 1436THY      O35876   7.903   5.377   0.795  0.2831 -0.0710 -0.1847
 1436THY     HO35877   7.850   5.379   0.713 -0.8368  0.4626  0.5311
 1436THY    CA135878   7.957   5.257   0.790 -0.4282  0.1533 -0.4662
 1436THY    CA235879   7.968   5.175   0.904 -0.4591 -0.5844  0.4005
 1436THY    CP135880   7.932   5.231   1.038  0.2437  0.3819  0.4500
 1436THY    HP135881   7.832   5.275   1.023 -0.1607  0.2896  2.5369
 1436THY    CP235882   7.928   5.122   1.155  0.0541 -0.0638 -0.5442
 1436THY    HP235883   7.855   5.053   1.111  0.4726 -0.8771  0.0176
 1436THY    HP335884   8.027   5.076   1.157  0.4910  0.8531 -0.4261
 1436THY    HP435885   7.889   5.147   1.254  0.0789 -2.1337  0.0415
 1436THY    CP335886   8.027   5.342   1.080 -0.5442 -0.2356 -0.6072
 1436THY    HP535887   8.022   5.416   0.999  0.2113  0.9947  0.4519
 1436THY    HP635888   7.995   5.377   1.179  1.0708 -1.0127  0.2305
 1436THY    HP735889   8.128   5.301   1.093 -0.6345 -1.4488 -3.1601
 1436THY    CA335890   8.027   5.043   0.887 -0.7073  0.0494  0.2654
 1436THY    HA335891   8.058   4.985   0.973  1.3877  1.6373  0.6660
 1436THY    CA435892   8.060   4.998   0.759  0.0399 -0.3389  1.1893
 1436THY    HA435893   8.090   4.898   0.731 -0.6236  0.4126 -3.0347
 1436THY    CA535894   8.013   5.077   0.643 -0.0485 -0.5746  0.8969
 1436THY    CM135895   8.029   5.027   0.508 -0.5433  0.7612  0.0637
 1436THY    HM135896   8.047   4.919   0.505  0.4063  0.9310 -2.2770
 1436THY    HM235897   7.938   5.040   0.448 -0.4281 -0.6444 -0.4427
 1436THY    HM335898   8.112   5.077   0.457  0.4975 -1.9348 -1.0363
 1436THY    CA635899   7.966   5.204   0.662  0.4887  0.2729  0.3705
 1436THY    HA635900   7.928   5.261   0.577  1.6183  0.0729 -0.2822
 1437THY      O35901   4.078   6.035   8.818  0.4078  0.3937 -0.3373
 1437THY     HO35902   3.994   6.022   8.770  0.1323 -1.1143  0.4816
 1437THY    CA135903   4.162   6.091   8.726 -0.1779  0.3962 -0.0486
 1437THY    CA235904   4.276   6.171   8.772  0.4057  0.5173  0.7492
 1437THY    CP135905   4.282   6.214   8.917 -0.1228 -0.5775 -0.6709
 1437THY    HP135906   4.211   6.161   8.981  0.5970 -0.9270 -0.1441
 1437THY    CP235907   4.421   6.177   8.987  0.4337 -0.1605  0.0256
 1437THY    HP235908   4.425   6.205   9.093 -0.8775  1.5243 -0.3266
 1437THY    HP335909   4.447   6.072   8.967  1.4009 -0.1402  1.0815
 1437THY    HP435910   4.500   6.241   8.946  1.6215 -1.0291  0.8621
 1437THY    CP335911   4.260   6.366   8.933 -0.2319  0.1921  0.8786
 1437THY    HP535912   4.162   6.389   8.889  0.0505  0.0001  0.1241
 1437THY    HP635913   4.263   6.406   9.035 -1.9923  0.3710  0.8946
 1437THY    HP735914   4.336   6.414   8.870 -1.8078  1.3010 -0.2423
 1437THY    CA335915   4.368   6.209   8.676  0.5931  0.2595  0.0407
 1437THY    HA335916   4.458   6.259   8.712 -0.7161  0.7050  2.9248
 1437THY    CA435917   4.361   6.158   8.544  0.6063 -0.0185  0.3810
 1437THY    HA435918   4.428   6.183   8.462 -1.7148  1.0908 -1.3118
 1437THY    CA535919   4.263   6.069   8.509  0.8340  0.0862 -0.4816
 1437THY    CM135920   4.265   6.011   8.378 -0.5600  0.4574  0.1323
 1437THY    HM135921   4.332   6.060   8.307 -0.0754  0.8167  0.8397
 1437THY    HM235922   4.302   5.908   8.375  0.3752  0.7734  0.4917
 1437THY    HM335923   4.164   6.007   8.333 -0.2993  0.7078 -0.4875
 1437THY    CA635924   4.158   6.044   8.597 -0.2335 -0.5424 -0.2892
 1437THY    HA635925   4.069   5.987   8.571 -0.7686  0.5577 -0.9246
 1438THY      O35926   7.655   4.039   7.796  0.0701  1.0143  0.1775
 1438THY     HO35927   7.730   3.985   7.765 -0.2517  0.0663  1.0115
 1438THY    CA135928   7.715   4.122   7.878  0.1176 -0.0717  0.0833
 1438THY    CA235929   7.663   4.252   7.900 -0.0700  0.2961  0.0229
 1438THY    CP135930   7.545   4.298   7.816  0.0505  0.2427  0.7988
 1438THY    HP135931   7.525   4.220   7.742  3.6791 -0.2485  0.1774
 1438THY    CP235932   7.423   4.309   7.909 -0.2380  0.0950 -0.0892
 1438THY    HP235933   7.334   4.354   7.866 -0.0060  0.2197 -0.4370
 1438THY    HP335934   7.391   4.207   7.935 -1.5946  0.8334  1.3111
 1438THY    HP435935   7.443   4.367   8.000  1.1949 -2.0161  1.0491
 1438THY    CP335936   7.553   4.434   7.739 -0.1331 -0.0598 -0.2030
 1438THY    HP535937   7.560   4.510   7.818 -0.0942 -0.8923  0.6156
 1438THY    HP635938   7.646   4.433   7.681 -0.4065 -2.3001 -0.6877
 1438THY    HP735939   7.460   4.461   7.687 -0.9146 -1.0430  0.6395
 1438THY    CA335940   7.721   4.338   7.998  0.1372  0.0562  0.3956
 1438THY    HA335941   7.691   4.442   8.013 -1.0315 -0.0758 -0.9185
 1438THY    CA435942   7.823   4.286   8.078 -0.1399 -0.0916  0.5670
 1438THY    HA435943   7.861   4.345   8.161  1.9952  1.2655 -1.2500
 1438THY    CA535944   7.867   4.150   8.060 -0.4966 -0.4070 -0.0772
 1438THY    CM135945   7.962   4.095   8.163  0.6374  0.0076 -0.5448
 1438THY    HM135946   8.026   4.022   8.111 -0.0081  0.3771 -1.9292
 1438THY    HM235947   8.026   4.168   8.212  1.2685 -1.6017  1.1304
 1438THY    HM335948   7.897   4.053   8.240 -0.9291  0.4876 -1.5501
 1438THY    CA635949   7.812   4.070   7.958 -0.3002 -0.3915 -0.0330
 1438THY    HA635950   7.846   3.969   7.937 -0.0367 -0.2501 -0.2850
 1439THY      O35951   5.937   3.796   0.024 -0.1432  0.6064  0.0312
 1439THY     HO35952   5.846   3.822   0.002  0.2390  1.1210 -1.0087
 1439THY    CA135953   5.925   3.766   0.154  0.8752 -0.3909 -0.5436
 1439THY    CA235954   6.033   3.779   0.239 -0.2311 -0.4964  0.1275
 1439THY    CP135955   6.177   3.826   0.192  0.3126  0.5183 -0.3023
 1439THY    HP135956   6.176   3.833   0.082 -0.8338 -0.2540 -0.3618
 1439THY    CP235957   6.232   3.953   0.268 -0.4509  0.6169 -0.1033
 1439THY    HP235958   6.165   4.039   0.261  0.3306  1.2729  0.2759
 1439THY    HP335959   6.254   3.932   0.373  0.4119 -3.3517 -0.9028
 1439THY    HP435960   6.333   3.983   0.237  0.1549  1.7228  2.7276
 1439THY    CP335961   6.285   3.711   0.213  0.1237  0.4408 -0.5007
 1439THY    HP535962   6.315   3.692   0.317 -0.3902 -0.9951 -0.5895
 1439THY    HP635963   6.247   3.622   0.161 -2.3676  1.1700 -0.0423
 1439THY    HP735964   6.373   3.750   0.160  0.7410 -0.3112 -0.0465
 1439THY    CA335965   6.023   3.738   0.374 -0.5910 -0.6360 -0.2667
 1439THY    HA335966   6.111   3.744   0.438  0.2600 -2.3308 -1.2002
 1439THY    CA435967   5.894   3.697   0.412 -0.1437 -0.0263 -0.5036
 1439THY    HA435968   5.884   3.658   0.513  1.7457 -0.5035 -0.4463
 1439THY    CA535969   5.786   3.687   0.328 -1.0712 -0.0676  0.3645
 1439THY    CM135970   5.653   3.640   0.389 -0.4820 -0.1300 -0.4830
 1439THY    HM135971   5.649   3.532   0.403 -0.5340 -0.3075 -1.7378
 1439THY    HM235972   5.643   3.700   0.480 -1.4269 -0.5680 -0.2884
 1439THY    HM335973   5.577   3.668   0.316 -1.0903  0.1164  0.2346
 1439THY    CA635974   5.801   3.721   0.192  0.4397  0.8621 -0.0552
 1439THY    HA635975   5.716   3.711   0.126  1.3785 -0.2747 -1.1422
 1440THY      O35976   0.393   4.435   9.927  0.4173 -0.3731 -0.5057
 1440THY     HO35977   0.411   4.465  10.017 -2.0124 -0.0822 -0.0378
 1440THY    CA135978   0.264   4.466   9.895 -0.2538  0.7093 -0.8133
 1440THY    CA235979   0.213   4.405   9.780  0.1117 -0.3996 -0.7292
 1440THY    CP135980   0.295   4.306   9.698 -0.3937 -0.0197  0.3215
 1440THY    HP135981   0.352   4.243   9.768  1.4739  1.9931  0.7046
 1440THY    CP235982   0.207   4.201   9.624 -0.2611  0.4931  0.4761
 1440THY    HP235983   0.122   4.159   9.679 -0.8158 -1.8711 -1.9889
 1440THY    HP335984   0.188   4.234   9.521  2.5920  0.9798  0.0162
 1440THY    HP435985   0.254   4.102   9.620  1.2284  1.2126 -1.1740
 1440THY    CP335986   0.382   4.373   9.594  0.1208  0.4573 -0.1691
 1440THY    HP535987   0.321   4.422   9.517 -0.0730 -1.3281 -1.1976
 1440THY    HP635988   0.455   4.444   9.635 -1.2422  0.5146  2.4089
 1440THY    HP735989   0.444   4.297   9.545 -0.7538  0.4053 -1.2122
 1440THY    CA335990   0.081   4.445   9.759  0.1659  0.2220  0.0811
 1440THY    HA335991   0.022   4.409   9.675  0.1418  1.3095 -0.3858
 1440THY    CA435992  -0.004   4.514   9.855 -0.3343  0.5003 -0.0959
 1440THY    HA435993  -0.109   4.528   9.832 -0.7975  2.0492  2.6131
 1440THY    CA535994   0.059   4.559   9.974  0.2956 -0.0907  0.5016
 1440THY    CM135995  -0.020   4.627  10.083 -0.6081 -0.4367 -0.3631
 1440THY    HM135996  -0.126   4.636  10.056 -0.5356 -1.4283 -1.0115
 1440THY    HM235997  -0.008   4.574  10.179 -0.7203  0.4375  0.1422
 1440THY    HM335998   0.012   4.730  10.100  1.3581 -0.9498 -0.7886
 1440THY    CA635999   0.195   4.538   9.990  0.5611 -0.3288 -0.0639
 1440THY    HA636000   0.247   4.572  10.079 -0.4136  0.4127  0.2482
 1441THY      O36001   2.759   3.028   6.933  0.7469 -0.5315  0.1243
 1441THY     HO36002   2.692   2.958   6.941  0.1118 -0.1013 -1.2395
 1441THY    CA136003   2.754   3.113   7.040  0.6607 -0.2256 -0.0771
 1441THY    CA236004   2.758   3.252   7.018  0.3135  0.0188 -0.4483
 1441THY    CP136005   2.765   3.322   6.875 -0.2630  0.6311 -0.4071
 1441THY    HP136006   2.753   3.240   6.803 -0.0429  1.1033 -0.9848
 1441THY    CP236007   2.642   3.404   6.857 -0.4200  0.1005 -0.5913
 1441THY    HP236008   2.556   3.346   6.890 -1.2258  0.2979 -2.2452
 1441THY    HP336009   2.648   3.498   6.913 -1.3598 -0.2274  0.0803
 1441THY    HP436010   2.637   3.426   6.749  2.0624  0.0760 -0.7708
 1441THY    CP336011   2.901   3.387   6.861 -0.6075  0.4836  0.9414
 1441THY    HP536012   2.917   3.444   6.769  0.7494 -1.9765 -0.4474
 1441THY    HP636013   2.918   3.453   6.947  0.5016 -1.2119  2.0682
 1441THY    HP736014   2.986   3.321   6.875 -0.6729  0.6441  2.2652
 1441THY    CA336015   2.745   3.336   7.127 -0.3783 -0.5359  0.2060
 1441THY    HA336016   2.756   3.444   7.118 -0.8747 -0.5240 -0.3246
 1441THY    CA436017   2.729   3.276   7.250  0.3681  0.1041  0.2451
 1441THY    HA436018   2.737   3.344   7.335  2.0403  1.3319 -0.8457
 1441THY    CA536019   2.721   3.145   7.271  0.7435  0.8000  0.5749
 1441THY    CM136020   2.709   3.093   7.409  0.2237  0.5075 -0.2211
 1441THY    HM136021   2.805   3.112   7.457  0.7519 -1.8862 -0.1905
 1441THY    HM236022   2.622   3.127   7.465  1.2203  1.4182  0.8236
 1441THY    HM336023   2.716   2.984   7.408  1.7441  0.5693  0.5304
 1441THY    CA636024   2.729   3.062   7.171  0.1794  0.6401  0.5838
 1441THY    HA636025   2.731   2.955   7.186 -3.2207  0.0734 -1.8318
 1442THY      O36026   2.341   7.978   1.896  0.1167  0.2887  0.6481
 1442THY     HO36027   2.310   7.995   1.806 -3.0980 -0.8997  1.4011
 1442THY    CA136028   2.329   7.844   1.895  0.0410 -0.4385 -0.0244
 1442THY    CA236029   2.361   7.762   2.003  0.5845 -0.4419 -0.0498
 1442THY    CP136030   2.386   7.822   2.141 -0.4378  0.4953 -0.4014
 1442THY    HP136031   2.429   7.921   2.122 -1.7113  1.2979  0.7195
 1442THY    CP236032   2.263   7.821   2.238 -0.0913  0.0648 -0.3961
 1442THY    HP236033   2.173   7.859   2.189 -0.1721 -0.1321 -0.4028
 1442THY    HP336034   2.247   7.719   2.276  5.6830 -0.5466  1.5022
 1442THY    HP436035   2.281   7.875   2.332  1.2871 -0.0053 -0.5886
 1442THY    CP336036   2.506   7.764   2.212  0.3822  0.5607  0.1069
 1442THY    HP536037   2.535   7.819   2.302  1.0526  0.6603 -0.1625
 1442THY    HP636038   2.475   7.662   2.238  1.2483  0.1897 -0.2480
 1442THY    HP736039   2.596   7.764   2.148  0.1921  1.0223 -0.1605
 1442THY    CA336040   2.329   7.626   1.988  0.2252  0.5711 -0.7718
 1442THY    HA336041   2.356   7.563   2.073  1.0618 -0.0700 -1.4904
 1442THY    CA436042   2.283   7.573   1.864  0.2315 -0.4212 -1.2524
 1442THY    HA436043   2.258   7.468   1.854  0.8844 -0.9359  1.5706
 1442THY    CA536044   2.278   7.657   1.756  0.0740  0.0520  0.2712
 1442THY    CM136045   2.252   7.609   1.612 -0.5351 -0.1536 -0.0529
 1442THY    HM136046   2.183   7.673   1.555 -0.6530  0.1854  0.4626
 1442THY    HM236047   2.348   7.602   1.559  0.0473 -2.9050  1.2102
 1442THY    HM336048   2.212   7.507   1.606  1.1448 -0.8201 -0.6291
 1442THY    CA636049   2.298   7.796   1.770  0.3178 -0.3570 -0.1003
 1442THY    HA636050   2.280   7.859   1.683  0.8053 -1.0900 -0.7498
 1443THY      O36051   5.943   4.391   1.271  0.4898  0.1905 -0.1128
 1443THY     HO36052   5.854   4.370   1.240  2.0217 -2.8761 -3.0215
 1443THY    CA136053   6.010   4.269   1.290 -0.0166 -0.1236  0.2762
 1443THY    CA236054   6.149   4.257   1.271 -0.1147 -0.3866  0.7340
 1443THY    CP136055   6.236   4.377   1.230  0.0720  0.1398  0.0914
 1443THY    HP136056   6.179   4.471   1.222 -2.1181 -1.2003 -1.1492
 1443THY    CP236057   6.340   4.399   1.342  0.1483  0.3837 -0.3161
 1443THY    HP236058   6.288   4.420   1.436  1.2002 -0.2275  0.4228
 1443THY    HP336059   6.403   4.310   1.349 -1.4537 -0.8073 -0.4389
 1443THY    HP436060   6.412   4.473   1.306 -0.1096  0.6848 -0.2197
 1443THY    CP336061   6.304   4.371   1.101 -0.5269  0.2898 -0.4517
 1443THY    HP536062   6.227   4.363   1.023  0.4315 -0.8104 -1.3102
 1443THY    HP636063   6.370   4.458   1.089  0.9951 -0.8238 -0.2855
 1443THY    HP736064   6.362   4.279   1.104 -1.7587 -0.5523 -1.5788
 1443THY    CA336065   6.209   4.133   1.303  0.2797 -0.5935 -0.2208
 1443THY    HA336066   6.314   4.109   1.304  0.4343 -0.0903 -2.0175
 1443THY    CA436067   6.129   4.026   1.338  0.0799 -0.1946 -0.0084
 1443THY    HA436068   6.187   3.934   1.346  0.4783 -0.2119 -2.2603
 1443THY    CA536069   5.990   4.032   1.333 -0.0163 -0.1506 -0.7714
 1443THY    CM136070   5.920   3.907   1.369 -0.2137  1.1783  0.2087
 1443THY    HM136071   5.812   3.906   1.352 -0.2694  2.4596  0.3898
 1443THY    HM236072   5.968   3.825   1.315 -1.5954  0.2843  0.3051
 1443THY    HM336073   5.945   3.891   1.474  2.3859  0.9725 -0.3683
 1443THY    CA636074   5.932   4.159   1.311 -0.3710 -0.2983 -0.3441
 1443THY    HA636075   5.825   4.170   1.324 -0.2225  0.5785  0.2077
 1444THY      O36076   1.469   5.863   6.426 -0.2051 -0.2450 -0.1422
 1444THY     HO36077   1.373   5.849   6.436 -0.7547  1.1662 -2.7332
 1444THY    CA136078   1.498   5.794   6.313 -0.0193  0.3092 -0.4784
 1444THY    CA236079   1.593   5.835   6.213  0.7457  0.3593 -0.7241
 1444THY    CP136080   1.676   5.963   6.226  0.3678 -0.0491 -0.0240
 1444THY    HP136081   1.631   6.025   6.305 -0.0514 -1.2290  0.6854
 1444THY    CP236082   1.827   5.938   6.252 -0.9479  0.2977  0.0015
 1444THY    HP236083   1.861   5.879   6.165  0.4420 -0.5078  1.0424
 1444THY    HP336084   1.881   6.033   6.260  0.7294 -0.6009 -0.0844
 1444THY    HP436085   1.842   5.873   6.339  0.8454 -0.6904 -0.9544
 1444THY    CP336086   1.668   6.050   6.099  0.2949 -0.4398  0.0451
 1444THY    HP536087   1.565   6.078   6.076  0.3749  0.3850  0.6595
 1444THY    HP636088   1.722   6.142   6.124  1.9087 -0.2765 -3.4907
 1444THY    HP736089   1.721   6.002   6.015  2.4614  0.9938  0.5104
 1444THY    CA336090   1.610   5.748   6.104 -0.1582 -0.6858 -0.4194
 1444THY    HA336091   1.687   5.774   6.031  1.4376  1.0172  1.7545
 1444THY    CA436092   1.545   5.626   6.091 -0.1397 -0.6344  0.5140
 1444THY    HA436093   1.569   5.569   6.002  1.3140 -0.3960  0.7190
 1444THY    CA536094   1.454   5.589   6.186  0.1046 -0.0842 -0.3190
 1444THY    CM136095   1.379   5.462   6.157  0.4035  0.3497  0.0700
 1444THY    HM136096   1.399   5.391   6.238  0.2727  0.4767  0.2130
 1444THY    HM236097   1.270   5.478   6.155  0.5724  1.8322  0.9867
 1444THY    HM336098   1.415   5.425   6.061  0.4982  0.7006 -0.0301
 1444THY    CA636099   1.427   5.678   6.302  0.2403  1.0221  1.0183
 1444THY    HA636100   1.362   5.646   6.382 -0.7310  1.9110  0.6003
 1445THY      O36101   3.329   6.350   5.654 -0.0927  0.2281 -0.0034
 1445THY     HO36102   3.385   6.327   5.730 -0.4533 -1.3404 -0.1793
 1445THY    CA136103   3.280   6.233   5.612  0.0364 -0.2155 -0.3059
 1445THY    CA236104   3.184   6.230   5.510 -0.4424 -0.8664 -0.5466
 1445THY    CP136105   3.122   6.364   5.461  0.2400  0.8774  0.1807
 1445THY    HP136106   3.152   6.446   5.527  0.7499  0.6202  0.2722
 1445THY    CP236107   3.149   6.389   5.306  0.1233  0.0630 -0.5368
 1445THY    HP236108   3.117   6.490   5.278 -0.8243  0.7241  2.5446
 1445THY    HP336109   3.253   6.380   5.273 -0.4148 -3.4874 -1.7492
 1445THY    HP436110   3.098   6.312   5.246 -3.4542  0.4653  1.6981
 1445THY    CP336111   2.970   6.376   5.471 -0.1896  0.3467 -0.5321
 1445THY    HP536112   2.932   6.332   5.563  0.1956 -0.9835 -0.9940
 1445THY    HP636113   2.930   6.477   5.457 -0.0479  0.6726  1.1984
 1445THY    HP736114   2.911   6.321   5.398 -1.8809 -1.9803  2.3552
 1445THY    CA336115   3.132   6.108   5.464 -0.5091  0.6516 -0.0138
 1445THY    HA336116   3.051   6.108   5.391 -1.0305  0.3394  0.5475
 1445THY    CA436117   3.179   5.993   5.509 -0.0772  0.2365 -0.4670
 1445THY    HA436118   3.142   5.897   5.474  0.5380 -0.2440  0.1536
 1445THY    CA536119   3.273   5.995   5.616  0.2399  0.3173 -0.4701
 1445THY    CM136120   3.322   5.866   5.688  0.0063  0.0064  0.1409
 1445THY    HM136121   3.421   5.840   5.648 -0.3786  0.1770 -0.9799
 1445THY    HM236122   3.323   5.869   5.797  1.3959  0.0313  0.1409
 1445THY    HM336123   3.262   5.778   5.664  2.6633 -2.0804  0.6997
 1445THY    CA636124   3.329   6.114   5.661 -0.4125  0.6929  0.3933
 1445THY    HA636125   3.400   6.112   5.743 -2.8927  1.0342  2.6667
 1446THY      O36126   5.358   1.848   7.287 -0.2372  1.1109  0.2372
 1446THY     HO36127   5.355   1.908   7.211  0.5824  0.4848 -0.3067
 1446THY    CA136128   5.242   1.779   7.286  1.0259 -0.4000 -0.8984
 1446THY    CA236129   5.175   1.706   7.396  0.6460  0.1392  0.0933
 1446THY    CP136130   5.245   1.676   7.529 -0.2967  0.0590  1.6658
 1446THY    HP136131   5.342   1.726   7.531 -0.7176  1.2686 -1.5198
 1446THY    CP236132   5.169   1.738   7.647 -0.1140  0.1952  0.1340
 1446THY    HP236133   5.229   1.712   7.736  0.9797 -1.9350 -1.1232
 1446THY    HP336134   5.160   1.845   7.627  2.0766  0.4394  0.1575
 1446THY    HP436135   5.077   1.681   7.663  0.3240 -1.1710 -1.8773
 1446THY    CP336136   5.270   1.528   7.551  0.0211 -0.1869 -0.2747
 1446THY    HP536137   5.352   1.493   7.487 -0.4857 -1.0867 -0.4563
 1446THY    HP636138   5.305   1.501   7.651  1.1923 -0.8421 -0.8305
 1446THY    HP736139   5.180   1.466   7.539 -1.2230  1.3574  0.7275
 1446THY    CA336140   5.050   1.646   7.373 -0.1597  1.2263  0.6472
 1446THY    HA336141   5.007   1.580   7.449  0.1238 -0.7311 -0.8076
 1446THY    CA436142   4.986   1.667   7.247 -0.5083 -0.4494  0.4157
 1446THY    HA436143   4.899   1.607   7.224 -1.4903  1.1347 -0.0948
 1446THY    CA536144   5.039   1.753   7.155 -0.0155 -0.9701  0.4669
 1446THY    CM136145   4.954   1.788   7.036 -0.4412 -0.4746 -0.0067
 1446THY    HM136146   4.936   1.896   7.037  0.9538 -0.2189  1.7693
 1446THY    HM236147   5.008   1.772   6.941 -1.3690 -1.3907 -0.3986
 1446THY    HM336148   4.854   1.744   7.031 -0.5776 -0.0658 -1.5683
 1446THY    CA636149   5.160   1.811   7.176  0.0967 -0.6882  0.0693
 1446THY    HA636150   5.194   1.882   7.101 -1.2158  0.7282  0.7629
 1447THY      O36151   6.762   3.922   5.912  0.0026 -0.4855 -0.3022
 1447THY     HO36152   6.838   3.928   5.973  1.4109 -1.2698 -1.8994
 1447THY    CA136153   6.647   3.915   5.984  0.4170  0.1600  0.1350
 1447THY    CA236154   6.524   3.946   5.927  0.3333  0.1757  0.1129
 1447THY    CP136155   6.520   3.996   5.780 -0.4984  0.4143 -0.1354
 1447THY    HP136156   6.617   3.978   5.733  0.9991  1.2220  2.4373
 1447THY    CP236157   6.414   3.930   5.696  0.2993  0.0271 -0.2454
 1447THY    HP236158   6.410   3.972   5.595  1.6682  1.8287  0.3978
 1447THY    HP336159   6.444   3.825   5.689  1.5609  0.4238 -1.1375
 1447THY    HP436160   6.315   3.941   5.741 -0.0908 -1.3118 -0.7391
 1447THY    CP336161   6.492   4.146   5.781 -0.3379  0.3591 -0.3500
 1447THY    HP536162   6.426   4.184   5.859 -0.0393  3.5296 -1.4840
 1447THY    HP636163   6.589   4.191   5.807 -0.4744  1.1075 -1.0858
 1447THY    HP736164   6.448   4.183   5.688 -1.3582 -1.2166 -0.5379
 1447THY    CA336165   6.409   3.928   6.012 -0.4351 -0.3572  0.2367
 1447THY    HA336166   6.308   3.952   5.982 -0.0234 -0.0870 -0.9935
 1447THY    CA436167   6.427   3.884   6.146 -0.6189 -0.5398  0.0989
 1447THY    HA436168   6.337   3.870   6.205 -0.9640  1.6914  0.2027
 1447THY    CA536169   6.550   3.842   6.192 -0.2924  0.1030 -0.0208
 1447THY    CM136170   6.573   3.789   6.332 -0.0660 -0.2177  0.1278
 1447THY    HM136171   6.592   3.681   6.330 -0.6459 -0.3264  0.0286
 1447THY    HM236172   6.640   3.846   6.397  0.9905 -2.2765  0.9472
 1447THY    HM336173   6.485   3.789   6.398 -0.2509  0.0186 -0.1161
 1447THY    CA636174   6.659   3.856   6.107  0.5004 -0.1598 -0.1791
 1447THY    HA636175   6.757   3.832   6.147  0.0002  0.2027  1.3353
 1448THY      O36176   1.897   7.736   4.652 -0.1008  0.4243 -0.1325
 1448THY     HO36177   1.988   7.749   4.620  0.3130 -1.2605  0.2929
 1448THY    CA136178   1.903   7.740   4.788 -0.4154  0.5666  0.0671
 1448THY    CA236179   1.822   7.673   4.879 -0.6554  0.4700 -0.1666
 1448THY    CP136180   1.692   7.607   4.836  0.3762  0.3231  0.8937
 1448THY    HP136181   1.634   7.689   4.792 -0.6442  1.2146  3.6592
 1448THY    CP236182   1.731   7.502   4.726 -0.6330  0.0555  0.5668
 1448THY    HP236183   1.768   7.545   4.633  0.0193 -0.7394  0.4433
 1448THY    HP336184   1.797   7.421   4.760  2.3276  1.2636 -1.8588
 1448THY    HP436185   1.643   7.446   4.689  0.6758 -1.6286 -0.1330
 1448THY    CP336186   1.617   7.525   4.942 -0.4769  0.0089  0.3117
 1448THY    HP536187   1.675   7.437   4.974  2.8034  1.6093 -0.7777
 1448THY    HP636188   1.587   7.592   5.024 -2.7774 -0.1426 -0.3331
 1448THY    HP736189   1.516   7.498   4.908 -0.2675 -0.2605 -0.1070
 1448THY    CA336190   1.864   7.652   5.013  0.2206 -0.1778  0.8097
 1448THY    HA336191   1.809   7.584   5.078  1.4306 -1.8275  0.1638
 1448THY    CA436192   1.982   7.718   5.047 -0.4422  0.6770  0.6212
 1448THY    HA436193   2.015   7.703   5.150 -0.7230 -1.9978  0.4130
 1448THY    CA536194   2.055   7.799   4.963  0.0156  0.3997 -0.4579
 1448THY    CM136195   2.187   7.858   5.009 -0.2166  0.8971  0.5180
 1448THY    HM136196   2.173   7.966   5.012  0.0543  0.9286  0.7227
 1448THY    HM236197   2.203   7.826   5.113 -2.2878 -2.1225  0.0487
 1448THY    HM336198   2.272   7.836   4.943 -0.8809  0.3407 -0.1741
 1448THY    CA636199   2.018   7.802   4.832  0.2129 -0.7891 -0.1776
 1448THY    HA636200   2.085   7.861   4.770  1.7146 -0.9274  1.2285
 1449THY      O36201   5.419   9.845   6.940  0.6460  0.3284  0.1978
 1449THY     HO36202   5.365   9.918   6.905  0.1107 -0.5450 -0.8893
 1449THY    CA136203   5.550   9.881   6.928 -1.3874  0.7967 -0.0480
 1449THY    CA236204   5.659   9.794   6.960 -0.4101  0.5313 -0.3143
 1449THY    CP136205   5.635   9.654   7.023  0.3530  0.2760 -0.0455
 1449THY    HP136206   5.532   9.650   7.060  0.4299 -0.8129  0.0901
 1449THY    CP236207   5.648   9.547   6.912  0.3160 -0.3254  0.0835
 1449THY    HP236208   5.618   9.451   6.956 -0.6913  0.8545  2.0896
 1449THY    HP336209   5.579   9.580   6.832  0.8995  3.5377  0.9942
 1449THY    HP436210   5.754   9.537   6.889  0.6296 -0.7717  1.6468
 1449THY    CP336211   5.730   9.625   7.143  0.3276 -0.3586  0.0671
 1449THY    HP536212   5.830   9.591   7.113 -0.8570 -3.3061 -0.8911
 1449THY    HP636213   5.725   9.711   7.211 -0.8661  0.6614 -1.2332
 1449THY    HP736214   5.696   9.533   7.191 -0.5750  0.6018  1.3323
 1449THY    CA336215   5.793   9.827   6.932  0.4915 -0.0879  0.2762
 1449THY    HA336216   5.875   9.765   6.967  0.1106 -0.0505  1.2756
 1449THY    CA436217   5.825   9.957   6.895 -0.0087 -0.3875 -0.2091
 1449THY    HA436218   5.929   9.989   6.894  0.7631 -2.7593 -0.7527
 1449THY    CA536219   5.722  10.041   6.864  0.4464  0.1565  0.0263
 1449THY    CM136220   5.744  10.183   6.835  0.4779 -0.0979 -0.4427
 1449THY    HM136221   5.836  10.222   6.880  0.3071 -1.1561  0.8656
 1449THY    HM236222   5.764  10.192   6.728  2.1678  1.2479 -0.0729
 1449THY    HM336223   5.662  10.249   6.867 -1.4603 -1.5276 -2.2220
 1449THY    CA636224   5.586  10.008   6.886  0.3244 -0.1629  0.9670
 1449THY    HA636225   5.512  10.078   6.848  0.5121 -0.4632  0.0243
 1450THY      O36226   3.046   2.875   2.060 -0.5578 -0.0838 -0.3109
 1450THY     HO36227   3.022   2.800   2.117 -0.5295  0.1273 -0.0200
 1450THY    CA136228   2.953   2.972   2.079  0.5881 -0.3154 -0.6241
 1450THY    CA236229   2.940   3.080   1.988  0.1198 -0.0471  0.9683
 1450THY    CP136230   3.022   3.098   1.863  0.2409  0.4313 -0.1557
 1450THY    HP136231   3.079   3.007   1.846 -0.0379 -0.1098  1.5475
 1450THY    CP236232   2.936   3.120   1.735 -0.1284  0.7775  0.6438
 1450THY    HP236233   2.855   3.047   1.739 -0.7227  1.3391 -0.4236
 1450THY    HP336234   2.894   3.221   1.728  0.9966  1.2335  0.2042
 1450THY    HP436235   2.993   3.095   1.644  1.3080 -3.2240  2.4429
 1450THY    CP336236   3.113   3.218   1.862 -0.9969  0.1954  0.2125
 1450THY    HP536237   3.191   3.216   1.940  0.5673  1.2096 -1.2470
 1450THY    HP636238   3.155   3.228   1.761 -0.2570 -0.5637  0.4336
 1450THY    HP736239   3.066   3.316   1.878  0.2885  1.1121 -1.2515
 1450THY    CA336240   2.845   3.184   2.020  0.3942  0.0976  1.1005
 1450THY    HA336241   2.834   3.278   1.965  0.2834 -1.2739 -1.3796
 1450THY    CA436242   2.763   3.167   2.134 -0.5560 -0.3946 -0.3944
 1450THY    HA436243   2.692   3.243   2.165  0.4153  0.5603 -0.4329
 1450THY    CA536244   2.780   3.057   2.216  1.0107  0.7571  0.0255
 1450THY    CM136245   2.691   3.025   2.323 -0.2376 -0.0512 -0.6201
 1450THY    HM136246   2.590   3.051   2.289 -0.6423  1.3076  1.4609
 1450THY    HM236247   2.685   2.920   2.354 -0.5741  0.2020  0.2157
 1450THY    HM336248   2.718   3.087   2.409  0.2326  0.1762 -0.9315
 1450THY    CA636249   2.867   2.957   2.185  0.0337 -0.2495 -0.3751
 1450THY    HA636250   2.881   2.873   2.252  1.1125  0.1182 -0.1320
 1451THY      O36251   0.689   5.521   9.844 -0.6721 -0.0118  0.1111
 1451THY     HO36252   0.729   5.563   9.766  1.2111 -0.2007  0.9394
 1451THY    CA136253   0.740   5.397   9.850 -0.2830  0.0849  0.3310
 1451THY    CA236254   0.753   5.330   9.972  0.4356 -0.5212 -0.2366
 1451THY    CP136255   0.714   5.406  10.104 -0.3092  0.3899  0.2816
 1451THY    HP136256   0.630   5.475  10.087 -0.1481  0.2378 -1.2431
 1451THY    CP236257   0.667   5.308  10.219  0.7765  0.1831 -0.8214
 1451THY    HP236258   0.622   5.367  10.300  0.4535  0.7096 -1.3765
 1451THY    HP336259   0.583   5.254  10.173 -0.7443  0.3946  1.5117
 1451THY    HP436260   0.738   5.238  10.265  0.6130  1.6785  1.9084
 1451THY    CP336261   0.830   5.489  10.168  0.2717  0.0287 -0.5893
 1451THY    HP536262   0.841   5.588  10.121 -0.2870  1.0470  1.3361
 1451THY    HP636263   0.813   5.509  10.274  1.0404 -1.1444 -0.2293
 1451THY    HP736264   0.924   5.434  10.156  1.1292  1.4439 -0.6073
 1451THY    CA336265   0.805   5.203   9.965  0.0526 -0.5255 -0.6173
 1451THY    HA336266   0.825   5.156  10.061  0.1892  1.6867  0.5068
 1451THY    CA436267   0.839   5.145   9.847 -0.8354  0.2073  0.3815
 1451THY    HA436268   0.878   5.044   9.852  0.3131  0.6735  1.3313
 1451THY    CA536269   0.825   5.214   9.724  0.3183 -0.4706 -0.6337
 1451THY    CM136270   0.866   5.150   9.592 -0.2425 -1.2026  0.4775
 1451THY    HM136271   0.957   5.193   9.548 -1.0311  2.0524  1.7579
 1451THY    HM236272   0.876   5.041   9.597 -0.4066 -1.2700 -0.4399
 1451THY    HM336273   0.783   5.174   9.525 -0.9429 -1.1480  1.3499
 1451THY    CA636274   0.772   5.339   9.728  0.3509  0.0782 -0.2395
 1451THY    HA636275   0.750   5.386   9.632  3.6032  0.8635 -0.7121
 1452THY      O36276   4.202   4.730   9.360 -0.1331  0.3507  0.1696
 1452THY     HO36277   4.147   4.810   9.368 -0.4485 -0.0168  2.1025
 1452THY    CA136278   4.274   4.768   9.256 -0.3474 -0.7084 -0.3795
 1452THY    CA236279   4.373   4.686   9.202  0.0208  0.1564  0.1003
 1452THY    CP136280   4.397   4.551   9.269 -0.2340 -0.3072  0.0045
 1452THY    HP136281   4.316   4.512   9.331  0.1200 -0.0969  0.6075
 1452THY    CP236282   4.424   4.435   9.173 -0.2663  0.3359 -0.2579
 1452THY    HP236283   4.526   4.439   9.133 -0.2180 -0.0172 -0.1749
 1452THY    HP336284   4.421   4.337   9.222 -0.6912  0.1248 -0.6986
 1452THY    HP436285   4.342   4.458   9.104 -3.2915 -0.6092  2.7534
 1452THY    CP336286   4.523   4.564   9.354 -0.4147  0.6309 -0.4561
 1452THY    HP536287   4.556   4.466   9.390 -1.3100  0.0076 -1.2800
 1452THY    HP636288   4.612   4.608   9.306 -0.6363  1.1617 -0.3825
 1452THY    HP736289   4.496   4.628   9.438  0.8162  1.8603 -0.9655
 1452THY    CA336290   4.435   4.727   9.081 -0.4928 -0.0934  0.9587
 1452THY    HA336291   4.519   4.671   9.039  0.1824  1.2924  0.3987
 1452THY    CA436292   4.412   4.855   9.031  0.5652  0.1861  0.0273
 1452THY    HA436293   4.463   4.895   8.944 -0.4796  0.6127 -0.4149
 1452THY    CA536294   4.317   4.941   9.093  0.0579 -0.8181  0.0313
 1452THY    CM136295   4.285   5.084   9.038 -0.2900 -1.0929 -0.3972
 1452THY    HM136296   4.271   5.083   8.929  2.7822  1.4376 -0.9696
 1452THY    HM236297   4.201   5.135   9.086 -0.5037 -1.7191 -0.0986
 1452THY    HM336298   4.372   5.148   9.058 -0.5425 -0.2178 -1.9315
 1452THY    CA636299   4.246   4.894   9.203  0.3090  0.1169 -0.6112
 1452THY    HA636300   4.173   4.961   9.249 -1.4843  1.9581 -5.4770
 1453THY      O36301   5.402   7.509   3.416  0.6081  0.1069 -0.3849
 1453THY     HO36302   5.372   7.429   3.462  0.2046  0.6477  0.3095
 1453THY    CA136303   5.515   7.537   3.482 -0.1810 -0.5906  0.3293
 1453THY    CA236304   5.582   7.661   3.460 -0.6649  0.3783  0.0616
 1453THY    CP136305   5.521   7.765   3.366  0.3942  0.2099  0.2061
 1453THY    HP136306   5.412   7.760   3.375  0.4510 -0.2791  0.6892
 1453THY    CP236307   5.554   7.912   3.401  0.2320  0.2683 -0.6564
 1453THY    HP236308   5.518   7.927   3.503  0.7127  1.1406 -0.6077
 1453THY    HP336309   5.663   7.922   3.416  0.0680  0.7403  0.2667
 1453THY    HP436310   5.519   7.980   3.322 -0.5076  0.9592  0.2525
 1453THY    CP336311   5.555   7.727   3.218  0.2829 -0.0259 -0.2994
 1453THY    HP536312   5.504   7.791   3.146 -0.1207 -0.0255 -0.0181
 1453THY    HP636313   5.662   7.718   3.200 -0.0977 -3.1533 -1.7569
 1453THY    HP736314   5.518   7.624   3.212 -1.0531  0.4279 -0.1917
 1453THY    CA336315   5.708   7.686   3.522  0.5483  0.3523 -0.0918
 1453THY    HA336316   5.774   7.771   3.511 -1.8561  2.2972 -0.2882
 1453THY    CA436317   5.756   7.584   3.612 -0.0528 -0.7241 -0.4133
 1453THY    HA436318   5.851   7.598   3.663 -0.6885  2.7948  0.0614
 1453THY    CA536319   5.694   7.459   3.621 -0.2309  0.4672 -0.2340
 1453THY    CM136320   5.737   7.341   3.699  0.6085 -0.9838  0.2001
 1453THY    HM136321   5.665   7.322   3.780 -0.4627  2.1072  0.1134
 1453THY    HM236322   5.755   7.270   3.618 -0.7042 -1.8266  0.6123
 1453THY    HM336323   5.828   7.372   3.752 -0.3390 -0.2109  1.4629
 1453THY    CA636324   5.569   7.445   3.563 -0.1956  0.0635 -0.1329
 1453THY    HA636325   5.520   7.350   3.583 -1.4622  1.1930  2.6561
 1454THY      O36326   2.440   1.934   7.933  0.2374 -0.3950 -0.1672
 1454THY     HO36327   2.512   1.886   7.977 -0.2489 -1.3061 -0.3486
 1454THY    CA136328   2.327   1.861   7.959  0.4954 -0.3375  0.3103
 1454THY    CA236329   2.200   1.888   7.901 -0.0419 -1.0935  0.2290
 1454THY    CP136330   2.192   1.991   7.796 -0.1366 -0.0093  0.1673
 1454THY    HP136331   2.272   2.067   7.796 -0.1677  0.0309  0.7942
 1454THY    CP236332   2.208   1.914   7.667  0.3231 -1.1777 -0.0349
 1454THY    HP236333   2.129   1.839   7.663  1.9570 -3.0672  1.1345
 1454THY    HP336334   2.210   1.985   7.583 -0.3350  1.0109  1.6973
 1454THY    HP436335   2.308   1.870   7.670  0.5359 -0.9591 -2.2402
 1454THY    CP336336   2.059   2.061   7.792 -0.1661 -0.2176  0.1193
 1454THY    HP536337   2.064   2.116   7.887  0.1132  0.4343 -0.2654
 1454THY    HP636338   2.048   2.144   7.722 -1.1157  0.6523  1.2428
 1454THY    HP736339   1.966   2.003   7.796  0.4151 -1.1089  1.1328
 1454THY    CA336340   2.086   1.814   7.939  1.0202 -0.8490  0.1421
 1454THY    HA336341   1.985   1.822   7.899  0.2794 -1.4282  1.7918
 1454THY    CA436342   2.100   1.729   8.049  0.2039  0.1190  0.6280
 1454THY    HA436343   2.019   1.666   8.085  1.2330 -1.3834  0.3927
 1454THY    CA536344   2.224   1.696   8.098 -0.0536  0.5831  0.1575
 1454THY    CM136345   2.242   1.585   8.207 -0.5257  0.1941  0.0268
 1454THY    HM136346   2.350   1.578   8.226 -0.7304  0.8847  1.6305
 1454THY    HM236347   2.203   1.618   8.304 -0.2849  1.2996 -0.2394
 1454THY    HM336348   2.198   1.489   8.177 -2.6187  1.5411 -1.3824
 1454THY    CA636349   2.339   1.753   8.043 -0.2868 -0.2211  0.6801
 1454THY    HA636350   2.435   1.727   8.087 -0.7313 -2.3741  0.4671
 1455THY      O36351   1.735   3.811   7.233  0.5369 -0.2654 -0.1317
 1455THY     HO36352   1.724   3.881   7.299 -2.5297 -0.7014 -0.0342
 1455THY    CA136353   1.853   3.830   7.171  0.1011  1.0277  0.0340
 1455THY    CA236354   1.886   3.748   7.060  0.0036 -0.3576  0.5541
 1455THY    CP136355   1.780   3.649   7.007  0.2702  0.0431 -0.3570
 1455THY    HP136356   1.710   3.631   7.089  0.4359 -2.6262 -0.7287
 1455THY    CP236357   1.710   3.715   6.883  0.1123  0.3467  0.0046
 1455THY    HP236358   1.609   3.675   6.877  0.1794  0.3091 -1.1240
 1455THY    HP336359   1.707   3.824   6.896  2.9709  0.7267 -1.6376
 1455THY    HP436360   1.762   3.702   6.788 -1.7188 -2.4222 -0.7303
 1455THY    CP336361   1.828   3.508   6.978 -0.4995  0.2000  0.2731
 1455THY    HP536362   1.908   3.507   6.902 -0.6325 -0.2057  0.1316
 1455THY    HP636363   1.874   3.464   7.067 -1.6761  1.5726  1.5899
 1455THY    HP736364   1.741   3.449   6.947  1.0421 -0.9935 -2.1818
 1455THY    CA336365   2.005   3.774   6.987  0.7714  0.8042  0.1944
 1455THY    HA336366   2.016   3.716   6.896  0.3683 -0.2144  0.7703
 1455THY    CA436367   2.080   3.876   7.027  0.0772 -0.5916  0.3474
 1455THY    HA436368   2.171   3.880   6.968  0.5971  0.1597  1.1742
 1455THY    CA536369   2.044   3.966   7.129  0.0978 -0.9542 -0.1907
 1455THY    CM136370   2.135   4.088   7.155 -0.3217  0.3901 -0.5154
 1455THY    HM136371   2.082   4.169   7.206 -0.8282 -0.2069 -0.0713
 1455THY    HM236372   2.225   4.056   7.209 -1.2499 -1.5572 -0.0486
 1455THY    HM336373   2.172   4.133   7.062  1.4824 -1.0275 -0.5434
 1455THY    CA636374   1.938   3.933   7.215  1.2159 -0.7496 -0.3076
 1455THY    HA636375   1.918   4.004   7.295  0.8029 -0.6136 -0.5330
 1456THY      O36376   3.586   4.967   7.105 -0.0077 -0.6638 -0.0650
 1456THY     HO36377   3.635   4.884   7.115 -1.9903 -1.6665  2.5677
 1456THY    CA136378   3.473   4.942   7.168 -0.5528  0.1733 -0.1032
 1456THY    CA236379   3.361   5.029   7.152 -0.1079  0.0633 -0.0581
 1456THY    CP136380   3.370   5.162   7.079 -0.1864 -0.8703 -0.0302
 1456THY    HP136381   3.454   5.161   7.009  1.0163  0.3683  1.3438
 1456THY    CP236382   3.251   5.184   6.982  0.0888 -0.2825 -0.5179
 1456THY    HP236383   3.164   5.201   7.046  0.8308 -3.0009  1.3900
 1456THY    HP336384   3.275   5.272   6.921  0.3464 -0.5375 -0.7875
 1456THY    HP436385   3.249   5.091   6.924  1.3606 -0.8904  0.3599
 1456THY    CP336386   3.394   5.285   7.172 -0.2932 -0.7221 -0.7577
 1456THY    HP536387   3.331   5.293   7.261  1.4431  0.1005  0.4643
 1456THY    HP636388   3.503   5.291   7.185 -0.1845  0.0629 -1.9147
 1456THY    HP736389   3.368   5.380   7.125  1.6317  0.0053 -0.4535
 1456THY    CA336390   3.236   4.987   7.211 -0.2362 -0.4080  0.2381
 1456THY    HA336391   3.156   5.060   7.218  0.1852  0.1160 -0.3115
 1456THY    CA436392   3.232   4.867   7.289  0.1151  0.1849  0.1469
 1456THY    HA436393   3.141   4.832   7.336  1.3049 -1.3065  1.4337
 1456THY    CA536394   3.351   4.785   7.304 -0.0430  0.5503  1.1462
 1456THY    CM136395   3.326   4.664   7.379 -0.3692  0.5000 -0.2468
 1456THY    HM136396   3.234   4.619   7.339 -1.3074  2.8193 -0.8653
 1456THY    HM236397   3.410   4.595   7.366  0.2922  1.3742 -0.6946
 1456THY    HM336398   3.299   4.684   7.484 -0.5799 -0.0162 -0.1995
 1456THY    CA636399   3.473   4.827   7.248  0.1662 -0.3287  0.5596
 1456THY    HA636400   3.557   4.758   7.245 -0.9143 -1.6353 -1.0777
 1457THY      O36401   1.971   3.279   0.296 -0.0011  0.1741  0.3507
 1457THY     HO36402   2.053   3.323   0.267  0.4296  0.1757  1.5033
 1457THY    CA136403   2.009   3.194   0.395 -0.6070  0.7977  0.0172
 1457THY    CA236404   1.925   3.170   0.505 -0.4934  0.1369 -0.3505
 1457THY    CP136405   1.785   3.218   0.506  0.6684 -0.2190  0.8210
 1457THY    HP136406   1.778   3.311   0.448 -1.2332 -0.9360 -0.2311
 1457THY    CP236407   1.706   3.111   0.430  0.6291 -0.0357 -0.8473
 1457THY    HP236408   1.746   3.090   0.330 -0.4293 -0.0923 -1.2708
 1457THY    HP336409   1.699   3.015   0.483  0.3782 -1.7296 -3.7108
 1457THY    HP436410   1.606   3.155   0.427  1.0639  1.2006  1.0458
 1457THY    CP336411   1.729   3.238   0.639  0.2304 -0.3963  0.1743
 1457THY    HP536412   1.703   3.152   0.702  0.9332 -1.3754 -0.8384
 1457THY    HP636413   1.804   3.303   0.686  0.7823 -1.1353  0.3196
 1457THY    HP736414   1.633   3.293   0.640  0.6471  0.3464  0.5094
 1457THY    CA336415   1.980   3.099   0.619  0.3337  0.6487  0.3904
 1457THY    HA336416   1.923   3.089   0.711  1.4783 -1.0116  0.9734
 1457THY    CA436417   2.108   3.045   0.610  0.5503  0.2703 -0.2687
 1457THY    HA436418   2.154   3.000   0.697  1.4450  1.1350 -0.2785
 1457THY    CA536419   2.187   3.072   0.495 -0.7632  0.4812 -0.3656
 1457THY    CM136420   2.325   3.010   0.481  0.1003 -0.2504  0.2070
 1457THY    HM136421   2.367   3.045   0.386  0.8106  0.3138  0.7149
 1457THY    HM236422   2.396   3.056   0.552  0.4189  1.9088 -1.4161
 1457THY    HM336423   2.343   2.902   0.490 -0.0358 -0.2331  0.7199
 1457THY    CA636424   2.146   3.147   0.389  0.1536  0.3698  0.1651
 1457THY    HA636425   2.215   3.159   0.306  1.0765 -2.0144  0.4971
 1458THY      O36426   9.197   1.344   5.685  0.2849  0.3505  0.1889
 1458THY     HO36427   9.274   1.370   5.738  0.0857  1.1913  0.0810
 1458THY    CA136428   9.097   1.382   5.766  0.3184  0.3693  0.2551
 1458THY    CA236429   8.963   1.384   5.717 -0.3910  0.3081 -0.3779
 1458THY    CP136430   8.946   1.366   5.572  0.1937  0.5427  0.8696
 1458THY    HP136431   9.018   1.297   5.527 -1.5364 -2.3257  2.2310
 1458THY    CP236432   8.823   1.280   5.525 -0.5607 -0.0941 -0.1739
 1458THY    HP236433   8.730   1.334   5.547 -0.4874 -0.3026  0.7079
 1458THY    HP336434   8.811   1.253   5.420 -1.4924 -1.3404  0.2229
 1458THY    HP436435   8.823   1.190   5.589  0.9546 -0.5466 -0.7682
 1458THY    CP336436   8.935   1.498   5.496  0.1138  0.0643 -0.2913
 1458THY    HP536437   8.853   1.566   5.524 -0.0536  0.3392 -1.4102
 1458THY    HP636438   9.025   1.557   5.518 -0.8963  1.8958 -0.8051
 1458THY    HP736439   8.941   1.492   5.387  2.5867 -1.2225 -0.1320
 1458THY    CA336440   8.862   1.418   5.799  0.2552 -0.5071  0.5177
 1458THY    HA336441   8.760   1.429   5.763  0.7568  0.3165 -0.7395
 1458THY    CA436442   8.895   1.450   5.926  0.1567  0.3269 -0.3266
 1458THY    HA436443   8.814   1.475   5.994 -0.1496  1.9996 -1.2587
 1458THY    CA536444   9.028   1.441   5.978  0.6981 -0.0066  0.5127
 1458THY    CM136445   9.057   1.478   6.117  0.2960  0.1900 -0.1925
 1458THY    HM136446   9.160   1.514   6.115  0.3358  0.0747 -0.1607
 1458THY    HM236447   8.979   1.548   6.151 -1.2846 -0.9328 -1.3314
 1458THY    HM336448   9.048   1.391   6.182  0.2875 -1.7086 -2.5974
 1458THY    CA636449   9.129   1.404   5.895  0.2249 -0.6021 -0.0102
 1458THY    HA636450   9.233   1.393   5.922  0.8367 -0.8924 -2.2323
 1459THY      O36451   2.720   8.776   8.055 -0.0403  0.4367 -0.4684
 1459THY     HO36452   2.705   8.680   8.065  0.8803  0.5428  3.1402
 1459THY    CA136453   2.608   8.847   8.042 -0.4378  0.9916 -0.2046
 1459THY    CA236454   2.604   8.963   7.975  0.0682  0.3481  0.0485
 1459THY    CP136455   2.729   9.020   7.900  0.3787 -0.2865 -0.2713
 1459THY    HP136456   2.789   8.934   7.868 -0.7530 -0.8266 -1.0154
 1459THY    CP236457   2.701   9.083   7.770 -0.9458 -0.4483  0.1739
 1459THY    HP236458   2.642   9.017   7.705  1.4163 -1.0625 -1.5055
 1459THY    HP336459   2.638   9.172   7.784 -1.4197 -0.9518  1.2918
 1459THY    HP436460   2.798   9.116   7.731 -0.9183  1.2375  1.5848
 1459THY    CP336461   2.804   9.116   7.985 -0.6490  0.7196  0.2490
 1459THY    HP536462   2.906   9.134   7.949  0.2471 -0.6387  1.9762
 1459THY    HP636463   2.758   9.215   7.987 -0.1093  0.9671  1.0177
 1459THY    HP736464   2.831   9.080   8.085  2.8094  2.3342  0.0440
 1459THY    CA336465   2.485   9.035   7.979  0.1902 -0.3519  0.2360
 1459THY    HA336466   2.466   9.134   7.939 -0.7027  0.1362  1.7566
 1459THY    CA436467   2.366   8.984   8.039 -0.2891  1.1652 -0.0245
 1459THY    HA436468   2.270   9.033   8.031 -0.6048  1.0484  2.3313
 1459THY    CA536469   2.378   8.865   8.107 -0.2774  0.0795  0.1939
 1459THY    CM136470   2.248   8.814   8.179  0.3241  0.3431 -0.4477
 1459THY    HM136471   2.246   8.856   8.280  0.4115  0.7188 -0.6027
 1459THY    HM236472   2.152   8.845   8.135 -0.7772 -0.6592  1.1102
 1459THY    HM336473   2.252   8.706   8.198 -0.4333  0.5189  0.8465
 1459THY    CA636474   2.497   8.792   8.108  0.1369 -0.9870 -0.3315
 1459THY    HA636475   2.499   8.693   8.150  1.9922 -1.0025 -0.3532
 1460THY      O36476   8.192   4.510   0.984 -0.4818  0.4109 -0.0654
 1460THY     HO36477   8.275   4.523   1.033  0.3339  0.1904 -1.3428
 1460THY    CA136478   8.093   4.589   1.034 -0.1857 -1.0741  0.0776
 1460THY    CA236479   7.981   4.628   0.962 -0.6133 -0.4044 -0.9575
 1460THY    CP136480   7.974   4.590   0.818 -0.3896  1.4850  0.0542
 1460THY    HP136481   8.073   4.599   0.771 -0.0858 -0.6317  0.1862
 1460THY    CP236482   7.937   4.445   0.785 -0.2568  0.1654 -0.0894
 1460THY    HP236483   7.835   4.431   0.823 -0.1593  3.2252  1.6677
 1460THY    HP336484   7.945   4.423   0.678 -0.1827  1.4437 -0.3621
 1460THY    HP436485   8.003   4.375   0.837  1.9231  2.8931  1.0806
 1460THY    CP336486   7.891   4.678   0.724  0.0863 -0.2909 -0.1460
 1460THY    HP536487   7.783   4.661   0.717  0.2616 -0.9690 -1.5823
 1460THY    HP636488   7.905   4.777   0.770  0.4815  0.1109 -1.1056
 1460THY    HP736489   7.936   4.682   0.624  1.2461 -3.3933  0.1291
 1460THY    CA336490   7.877   4.705   1.025  0.1039  0.8352 -0.3197
 1460THY    HA336491   7.791   4.754   0.980  0.1716  2.0610  0.7997
 1460THY    CA436492   7.902   4.730   1.166 -0.3471 -0.7178  0.1519
 1460THY    HA436493   7.833   4.793   1.222  0.0026 -0.8223  0.7030
 1460THY    CA536494   8.014   4.688   1.237 -0.6145  0.0261  0.2817
 1460THY    CM136495   8.040   4.718   1.381 -0.2633  0.6924 -0.2461
 1460THY    HM136496   7.964   4.660   1.435  0.0025 -0.6116 -1.2106
 1460THY    HM236497   8.144   4.691   1.401 -0.1824  0.0436 -1.4459
 1460THY    HM336498   8.023   4.825   1.397 -0.9919  0.4358  0.8215
 1460THY    CA636499   8.111   4.619   1.167 -0.1428  0.0323 -0.4657
 1460THY    HA636500   8.198   4.584   1.221 -1.3419  1.2355  2.5400
 1461THY      O36501   8.119   1.212   7.913  0.1603 -0.4919 -0.0200
 1461THY     HO36502   8.142   1.302   7.885 -0.7923 -0.8811 -2.3008
 1461THY    CA136503   7.988   1.195   7.887 -0.0529  0.0236 -0.1530
 1461THY    CA236504   7.940   1.073   7.826 -0.0090 -0.7194 -0.8237
 1461THY    CP136505   8.044   0.968   7.785 -0.7953 -0.0417 -0.3706
 1461THY    HP136506   8.146   1.004   7.767 -0.0338 -1.3098  1.2120
 1461THY    CP236507   8.055   0.870   7.899 -0.8503 -0.0861  0.2098
 1461THY    HP236508   8.137   0.803   7.870 -2.3529 -3.5866  3.3361
 1461THY    HP336509   8.089   0.923   7.988 -2.9620  1.3914  0.2188
 1461THY    HP436510   7.962   0.816   7.919 -1.6207  0.7405 -0.9864
 1461THY    CP336511   8.013   0.896   7.657 -0.4602  0.1714  0.4140
 1461THY    HP536512   8.026   0.973   7.581  0.3208 -0.9297 -0.5990
 1461THY    HP636513   8.084   0.814   7.642 -0.4273 -0.4343  3.2032
 1461THY    HP736514   7.908   0.865   7.658 -0.7451  1.0976  0.7540
 1461THY    CA336515   7.804   1.066   7.790  0.4777 -0.2595 -0.6922
 1461THY    HA336516   7.759   0.981   7.739 -0.1633 -0.1582 -0.3141
 1461THY    CA436517   7.718   1.178   7.809 -0.0261  0.1477  0.4813
 1461THY    HA436518   7.614   1.185   7.780  0.7004  0.9149 -2.1689
 1461THY    CA536519   7.771   1.289   7.879  0.6716  0.1042 -0.1433
 1461THY    CM136520   7.673   1.396   7.917  0.2626  0.2349  0.7804
 1461THY    HM136521   7.606   1.408   7.831 -0.9063 -1.3586  1.4162
 1461THY    HM236522   7.601   1.367   7.995 -0.3630 -3.2271 -0.8794
 1461THY    HM336523   7.727   1.482   7.957  0.0956  1.5241 -1.5629
 1461THY    CA636524   7.901   1.303   7.919  0.1725  0.5801 -0.6427
 1461THY    HA636525   7.935   1.384   7.982 -0.0073 -1.1956  1.8873
 1462THY      O36526   6.147   9.108   8.802  0.0084 -0.1500 -0.2064
 1462THY     HO36527   6.148   9.041   8.873  1.7204  2.1325  2.1662
 1462THY    CA136528   6.167   9.033   8.693  0.2341  0.9019  0.4446
 1462THY    CA236529   6.138   9.088   8.567  1.0078 -0.0470  0.2434
 1462THY    CP136530   6.119   9.236   8.554  0.0888  0.2822  0.2672
 1462THY    HP136531   6.081   9.267   8.652 -2.9877 -1.5318 -0.2385
 1462THY    CP236532   6.247   9.317   8.531 -0.6465  0.3993  0.4756
 1462THY    HP236533   6.297   9.297   8.436  0.2866 -1.1775  1.2553
 1462THY    HP336534   6.231   9.425   8.533  2.5236  0.9600  1.7420
 1462THY    HP436535   6.323   9.285   8.604 -2.1831  0.9455  2.4173
 1462THY    CP336536   6.005   9.286   8.471 -0.1442  0.3670  0.2403
 1462THY    HP536537   5.916   9.226   8.492 -0.6045  1.0096  0.1651
 1462THY    HP636538   5.988   9.392   8.494 -2.3851  0.3049 -0.8338
 1462THY    HP736539   6.039   9.283   8.366 -0.4964 -3.5635  0.0829
 1462THY    CA336540   6.127   8.994   8.457  0.1866 -0.0277 -0.4695
 1462THY    HA336541   6.116   9.032   8.356 -0.9381  1.8237  0.3053
 1462THY    CA436542   6.149   8.857   8.481  0.0973 -0.4864 -0.6476
 1462THY    HA436543   6.134   8.791   8.396  2.7238 -0.4981 -1.1745
 1462THY    CA536544   6.176   8.805   8.603  0.3685 -0.3150 -0.4282
 1462THY    CM136545   6.187   8.656   8.631 -0.0629  0.1293 -0.5416
 1462THY    HM136546   6.285   8.646   8.678 -1.1289 -0.9037  1.5840
 1462THY    HM236547   6.114   8.609   8.698 -0.4500  0.4418 -0.7410
 1462THY    HM336548   6.187   8.595   8.539  0.6380  0.6039 -0.8621
 1462THY    CA636549   6.189   8.895   8.711  0.7645 -0.5876  0.3812
 1462THY    HA636550   6.214   8.854   8.808 -0.5132 -0.7596  0.6575
 1463THY      O36551   9.496   7.273   9.685 -0.3514 -0.0955  0.3971
 1463THY     HO36552   9.455   7.331   9.752 -3.0943 -0.8189 -0.5260
 1463THY    CA136553   9.619   7.327   9.664  0.7650 -0.1603 -0.5296
 1463THY    CA236554   9.686   7.322   9.538 -0.8709 -0.4524  0.0820
 1463THY    CP136555   9.631   7.240   9.423  0.8481  0.3523  0.9709
 1463THY    HP136556   9.547   7.179   9.456  1.7428 -2.2413 -1.2146
 1463THY    CP236557   9.580   7.343   9.315 -0.2693 -0.1837  0.3865
 1463THY    HP236558   9.529   7.297   9.230 -1.5691  1.2340  0.3712
 1463THY    HP336559   9.508   7.414   9.357 -0.3580 -0.0912  0.0785
 1463THY    HP436560   9.667   7.396   9.276 -0.2350 -0.5529 -0.0476
 1463THY    CP336561   9.730   7.139   9.361  0.2068  0.5209  0.1774
 1463THY    HP536562   9.663   7.063   9.321 -0.9137  1.5815 -0.0422
 1463THY    HP636563   9.795   7.186   9.287  1.1928  0.5403  1.0418
 1463THY    HP736564   9.797   7.099   9.438  0.0546  0.8632  0.4956
 1463THY    CA336565   9.809   7.387   9.527  0.0924 -0.2782 -0.3037
 1463THY    HA336566   9.862   7.380   9.432  0.9102 -1.3164  0.2220
 1463THY    CA436567   9.863   7.451   9.640  0.8039 -0.2930 -0.0582
 1463THY    HA436568   9.963   7.493   9.637  1.1260 -1.0437  0.0022
 1463THY    CA536569   9.801   7.459   9.759  0.1240  0.5760  0.2566
 1463THY    CM136570   9.858   7.530   9.876 -0.3664  0.4491 -0.2544
 1463THY    HM136571   9.780   7.531   9.953 -0.0162  0.3528  0.1112
 1463THY    HM236572   9.947   7.474   9.910 -1.6756 -0.1107  2.6167
 1463THY    HM336573   9.895   7.625   9.836 -1.1796 -0.1373 -2.5527
 1463THY    CA636574   9.672   7.401   9.773 -0.2332  0.3928 -0.1769
 1463THY    HA636575   9.626   7.400   9.872  0.8042  1.1705  0.3407
 1464THY      O36576   0.231   0.237   4.208 -0.2095 -0.2833 -0.1390
 1464THY     HO36577   0.157   0.271   4.261  0.1364  0.6927 -0.2643
 1464THY    CA136578   0.326   0.209   4.290 -0.3340  0.1135 -0.4950
 1464THY    CA236579   0.450   0.157   4.236 -0.2808  0.0652  0.2854
 1464THY    CP136580   0.458   0.129   4.076  0.2423  0.2840  0.3906
 1464THY    HP136581   0.399   0.207   4.028  2.7878  1.5088 -0.9229
 1464THY    CP236582   0.603   0.126   4.040 -0.0786  0.4691  0.2934
 1464THY    HP236583   0.656   0.211   4.085  0.6202  0.2096 -0.0096
 1464THY    HP336584   0.647   0.028   4.058  0.1836  0.2434 -1.3442
 1464THY    HP436585   0.618   0.155   3.935  1.1931  1.3889  0.6964
 1464THY    CP336586   0.391  -0.007   4.050  0.2788  0.6065 -0.8548
 1464THY    HP536587   0.300  -0.019   4.109  0.8885 -0.6191 -0.1269
 1464THY    HP636588   0.373  -0.018   3.943 -1.3377 -1.5967 -0.4196
 1464THY    HP736589   0.448  -0.094   4.085 -1.3853 -0.7077 -1.2622
 1464THY    CA336590   0.540   0.098   4.328  0.0957  0.2378 -0.2515
 1464THY    HA336591   0.632   0.051   4.297  1.5214  0.6049  3.0412
 1464THY    CA436592   0.523   0.110   4.466 -0.4545 -0.4672 -0.3158
 1464THY    HA436593   0.607   0.069   4.521 -0.7210  0.5605  0.9042
 1464THY    CA536594   0.407   0.168   4.517 -0.7502 -0.5652  0.3169
 1464THY    CM136595   0.381   0.167   4.666 -0.4563  0.0436  0.1840
 1464THY    HM136596   0.283   0.209   4.689  0.3368  3.2354 -1.6142
 1464THY    HM236597   0.395   0.071   4.717 -0.6926  0.1751  0.5039
 1464THY    HM336598   0.453   0.234   4.715  1.8648 -0.7681 -1.9034
 1464THY    CA636599   0.309   0.220   4.430  0.2450  0.2389  0.1572
 1464THY    HA636600   0.219   0.264   4.472 -1.2105 -1.6848 -0.8478
 1465THY      O36601   6.913   3.570   3.014  0.4123  0.2963  0.3150
 1465THY     HO36602   6.837   3.629   3.003  0.5319  0.3260 -0.4063
 1465THY    CA136603   6.870   3.455   2.960 -0.0422 -0.1952 -0.1639
 1465THY    CA236604   6.954   3.352   2.899  0.1729  0.3867 -0.2406
 1465THY    CP136605   7.104   3.347   2.924  0.4997  0.0619  0.0703
 1465THY    HP136606   7.134   3.441   2.971 -1.5916  1.2429 -0.7623
 1465THY    CP236607   7.151   3.226   3.014  0.4622  0.0283 -0.5914
 1465THY    HP236608   7.084   3.223   3.101  2.6713  2.8712  1.3689
 1465THY    HP336609   7.143   3.127   2.967 -0.7146 -1.7687  2.9924
 1465THY    HP436610   7.249   3.228   3.063 -0.6509  0.2008  1.7958
 1465THY    CP336611   7.178   3.336   2.788 -0.5947  0.4100 -0.6279
 1465THY    HP536612   7.159   3.239   2.742 -0.4929 -1.0303  2.1911
 1465THY    HP636613   7.167   3.422   2.720  2.7269  0.6548 -0.9895
 1465THY    HP736614   7.287   3.332   2.790 -0.6080 -0.8761 -1.5078
 1465THY    CA336615   6.895   3.239   2.843 -0.0411 -0.1045  0.1872
 1465THY    HA336616   6.955   3.163   2.793 -0.1860  0.1803 -0.4372
 1465THY    CA436617   6.755   3.244   2.830 -0.1565  0.5157 -0.2333
 1465THY    HA436618   6.708   3.165   2.773  0.4512  0.8498 -1.2095
 1465THY    CA536619   6.675   3.340   2.886 -0.0791 -0.1623 -0.1370
 1465THY    CM136620   6.528   3.330   2.871 -0.4442  0.5483 -0.1706
 1465THY    HM136621   6.481   3.270   2.950  0.1906  0.3676  0.0833
 1465THY    HM236622   6.480   3.427   2.882 -0.4392  0.3367  2.4900
 1465THY    HM336623   6.504   3.282   2.776 -1.4166  0.8269 -0.0763
 1465THY    CA636624   6.732   3.455   2.945 -0.0032  0.7123 -0.3443
 1465THY    HA636625   6.673   3.538   2.982 -1.6246  0.2182 -1.6886
 1466THY      O36626   2.155   5.748   3.895 -0.9932 -0.0926 -0.0014
 1466THY     HO36627   2.173   5.655   3.874  0.2060  0.4029 -1.3140
 1466THY    CA136628   2.229   5.814   3.806 -0.1574 -0.0788  0.1440
 1466THY    CA236629   2.168   5.914   3.734 -0.1677 -0.2413 -0.4443
 1466THY    CP136630   2.019   5.949   3.757  0.7405 -0.2093 -0.9305
 1466THY    HP136631   1.956   5.862   3.780  1.1787 -0.2965 -0.0134
 1466THY    CP236632   2.019   6.036   3.875 -0.0655 -0.3642 -0.5411
 1466THY    HP236633   2.057   5.976   3.958  1.0968  1.3681  0.2506
 1466THY    HP336634   2.087   6.119   3.853 -0.2692 -0.3138 -0.9986
 1466THY    HP436635   1.919   6.079   3.894 -0.9496 -2.2477 -0.7577
 1466THY    CP336636   1.939   6.016   3.644 -0.2403  0.0615 -0.2585
 1466THY    HP536637   1.917   5.933   3.576 -2.0944 -1.0118  1.5568
 1466THY    HP636638   1.844   6.060   3.676 -0.2809  0.3705 -0.7925
 1466THY    HP736639   2.003   6.095   3.603  1.8871 -0.9309  0.9819
 1466THY    CA336640   2.244   5.970   3.628  0.4203  0.0426 -0.4795
 1466THY    HA336641   2.205   6.038   3.552  3.0514  0.9737 -1.1147
 1466THY    CA436642   2.373   5.935   3.609 -0.4975  0.4868  0.4565
 1466THY    HA436643   2.429   5.963   3.520  0.9865 -0.8460  0.9194
 1466THY    CA536644   2.434   5.835   3.684  0.4701 -0.0195 -0.0010
 1466THY    CM136645   2.576   5.797   3.668 -0.0991  0.0141 -1.0168
 1466THY    HM136646   2.603   5.821   3.565  1.2354 -1.7444 -1.1321
 1466THY    HM236647   2.642   5.835   3.747 -2.7502  1.3963  0.6858
 1466THY    HM336648   2.589   5.688   3.673  0.9648  0.0224 -2.7099
 1466THY    CA636649   2.355   5.764   3.776  0.4741 -0.6704  0.4632
 1466THY    HA636650   2.392   5.683   3.837  0.6225 -0.3131  0.8607
 1467THY      O36651   6.898   0.794   8.071  0.1227  0.1697  0.1959
 1467THY     HO36652   6.904   0.700   8.097 -0.4068  0.0129 -0.2233
 1467THY    CA136653   6.884   0.862   8.185 -0.2606 -0.7946 -0.0974
 1467THY    CA236654   6.836   1.000   8.192 -0.4290  1.1944  0.3045
 1467THY    CP136655   6.782   1.077   8.074 -0.1523  1.0589  0.0142
 1467THY    HP136656   6.779   1.005   7.992  3.4250 -0.7571  1.2565
 1467THY    CP236657   6.639   1.124   8.105 -0.7124  0.1843  0.5188
 1467THY    HP236658   6.642   1.229   8.136 -0.1768  0.4604 -0.4049
 1467THY    HP336659   6.574   1.116   8.017 -0.7389  2.2073  0.3130
 1467THY    HP436660   6.581   1.074   8.183 -0.6531 -1.6475 -0.5690
 1467THY    CP336661   6.862   1.195   8.024  0.1688  0.1731  0.6273
 1467THY    HP536662   6.876   1.261   8.110  0.8477 -0.0825  0.7187
 1467THY    HP636663   6.962   1.165   7.991  0.0949  0.0546  0.5067
 1467THY    HP736664   6.803   1.249   7.949  3.7727  1.5860 -1.4709
 1467THY    CA336665   6.834   1.062   8.321  0.0596  0.2288  0.1485
 1467THY    HA336666   6.812   1.169   8.323 -0.2334  0.1805  3.2440
 1467THY    CA436667   6.874   0.993   8.429 -0.2666 -0.2174 -0.9741
 1467THY    HA436668   6.872   1.046   8.524  1.0795 -0.1711 -0.9527
 1467THY    CA536669   6.901   0.859   8.427  0.8460 -0.4443  0.0468
 1467THY    CM136670   6.943   0.776   8.548 -0.4731 -0.4748 -0.6797
 1467THY    HM136671   6.874   0.697   8.580 -1.2627  0.9495  1.3789
 1467THY    HM236672   7.045   0.740   8.533  0.0148  1.5550 -2.8173
 1467THY    HM336673   6.946   0.837   8.639 -0.8300  1.2581 -1.7746
 1467THY    CA636674   6.913   0.796   8.304  0.6261 -0.5959  0.1604
 1467THY    HA636675   6.946   0.693   8.297 -1.5097 -1.2834 -0.8629
 1468THY      O36676   8.412   1.196   3.145  0.3482 -0.7834 -0.2404
 1468THY     HO36677   8.419   1.112   3.194 -0.5866 -0.6301  0.1728
 1468THY    CA136678   8.372   1.165   3.016 -0.4888  0.0894 -0.5294
 1468THY    CA236679   8.353   1.270   2.921 -1.4219  0.5542 -0.6606
 1468THY    CP136680   8.386   1.416   2.963 -1.0210  0.4685  0.4066
 1468THY    HP136681   8.407   1.435   3.069  0.4063 -0.0460  0.2340
 1468THY    CP236682   8.522   1.450   2.893  0.0087 -0.2680 -0.3504
 1468THY    HP236683   8.608   1.383   2.904  0.5232  0.2798 -0.9533
 1468THY    HP336684   8.500   1.441   2.786  1.2641  1.1666 -0.7592
 1468THY    HP436685   8.563   1.550   2.909  0.9501 -0.7520  0.3406
 1468THY    CP336686   8.276   1.515   2.915  0.1273  0.0929 -0.3140
 1468THY    HP536687   8.286   1.621   2.940  1.6176  0.6618 -2.9001
 1468THY    HP636688   8.269   1.507   2.806 -1.1242 -1.5728 -0.1519
 1468THY    HP736689   8.177   1.488   2.952  1.1013 -1.5522  1.2478
 1468THY    CA336690   8.311   1.238   2.788 -0.0609 -0.3198 -0.2912
 1468THY    HA336691   8.292   1.320   2.720 -0.2517  0.2574  0.4443
 1468THY    CA436692   8.294   1.103   2.751  0.1562  0.7576  0.1944
 1468THY    HA436693   8.271   1.097   2.645  0.9734 -0.2459  0.0566
 1468THY    CA536694   8.333   0.998   2.842  0.2096 -0.8286  0.3315
 1468THY    CM136695   8.341   0.860   2.788 -0.2238  0.3970  0.3675
 1468THY    HM136696   8.298   0.794   2.865  2.1190 -1.9353 -0.1989
 1468THY    HM236697   8.295   0.840   2.690 -2.0327  0.7518  1.0977
 1468THY    HM336698   8.448   0.844   2.770 -0.6913 -0.8603 -1.5292
 1468THY    CA636699   8.361   1.030   2.978  0.2050  0.4690 -0.3629
 1468THY    HA636700   8.395   0.954   3.047  0.1396  0.3195 -0.4952
 1469THY      O36701   5.348   9.141   0.827  0.3350  0.4178  0.4448
 1469THY     HO36702   5.390   9.112   0.910 -1.1266  1.0241  1.4466
 1469THY    CA136703   5.234   9.077   0.821 -0.9333  0.2569  0.9663
 1469THY    CA236704   5.147   9.097   0.716  0.3121 -0.3249 -0.1676
 1469THY    CP136705   5.190   9.191   0.606  0.1192  0.9936  0.2202
 1469THY    HP136706   5.282   9.248   0.623  1.7075 -0.3015 -3.1411
 1469THY    CP236707   5.205   9.119   0.465 -0.4995  0.3659 -0.7201
 1469THY    HP236708   5.238   9.200   0.399  1.4661 -0.2757 -0.5928
 1469THY    HP336709   5.294   9.055   0.461  0.0560  1.1143 -0.7272
 1469THY    HP436710   5.113   9.069   0.434 -0.3469  0.4711 -1.3468
 1469THY    CP336711   5.090   9.312   0.589 -0.0890 -0.3635 -0.2361
 1469THY    HP536712   5.119   9.395   0.524  0.0497 -1.1501 -1.2079
 1469THY    HP636713   4.989   9.282   0.559 -1.0674 -0.6106  2.9615
 1469THY    HP736714   5.085   9.360   0.688  1.8301  1.6294 -1.0270
 1469THY    CA336715   5.024   9.025   0.700 -0.7347 -1.3449 -0.1183
 1469THY    HA336716   4.959   9.046   0.617 -1.0446 -0.3744  0.3582
 1469THY    CA436717   5.000   8.922   0.787 -0.2985 -0.1627 -0.3610
 1469THY    HA436718   4.914   8.856   0.778  0.1877 -1.1157  1.5615
 1469THY    CA536719   5.087   8.894   0.888 -0.3355 -0.4277  0.1707
 1469THY    CM136720   5.067   8.772   0.976  0.1898 -0.0832 -0.6285
 1469THY    HM136721   5.148   8.700   0.962 -0.1309 -0.2314 -1.8266
 1469THY    HM236722   5.058   8.804   1.081  0.3240  1.3826 -1.0449
 1469THY    HM336723   4.970   8.734   0.941  0.1682 -1.0410  0.4052
 1469THY    CA636724   5.198   8.979   0.912  0.7535 -0.3473 -0.1182
 1469THY    HA636725   5.251   8.970   1.006 -0.2898  1.5438  0.7094
 1470THY      O36726   4.950   2.451   4.874  0.8086  0.3032 -0.4093
 1470THY     HO36727   4.886   2.522   4.858 -2.7103 -2.3641  0.4705
 1470THY    CA136728   4.897   2.352   4.803  0.4020  0.5189  0.0285
 1470THY    CA236729   4.846   2.238   4.870 -0.0216  0.1610  0.6529
 1470THY    CP136730   4.864   2.213   5.018  0.3612  0.3740 -0.0995
 1470THY    HP136731   4.960   2.253   5.052  1.0629 -0.5504 -0.9209
 1470THY    CP236732   4.746   2.286   5.093  0.1160 -0.2660  0.0975
 1470THY    HP236733   4.647   2.248   5.064  0.1802  0.0836 -0.5994
 1470THY    HP336734   4.763   2.277   5.201  1.8573  0.5053 -0.0921
 1470THY    HP436735   4.767   2.388   5.059 -0.8818 -0.0829 -0.0007
 1470THY    CP336736   4.865   2.065   5.067  0.0276  0.0209  0.4697
 1470THY    HP536737   4.767   2.021   5.048  1.0201 -1.6535 -1.2143
 1470THY    HP636738   4.940   2.010   5.008  0.2808  0.4733  0.3648
 1470THY    HP736739   4.882   2.050   5.174 -0.0721 -2.2694  0.2276
 1470THY    CA336740   4.777   2.149   4.785 -0.4511 -0.0912 -0.3258
 1470THY    HA336741   4.738   2.058   4.830  0.5107 -2.1322 -3.3283
 1470THY    CA436742   4.770   2.160   4.648  0.3433  0.5628 -1.2061
 1470THY    HA436743   4.707   2.090   4.594  0.6115 -1.2663  0.7511
 1470THY    CA536744   4.828   2.270   4.586 -0.3275 -0.3680 -0.6263
 1470THY    CM136745   4.798   2.287   4.437 -0.0198 -0.9049  0.9069
 1470THY    HM136746   4.715   2.226   4.402 -0.4024  0.3138 -0.4261
 1470THY    HM236747   4.770   2.392   4.419  2.7859 -0.3407 -0.8428
 1470THY    HM336748   4.895   2.266   4.389 -0.4187 -2.5255  0.7498
 1470THY    CA636749   4.883   2.373   4.664  0.4062  0.8857  0.0183
 1470THY    HA636750   4.921   2.468   4.627  2.2579  0.7074  1.3373
 1471THY      O36751   8.749   8.884   3.125  0.2141  0.2005 -0.7074
 1471THY     HO36752   8.834   8.921   3.098  0.6016  0.9991  1.4545
 1471THY    CA136753   8.762   8.835   3.256 -0.9912  0.1625  0.8771
 1471THY    CA236754   8.651   8.776   3.317  0.4941 -0.7580 -0.3643
 1471THY    CP136755   8.513   8.776   3.250  0.0458  0.5028  0.8102
 1471THY    HP136756   8.507   8.854   3.173  0.1362 -0.9067 -0.6753
 1471THY    CP236757   8.472   8.641   3.186 -0.4171 -0.4090 -0.7727
 1471THY    HP236758   8.532   8.612   3.099  1.0533  2.4248 -0.8481
 1471THY    HP336759   8.463   8.561   3.260 -3.1295  0.6490  0.1780
 1471THY    HP436760   8.369   8.658   3.151 -0.6267 -0.6620 -0.2898
 1471THY    CP336761   8.415   8.826   3.356  0.2970  0.0641 -0.1188
 1471THY    HP536762   8.326   8.872   3.312 -0.1954 -1.2448 -0.5449
 1471THY    HP636763   8.379   8.740   3.414 -0.5462 -0.9482 -2.0479
 1471THY    HP736764   8.470   8.887   3.428 -1.0664 -1.0568  1.9772
 1471THY    CA336765   8.673   8.706   3.436 -0.0987  0.4833 -0.0377
 1471THY    HA336766   8.590   8.654   3.482  0.9537 -0.9048  0.3518
 1471THY    CA436767   8.803   8.705   3.493 -0.6152 -0.5675  0.7117
 1471THY    HA436768   8.819   8.666   3.593 -0.9015 -2.5167  0.0435
 1471THY    CA536769   8.916   8.765   3.427  0.7342  0.0516  0.1230
 1471THY    CM136770   9.047   8.758   3.508 -0.4228 -0.8914  0.4581
 1471THY    HM136771   9.095   8.661   3.497  0.5655 -0.1838 -2.2260
 1471THY    HM236772   9.112   8.828   3.453 -1.0818 -1.3441 -0.9610
 1471THY    HM336773   9.043   8.793   3.611  2.6736 -2.6619  1.2896
 1471THY    CA636774   8.892   8.832   3.305  0.9308  0.2466  0.6919
 1471THY    HA636775   8.976   8.864   3.244 -0.1979  1.3555 -0.3208
 1472THY      O36776   4.147   4.084   9.337 -0.4305  0.0962 -0.4446
 1472THY     HO36777   4.156   4.035   9.253  0.4257  0.0519 -0.3362
 1472THY    CA136778   4.273   4.101   9.388 -0.6048 -0.1475  0.3267
 1472THY    CA236779   4.299   4.158   9.512  0.9248 -0.2689  0.2963
 1472THY    CP136780   4.182   4.196   9.599 -0.1881 -0.3664 -0.5175
 1472THY    HP136781   4.103   4.121   9.586 -0.2495 -0.1484 -1.5153
 1472THY    CP236782   4.224   4.203   9.748  0.4214 -0.2332  0.3394
 1472THY    HP236783   4.277   4.111   9.775  1.5316  0.1661 -0.4267
 1472THY    HP336784   4.281   4.291   9.779  0.3912 -0.2476  0.4346
 1472THY    HP436785   4.134   4.193   9.810  1.5752  0.6201  2.2088
 1472THY    CP336786   4.126   4.330   9.560 -0.5493 -0.2445  0.3958
 1472THY    HP536787   4.202   4.409   9.568 -2.8924  2.0077  1.8735
 1472THY    HP636788   4.090   4.326   9.457 -0.5564 -3.1347  0.4470
 1472THY    HP736789   4.036   4.360   9.615 -0.9977 -0.9323  0.0548
 1472THY    CA336790   4.430   4.179   9.556  0.1863 -0.0388  0.1420
 1472THY    HA336791   4.458   4.215   9.654  1.0574 -1.4037  0.4222
 1472THY    CA436792   4.534   4.133   9.475 -0.0155 -0.6243  1.1053
 1472THY    HA436793   4.637   4.144   9.508 -0.0218  0.8560  0.7122
 1472THY    CA536794   4.508   4.072   9.359  0.2201  0.2118  0.2373
 1472THY    CM136795   4.624   4.025   9.270 -0.0327 -0.7095  1.1137
 1472THY    HM136796   4.717   4.016   9.327  1.1014  0.1444 -0.5065
 1472THY    HM236797   4.592   3.926   9.237 -1.1458 -0.3403  1.0099
 1472THY    HM336798   4.633   4.096   9.187 -0.7756 -0.0351  1.5860
 1472THY    CA636799   4.381   4.070   9.303 -0.8710 -0.0318 -0.0437
 1472THY    HA636800   4.362   4.047   9.198 -2.6719  2.5834 -0.3851
 1473THY      O36801   4.074   8.020   6.342 -0.0965 -0.0372 -0.7195
 1473THY     HO36802   4.011   7.953   6.313  0.8529 -0.9455 -0.7514
 1473THY    CA136803   4.005   8.095   6.430  0.1309 -0.9743 -0.2428
 1473THY    CA236804   4.060   8.132   6.556  0.1166  0.0161 -0.0113
 1473THY    CP136805   4.196   8.064   6.598 -0.3594 -0.0402 -0.6361
 1473THY    HP136806   4.270   8.053   6.518 -1.3167  0.7971 -1.6705
 1473THY    CP236807   4.261   8.155   6.707  0.4876 -0.1028  0.0256
 1473THY    HP236808   4.274   8.258   6.672 -0.6634  0.0568  0.0228
 1473THY    HP336809   4.203   8.143   6.800 -0.5217 -0.3736 -0.6183
 1473THY    HP436810   4.352   8.100   6.735 -0.7818 -1.2417  2.2535
 1473THY    CP336811   4.155   7.927   6.653 -0.8725  0.4195 -0.2814
 1473THY    HP536812   4.107   7.863   6.578 -0.7102 -1.6675  1.2987
 1473THY    HP636813   4.240   7.867   6.689  1.1557  3.6443  0.6817
 1473THY    HP736814   4.093   7.943   6.742  0.9330  1.3204  0.8743
 1473THY    CA336815   3.994   8.228   6.637  0.3534  0.7630  0.5071
 1473THY    HA336816   4.031   8.262   6.734 -1.8521 -1.8194  2.4056
 1473THY    CA436817   3.859   8.257   6.610 -0.5598 -0.6183  1.2829
 1473THY    HA436818   3.794   8.304   6.683  1.0040  0.9229  1.7503
 1473THY    CA536819   3.804   8.213   6.496 -0.2004 -0.0612 -0.0602
 1473THY    CM136820   3.660   8.242   6.472 -0.3976 -0.5720  0.1763
 1473THY    HM136821   3.594   8.206   6.552  1.5491 -1.0184  1.6480
 1473THY    HM236822   3.655   8.351   6.462 -0.2978 -0.6850 -1.2517
 1473THY    HM336823   3.636   8.204   6.372 -0.2802  1.7807 -0.8027
 1473THY    CA636824   3.873   8.130   6.404  0.1086 -0.0432  0.0012
 1473THY    HA636825   3.823   8.098   6.313  1.2240 -1.0371 -0.2769
 1474THY      O36826   7.948   9.322   7.820 -0.0462 -0.5359  0.6594
 1474THY     HO36827   8.032   9.305   7.775 -0.3649  1.0780 -0.6502
 1474THY    CA136828   7.849   9.306   7.731 -0.1482 -0.9566 -0.1024
 1474THY    CA236829   7.712   9.301   7.759  0.4346 -0.8312 -0.2951
 1474THY    CP136830   7.673   9.321   7.912 -0.0894  0.3000 -0.3835
 1474THY    HP136831   7.755   9.299   7.981 -0.8200 -0.2941  0.3272
 1474THY    CP236832   7.632   9.467   7.921  0.5554 -0.2588 -0.0619
 1474THY    HP236833   7.586   9.490   8.017  1.6116 -2.6083  1.1020
 1474THY    HP336834   7.722   9.527   7.901  2.0941 -2.6532 -0.7308
 1474THY    HP436835   7.561   9.483   7.839  0.1206 -2.4349 -0.1763
 1474THY    CP336836   7.560   9.235   7.949 -1.0215 -0.1387 -0.4599
 1474THY    HP536837   7.506   9.279   8.033 -0.4095  1.3387 -0.8072
 1474THY    HP636838   7.491   9.209   7.868  0.8512 -0.7539 -1.9452
 1474THY    HP736839   7.616   9.145   7.975 -0.5854  0.4312  0.6368
 1474THY    CA336840   7.614   9.282   7.656 -0.2173  1.0134 -0.3042
 1474THY    HA336841   7.506   9.276   7.667 -0.0684 -1.4031  0.5480
 1474THY    CA436842   7.671   9.253   7.529 -0.5690 -1.0188  0.0599
 1474THY    HA436843   7.607   9.235   7.443 -3.0571  2.1283  1.0417
 1474THY    CA536844   7.802   9.244   7.508 -0.3330 -0.5028  0.2111
 1474THY    CM136845   7.850   9.217   7.367 -0.0950  0.0236  0.2969
 1474THY    HM136846   7.906   9.123   7.368 -3.4611 -2.1522  0.0931
 1474THY    HM236847   7.772   9.210   7.290  1.5753 -1.0946 -1.3978
 1474THY    HM336848   7.919   9.291   7.324 -0.2684 -0.1341 -0.2738
 1474THY    CA636849   7.896   9.277   7.602 -0.2099  0.4060  0.0948
 1474THY    HA636850   8.000   9.286   7.573 -0.0027  2.8582  1.3508
 1475THY      O36851   2.083   9.785   9.225 -0.5003  0.2757 -0.1872
 1475THY     HO36852   2.168   9.737   9.222  0.6252  2.1377  0.0920
 1475THY    CA136853   2.116   9.904   9.272 -0.3811 -0.7872 -0.8063
 1475THY    CA236854   2.067  10.022   9.211  0.0839  0.6508 -0.5114
 1475THY    CP136855   1.985  10.018   9.078  0.1390 -0.1584  0.0687
 1475THY    HP136856   2.021   9.938   9.013  1.6076 -0.7468  1.5219
 1475THY    CP236857   1.839   9.994   9.112 -0.0528  0.0790 -0.1748
 1475THY    HP236858   1.786   9.948   9.027  0.1923  0.3186 -0.4584
 1475THY    HP336859   1.833   9.922   9.195  0.6412 -0.0128 -0.1986
 1475THY    HP436860   1.781  10.083   9.141  0.1247  0.4807 -1.0177
 1475THY    CP336861   1.991  10.146   8.992 -0.3365  0.8394  0.1458
 1475THY    HP536862   1.928  10.135   8.903 -0.8037  0.4796  0.5105
 1475THY    HP636863   1.939  10.226   9.045 -1.5492 -0.1136  0.4581
 1475THY    HP736864   2.092  10.176   8.962 -0.6444  0.4932 -1.2879
 1475THY    CA336865   2.099  10.146   9.276  0.9832  0.5524 -0.5160
 1475THY    HA336866   2.059  10.239   9.237 -4.2961 -0.7600  0.9033
 1475THY    CA436867   2.165  10.154   9.399 -0.3240 -0.6939  0.5363
 1475THY    HA436868   2.173  10.251   9.448 -1.7766 -0.1232 -0.2983
 1475THY    CA536869   2.210  10.035   9.457  0.1673 -0.0656 -0.1189
 1475THY    CM136870   2.284  10.043   9.591  0.5869 -0.6155 -0.1632
 1475THY    HM136871   2.293  10.149   9.618 -0.2863 -1.3045  3.4025
 1475THY    HM236872   2.227   9.997   9.673 -0.4536 -2.8605 -2.0072
 1475THY    HM336873   2.382   9.998   9.604 -0.1021 -1.7835  1.3025
 1475THY    CA636874   2.181   9.913   9.397  0.1898 -0.1330  0.2841
 1475THY    HA636875   2.218   9.822   9.445  0.7405 -0.1527 -0.1726
 1476THY      O36876   6.927   0.519   8.074 -0.3346  0.1026  0.7369
 1476THY     HO36877   7.000   0.522   8.010 -0.3781  1.5703  0.7044
 1476THY    CA136878   6.938   0.407   8.149  0.8915 -0.4187  0.0955
 1476THY    CA236879   6.819   0.339   8.200  0.4870  0.1636 -0.4456
 1476THY    CP136880   6.679   0.392   8.181 -0.8617 -0.4989 -0.8434
 1476THY    HP136881   6.693   0.472   8.106  0.6698 -0.1856 -0.2538
 1476THY    CP236882   6.580   0.281   8.137  0.4554 -0.1089  0.3008
 1476THY    HP236883   6.622   0.228   8.051  0.7766 -0.8688  0.9154
 1476THY    HP336884   6.558   0.207   8.215 -1.7673  1.0488  0.8688
 1476THY    HP436885   6.475   0.308   8.117  0.0846 -0.5886  1.4794
 1476THY    CP336886   6.630   0.456   8.309 -0.0682 -0.2403  0.1030
 1476THY    HP536887   6.647   0.563   8.292  0.5959 -0.7276 -2.8575
 1476THY    HP636888   6.522   0.445   8.320 -0.5719  2.1262 -1.6095
 1476THY    HP736889   6.681   0.425   8.401  0.7873  1.1949  0.1483
 1476THY    CA336890   6.837   0.218   8.276  0.2176  0.8638 -0.1689
 1476THY    HA336891   6.752   0.162   8.313  1.2313 -1.5562 -1.3018
 1476THY    CA436892   6.970   0.173   8.298  0.2159  0.0701  0.2212
 1476THY    HA436893   6.974   0.086   8.363 -2.2961 -1.2662 -1.2516
 1476THY    CA536894   7.085   0.240   8.253 -0.5523 -0.8087  0.3121
 1476THY    CM136895   7.222   0.201   8.296  0.0429  0.4067 -0.4307
 1476THY    HM136896   7.297   0.235   8.223 -0.5006  3.2518  0.2194
 1476THY    HM236897   7.238   0.255   8.390 -0.4416 -0.3476  0.0925
 1476THY    HM336898   7.224   0.094   8.316 -1.2159  0.7353  1.7394
 1476THY    CA636899   7.064   0.362   8.185  0.6193  0.1581  0.5492
 1476THY    HA636900   7.148   0.425   8.158 -1.2098  2.2133 -0.6841
 1477THY      O36901   8.126   6.403   6.449  0.7088  0.3425 -0.5937
 1477THY     HO36902   8.140   6.368   6.360  1.0584  0.6739 -0.6744
 1477THY    CA136903   8.007   6.351   6.489 -0.1950  0.5023  0.0189
 1477THY    CA236904   7.948   6.384   6.612  0.3713 -0.1056  0.4668
 1477THY    CP136905   8.005   6.492   6.697 -0.1427  0.2553  0.0216
 1477THY    HP136906   8.114   6.496   6.681 -0.1140 -0.3756  0.0616
 1477THY    CP236907   7.950   6.622   6.647  0.3883 -1.1278 -0.7638
 1477THY    HP236908   7.842   6.611   6.632  0.2698 -1.0489 -0.0019
 1477THY    HP336909   7.975   6.706   6.713 -0.6945  0.5607 -2.4130
 1477THY    HP436910   7.989   6.650   6.549  2.4788  3.0127  0.9939
 1477THY    CP336911   7.998   6.470   6.850 -0.1607  0.5716  0.3473
 1477THY    HP536912   8.029   6.367   6.875  2.3392 -0.5976 -5.6530
 1477THY    HP636913   8.051   6.544   6.911 -1.8153 -0.4411  3.2128
 1477THY    HP736914   7.901   6.490   6.896  0.8561 -0.0264  2.8986
 1477THY    CA336915   7.817   6.337   6.639 -0.3445  0.5551  0.2486
 1477THY    HA336916   7.754   6.361   6.724 -0.4993 -2.2515  0.9946
 1477THY    CA436917   7.756   6.248   6.553 -0.0396  0.1525 -0.0719
 1477THY    HA436918   7.657   6.204   6.558 -0.1467  0.2106 -1.3814
 1477THY    CA536919   7.825   6.208   6.438  0.6123 -0.2706 -1.2448
 1477THY    CM136920   7.753   6.121   6.338 -0.0315  0.2717 -0.4037
 1477THY    HM136921   7.683   6.179   6.277  0.2770  1.6812  0.5405
 1477THY    HM236922   7.822   6.085   6.261 -0.3080 -0.0862 -0.4848
 1477THY    HM336923   7.708   6.034   6.388  0.8255  0.4897  0.7861
 1477THY    CA636924   7.950   6.252   6.408 -0.2820  0.2174 -0.3476
 1477THY    HA636925   8.007   6.219   6.322  0.3543  1.1108 -0.2832
 1478THY      O36926   7.605   3.935   9.833  0.1432  0.3796 -0.1333
 1478THY     HO36927   7.687   3.977   9.864  1.9521 -0.5512 -3.2091
 1478THY    CA136928   7.510   4.030   9.865  0.1410  0.1557  0.6496
 1478THY    CA236929   7.385   4.014   9.825  0.4556  0.5060 -0.0084
 1478THY    CP136930   7.332   3.880   9.780 -0.0672 -0.0846  0.5220
 1478THY    HP136931   7.407   3.803   9.804 -0.2444 -0.5687 -0.4231
 1478THY    CP236932   7.204   3.830   9.844  0.0582 -0.2829  0.2983
 1478THY    HP236933   7.207   3.720   9.843 -1.2820 -0.3498 -0.9426
 1478THY    HP336934   7.193   3.862   9.948  0.0477 -2.9493  1.1906
 1478THY    HP436935   7.114   3.873   9.796 -0.7674 -0.5496  1.5549
 1478THY    CP336936   7.309   3.889   9.627  0.2159 -0.4463  0.3663
 1478THY    HP536937   7.227   3.957   9.604  0.2342 -0.1990  1.0237
 1478THY    HP636938   7.399   3.933   9.583 -0.6164  0.1803 -0.7416
 1478THY    HP736939   7.295   3.788   9.586  1.4971 -0.4851 -0.0203
 1478THY    CA336940   7.294   4.121   9.830  0.6813 -0.0185 -0.1302
 1478THY    HA336941   7.191   4.101   9.802  0.5307  1.7958 -1.0219
 1478THY    CA436942   7.336   4.240   9.892 -0.5864  0.0375  1.0589
 1478THY    HA436943   7.267   4.324   9.891 -0.5297  0.1055 -0.5686
 1478THY    CA536944   7.462   4.247   9.957 -0.1114 -0.7652  0.5567
 1478THY    CM136945   7.516   4.374  10.012  0.2071 -0.4233  0.3518
 1478THY    HM136946   7.556   4.352  10.112 -0.7071 -1.0244  0.6059
 1478THY    HM236947   7.604   4.405   9.956 -0.6036  0.9506 -0.2085
 1478THY    HM336948   7.433   4.444  10.025  2.4229  2.0084  2.5950
 1478THY    CA636949   7.552   4.148   9.930  0.1909  0.4976  0.2189
 1478THY    HA636950   7.658   4.157   9.953  0.3894 -3.6569  1.6891
 1479THY      O36951   4.450   5.401   5.573 -0.1845  0.0242  0.3132
 1479THY     HO36952   4.394   5.337   5.527  0.2934 -0.3523  0.2441
 1479THY    CA136953   4.369   5.493   5.625 -0.1250  0.2336  0.0074
 1479THY    CA236954   4.398   5.634   5.630 -0.0750  0.7298 -0.4368
 1479THY    CP136955   4.530   5.687   5.579  0.1113  0.2171  0.3699
 1479THY    HP136956   4.572   5.635   5.493 -0.1106  1.4889 -0.5359
 1479THY    CP236957   4.513   5.832   5.525 -0.0018  0.3571 -0.5088
 1479THY    HP236958   4.509   5.913   5.599 -0.2587 -0.1830  0.0789
 1479THY    HP336959   4.599   5.844   5.458  2.0323  0.0862  1.8737
 1479THY    HP436960   4.421   5.837   5.466 -0.5322 -1.5927  0.0606
 1479THY    CP336961   4.641   5.670   5.685 -0.2134 -0.7606 -0.6298
 1479THY    HP536962   4.737   5.702   5.642 -0.5410 -1.9435 -2.3555
 1479THY    HP636963   4.611   5.718   5.779  0.7893 -1.1500 -0.0863
 1479THY    HP736964   4.645   5.562   5.707 -0.7391 -0.6607  0.0033
 1479THY    CA336965   4.301   5.711   5.706  0.3926 -0.3128  0.1617
 1479THY    HA336966   4.315   5.818   5.694 -0.9380 -0.2871 -1.6389
 1479THY    CA436967   4.194   5.651   5.790 -0.2608 -0.1092  0.3351
 1479THY    HA436968   4.124   5.709   5.850  1.0815  0.0951  1.7666
 1479THY    CA536969   4.176   5.506   5.778  0.0563  0.1658 -0.4352
 1479THY    CM136970   4.067   5.435   5.856  0.3524 -0.5088  0.9885
 1479THY    HM136971   3.978   5.442   5.792  0.0116  1.4629  1.6098
 1479THY    HM236972   4.086   5.329   5.872  2.3523 -0.7631 -2.1961
 1479THY    HM336973   4.053   5.493   5.948  3.9463  0.1182  1.2826
 1479THY    CA636974   4.263   5.434   5.699 -0.2178  0.0302 -0.0987
 1479THY    HA636975   4.256   5.325   5.698 -1.9670  0.0747 -2.5288
 1480THY      O36976   7.675   6.201   8.749  0.2524 -0.2291  0.2194
 1480THY     HO36977   7.632   6.169   8.830  0.0431 -1.6807 -0.4257
 1480THY    CA136978   7.731   6.313   8.773 -0.8660 -0.3881  0.2050
 1480THY    CA236979   7.727   6.424   8.681  0.2757  0.3400 -0.3965
 1480THY    CP136980   7.666   6.405   8.537 -0.1705 -0.4677  0.4976
 1480THY    HP136981   7.699   6.304   8.507  0.1926 -1.0049  2.5184
 1480THY    CP236982   7.520   6.419   8.548  0.1432 -0.5490  0.5908
 1480THY    HP236983   7.478   6.349   8.621 -1.8297 -0.1975 -0.1554
 1480THY    HP336984   7.497   6.519   8.587 -0.6275  0.5262 -2.4158
 1480THY    HP436985   7.475   6.393   8.452 -2.2597 -0.1853  1.5598
 1480THY    CP336986   7.722   6.496   8.426  0.5944 -0.7118  0.0159
 1480THY    HP536987   7.678   6.590   8.462  0.7406 -1.5641  2.6610
 1480THY    HP636988   7.832   6.499   8.427  0.6816 -2.5865  0.0150
 1480THY    HP736989   7.683   6.463   8.330 -0.4876 -1.7559  0.7899
 1480THY    CA336990   7.792   6.543   8.725  0.2682  0.3328 -0.6162
 1480THY    HA336991   7.794   6.629   8.658 -1.8367  1.3706  0.5529
 1480THY    CA436992   7.849   6.552   8.852 -0.2443 -0.3580 -0.0859
 1480THY    HA436993   7.876   6.649   8.895 -0.7208 -0.4963  0.5403
 1480THY    CA536994   7.861   6.442   8.932 -0.1345 -0.3667 -0.0024
 1480THY    CM136995   7.900   6.461   9.072  0.2462  0.1776 -0.2083
 1480THY    HM136996   7.833   6.533   9.119 -0.6944 -1.0964  0.4727
 1480THY    HM236997   7.898   6.367   9.129  1.0252 -0.6092 -1.4098
 1480THY    HM336998   7.998   6.509   9.086  0.2427 -0.4354  2.5031
 1480THY    CA636999   7.808   6.321   8.892  0.6704 -0.2054  0.6762
 1480THY    HA637000   7.817   6.237   8.960  2.7827 -0.8905 -0.3370
 1481THY      O37001   0.503   7.513   6.256  0.8147  0.2321 -0.6613
 1481THY     HO37002   0.588   7.534   6.213  1.2279  1.6052  0.7198
 1481THY    CA137003   0.407   7.549   6.166  0.6108 -0.0110 -0.0394
 1481THY    CA237004   0.277   7.587   6.207 -0.0015  0.7062 -0.3452
 1481THY    CP137005   0.229   7.560   6.347  0.2870  0.4226 -0.5331
 1481THY    HP137006   0.313   7.565   6.416  0.0862  2.1281 -0.3592
 1481THY    CP237007   0.140   7.671   6.390  0.4086 -0.0909  0.0742
 1481THY    HP237008   0.045   7.669   6.336 -0.7968 -2.5942  2.0610
 1481THY    HP337009   0.111   7.657   6.495 -0.3523  0.7123 -0.0153
 1481THY    HP437010   0.177   7.773   6.373 -2.2000  0.5900 -2.1493
 1481THY    CP337011   0.143   7.433   6.366 -0.2310  0.7233  0.4812
 1481THY    HP537012   0.115   7.412   6.470  0.8765  0.0206  0.6629
 1481THY    HP637013   0.060   7.438   6.296  0.4614  3.0745 -0.2749
 1481THY    HP737014   0.209   7.349   6.343  0.2302  1.6349 -1.8142
 1481THY    CA337015   0.185   7.609   6.103  0.4482  0.1429  0.1453
 1481THY    HA337016   0.080   7.620   6.128 -0.1549  0.7226 -2.3522
 1481THY    CA437017   0.230   7.625   5.970 -0.1996 -0.4336 -0.4915
 1481THY    HA437018   0.164   7.670   5.896  0.2643 -0.4475 -0.9141
 1481THY    CA537019   0.365   7.603   5.932 -0.4800 -1.1369 -1.0781
 1481THY    CM137020   0.419   7.640   5.796 -0.5452  0.5233  0.5985
 1481THY    HM137021   0.339   7.646   5.722 -0.0805  3.5273  0.2335
 1481THY    HM237022   0.459   7.740   5.815 -1.0617  0.8481  0.0120
 1481THY    HM337023   0.493   7.568   5.759 -0.5238 -0.8149  3.0612
 1481THY    CA637024   0.453   7.555   6.035 -0.2493 -0.9404  0.1793
 1481THY    HA637025   0.555   7.533   6.008  0.3803  0.3403  1.3879
 1482THY      O37026   9.918   6.088   3.191  0.1479 -0.4585  0.1011
 1482THY     HO37027  10.005   6.071   3.232  0.0216  0.1251  0.6212
 1482THY    CA137028   9.922   6.026   3.071  0.4764 -0.6487  0.3511
 1482THY    CA237029   9.806   6.007   2.991  0.0275 -0.3657  0.5744
 1482THY    CP137030   9.677   6.075   3.040  0.3520 -0.2343  0.4372
 1482THY    HP137031   9.675   6.087   3.149 -1.8413  0.8099  0.3431
 1482THY    CP237032   9.657   6.207   2.967 -0.4854 -0.5034 -0.6561
 1482THY    HP237033   9.698   6.195   2.867  0.2060 -2.0895 -0.2122
 1482THY    HP337034   9.549   6.229   2.969 -0.6680 -1.3715 -0.2579
 1482THY    HP437035   9.729   6.269   3.021  0.9985 -1.7439 -1.1424
 1482THY    CP337036   9.553   5.982   3.023 -0.4306 -0.7814 -0.0546
 1482THY    HP537037   9.473   5.992   3.099 -0.8583 -0.4162 -0.5464
 1482THY    HP637038   9.511   5.991   2.922 -1.9370 -3.5498  0.1936
 1482THY    HP737039   9.586   5.878   3.039 -0.8153 -0.5908  2.4572
 1482THY    CA337040   9.812   5.919   2.878 -0.9097  0.1685  0.4180
 1482THY    HA337041   9.724   5.899   2.818 -1.2201 -1.7839  1.4071
 1482THY    CA437042   9.938   5.869   2.846  0.9651 -0.4268  0.3390
 1482THY    HA437043   9.944   5.800   2.762  0.6152 -0.9861  0.7693
 1482THY    CA537044  10.051   5.902   2.921  0.1319  0.3421 -0.1938
 1482THY    CM137045  10.173   5.849   2.876 -0.1469  0.0157  0.3813
 1482THY    HM137046  10.199   5.895   2.780 -0.9424  2.0215  1.0794
 1482THY    HM237047  10.260   5.876   2.937  0.1663 -0.6924  0.2607
 1482THY    HM337048  10.165   5.740   2.876  1.1398 -0.1179  1.9262
 1482THY    CA637049  10.044   5.978   3.034 -0.6026  0.2367 -0.5688
 1482THY    HA637050  10.129   5.999   3.098 -0.3958  0.5781 -0.9489
 1483THY      O37051   2.542   0.910   5.803 -0.3433  0.1559 -0.2417
 1483THY     HO37052   2.467   0.848   5.807 -1.5955  1.5832 -0.4043
 1483THY    CA137053   2.657   0.846   5.785 -0.3592  0.6097  0.0661
 1483THY    CA237054   2.781   0.912   5.773  0.3395  0.4586 -0.0739
 1483THY    CP137055   2.785   1.060   5.773  0.5645  0.1208  0.4031
 1483THY    HP137056   2.689   1.107   5.797 -0.5536 -0.9559 -1.6592
 1483THY    CP237057   2.882   1.116   5.880  0.1372 -0.0647  0.3440
 1483THY    HP237058   2.832   1.208   5.913 -0.0313  0.0739 -0.2756
 1483THY    HP337059   2.901   1.041   5.957  0.5445 -1.9731 -1.5258
 1483THY    HP437060   2.975   1.152   5.833 -0.4954 -1.4323 -2.0944
 1483THY    CP337061   2.816   1.119   5.636  0.0483  0.5503  0.2207
 1483THY    HP537062   2.746   1.075   5.564  1.3191 -4.5339  1.6759
 1483THY    HP637063   2.806   1.228   5.632  0.1747  0.5889  0.7805
 1483THY    HP737064   2.918   1.090   5.608  0.5896  1.2723  1.3657
 1483THY    CA337065   2.892   0.827   5.769 -0.3987  0.6525 -0.1061
 1483THY    HA337066   2.992   0.868   5.763  0.3125 -0.8177  0.9668
 1483THY    CA437067   2.878   0.683   5.760  0.4227 -0.7402  0.2892
 1483THY    HA437068   2.963   0.618   5.742  1.0356  0.2345 -0.4410
 1483THY    CA537069   2.754   0.623   5.753  0.5735  0.0816  0.1554
 1483THY    CM137070   2.741   0.472   5.749  0.1225  0.0563 -0.2102
 1483THY    HM137071   2.673   0.429   5.824 -1.6621  2.2911 -0.4428
 1483THY    HM237072   2.701   0.436   5.654 -0.8178 -3.6555  1.4139
 1483THY    HM337073   2.842   0.432   5.761  0.0465  0.1942  1.0438
 1483THY    CA637074   2.643   0.700   5.779  0.2207 -0.0719 -0.0253
 1483THY    HA637075   2.549   0.651   5.804  0.1317  0.3222  0.4329
 1484THY      O37076   0.974   8.180   8.854 -0.1851 -0.2784 -0.4415
 1484THY     HO37077   0.893   8.127   8.865  1.8011 -3.4937  0.0864
 1484THY    CA137078   1.017   8.123   8.740  1.2911 -0.4697 -0.0940
 1484THY    CA237079   1.136   8.169   8.682 -0.2862  0.4855  0.7626
 1484THY    CP137080   1.220   8.284   8.744 -0.2802 -0.2700 -0.1625
 1484THY    HP137081   1.164   8.341   8.819 -0.3546 -1.4028  0.6670
 1484THY    CP237082   1.355   8.240   8.807  0.0518  0.1235  0.2035
 1484THY    HP237083   1.346   8.160   8.881  0.9406  0.8611  1.1390
 1484THY    HP337084   1.416   8.200   8.725 -0.8047 -1.9276  0.5146
 1484THY    HP437085   1.418   8.316   8.855 -0.0259  0.0794  0.3730
 1484THY    CP337086   1.274   8.383   8.646  1.4246 -0.3392 -0.4887
 1484THY    HP537087   1.185   8.423   8.596  0.6945 -0.8678  0.3605
 1484THY    HP637088   1.316   8.471   8.698  0.1562  0.5032 -0.8363
 1484THY    HP737089   1.342   8.345   8.569  1.0193 -0.6781 -0.6806
 1484THY    CA337090   1.176   8.104   8.562 -0.5149  0.9376  0.9346
 1484THY    HA337091   1.273   8.129   8.521 -0.7738  1.5832  0.6994
 1484THY    CA437092   1.091   8.023   8.488  0.4813 -0.5537 -0.2630
 1484THY    HA437093   1.123   7.984   8.392  1.8818  1.4668 -0.6844
 1484THY    CA537094   0.965   7.991   8.547 -0.4199  0.3024 -0.8689
 1484THY    CM137095   0.881   7.890   8.475  0.0088 -0.1777 -0.2981
 1484THY    HM137096   0.920   7.788   8.472  1.5231  0.3510  0.4730
 1484THY    HM237097   0.781   7.895   8.519 -0.1784 -1.6202 -0.5202
 1484THY    HM337098   0.861   7.923   8.372 -2.3511  0.0184  0.1584
 1484THY    CA637099   0.930   8.038   8.673  0.4054  0.3074 -0.0348
 1484THY    HA637100   0.840   8.004   8.723 -0.1835  3.8328  1.6030
 1485THY      O37101   0.263   0.552   9.408 -0.1197 -0.3442  0.0803
 1485THY     HO37102   0.342   0.584   9.454 -0.5099 -0.4184  0.8048
 1485THY    CA137103   0.312   0.481   9.302 -0.6774 -0.5909  0.0421
 1485THY    CA237104   0.224   0.413   9.213  0.4105  0.4625  0.5555
 1485THY    CP137105   0.079   0.411   9.248 -0.0026  0.1326 -0.1246
 1485THY    HP137106   0.064   0.443   9.352  0.0517  0.2694 -0.1586
 1485THY    CP237107   0.004   0.503   9.150 -0.3447 -0.1160 -0.1122
 1485THY    HP237108   0.058   0.598   9.140  0.1676 -0.3542  0.3824
 1485THY    HP337109   0.009   0.458   9.050 -0.8398  0.5792 -0.4614
 1485THY    HP437110  -0.100   0.525   9.179 -0.5468 -0.4642 -0.5621
 1485THY    CP337111   0.019   0.270   9.250  0.3597  0.0925 -0.1901
 1485THY    HP537112  -0.075   0.255   9.305 -0.6458 -2.7966 -2.4587
 1485THY    HP637113   0.012   0.226   9.150  0.1844 -1.6982  0.5665
 1485THY    HP737114   0.086   0.205   9.308 -0.6465  0.2721  1.2306
 1485THY    CA337115   0.276   0.345   9.103  0.1601  0.1701 -0.0557
 1485THY    HA337116   0.208   0.308   9.027 -0.0621 -2.3376  1.2539
 1485THY    CA437117   0.416   0.351   9.077  0.0287 -0.7973 -0.1062
 1485THY    HA437118   0.453   0.298   8.990 -1.0797  0.8571 -1.6672
 1485THY    CA537119   0.501   0.425   9.157  0.0637  0.1686 -0.1562
 1485THY    CM137120   0.646   0.438   9.130 -0.3601  0.4745  0.0213
 1485THY    HM137121   0.692   0.527   9.175 -0.0109 -0.1698  0.9558
 1485THY    HM237122   0.689   0.352   9.182 -0.3229 -0.3713 -1.3596
 1485THY    HM337123   0.682   0.418   9.028  2.1343 -1.6566  1.2083
 1485THY    CA637124   0.451   0.491   9.270 -1.3311  0.1888 -0.0594
 1485THY    HA637125   0.521   0.548   9.330  0.7989  0.0501 -2.2594
 1486THY      O37126   3.047   2.038   7.010 -0.2853 -0.3387  0.9185
 1486THY     HO37127   3.033   2.132   6.987 -1.2620 -0.5804  0.5149
 1486THY    CA137128   3.151   1.995   6.930 -1.4141 -0.2293 -0.2962
 1486THY    CA237129   3.191   1.859   6.920 -0.1468 -0.0546  0.7010
 1486THY    CP137130   3.113   1.751   6.994  0.3107 -0.5033 -0.1262
 1486THY    HP137131   3.041   1.804   7.058 -1.3691  0.6011 -2.7775
 1486THY    CP237132   3.030   1.679   6.886 -0.2262  0.2589 -0.3462
 1486THY    HP237133   3.101   1.651   6.807  2.0212  0.1969  1.5824
 1486THY    HP337134   2.992   1.581   6.917  1.5116 -0.7053 -1.1133
 1486THY    HP437135   2.950   1.745   6.848  1.1547  2.9181  1.0456
 1486THY    CP337136   3.196   1.653   7.075 -0.1926  0.0111  0.3591
 1486THY    HP537137   3.259   1.707   7.147 -1.9069  1.9438  0.4876
 1486THY    HP637138   3.146   1.575   7.134  1.5880 -0.6491  1.0794
 1486THY    HP737139   3.265   1.602   7.007  0.3760 -2.6075  2.7244
 1486THY    CA337140   3.298   1.832   6.829  0.1295  0.7294  0.1493
 1486THY    HA337141   3.331   1.728   6.835 -0.9184  0.3880  0.3403
 1486THY    CA437142   3.363   1.936   6.762 -0.9015  0.5770  0.3881
 1486THY    HA437143   3.441   1.914   6.690 -1.4344 -0.5331  0.1276
 1486THY    CA537144   3.318   2.066   6.766 -0.7278 -0.2900 -0.1942
 1486THY    CM137145   3.359   2.169   6.660 -0.1364 -0.1353 -0.0086
 1486THY    HM137146   3.327   2.269   6.691 -0.4762  0.0721 -0.9767
 1486THY    HM237147   3.466   2.164   6.635 -0.2616  1.5081 -1.0456
 1486THY    HM337148   3.313   2.153   6.562 -0.5867 -0.6170  0.2773
 1486THY    CA637149   3.219   2.096   6.854  0.3839  0.6817 -0.2272
 1486THY    HA637150   3.188   2.199   6.862  0.3796  1.0544 -3.4811
 1487THY      O37151   8.409   4.415   8.736  0.3439  0.1760  0.0798
 1487THY     HO37152   8.377   4.457   8.817 -0.4702 -0.0075 -0.1303
 1487THY    CA137153   8.363   4.289   8.752 -0.8881  0.9970  0.6054
 1487THY    CA237154   8.356   4.202   8.640  0.4533  0.1531  0.0963
 1487THY    CP137155   8.401   4.255   8.499 -0.7352 -0.0134 -0.2745
 1487THY    HP137156   8.415   4.362   8.515 -2.5121 -0.1823  3.1934
 1487THY    CP237157   8.533   4.186   8.447 -0.0153  0.4954  0.1924
 1487THY    HP237158   8.568   4.237   8.356  1.0597 -1.7791 -0.7528
 1487THY    HP337159   8.601   4.213   8.528 -0.6824  0.7193  0.6870
 1487THY    HP437160   8.533   4.077   8.431 -0.1478  0.3716  0.9891
 1487THY    CP337161   8.301   4.240   8.389  0.0275  0.1992  1.1629
 1487THY    HP537162   8.337   4.303   8.307 -0.7770  2.1385  2.2271
 1487THY    HP637163   8.304   4.140   8.345  0.8804  1.4312 -1.8177
 1487THY    HP737164   8.199   4.276   8.411  0.3039  3.1837 -1.8117
 1487THY    CA337165   8.306   4.068   8.663  0.0764 -0.0261  0.3330
 1487THY    HA337166   8.324   3.998   8.583 -0.2346  0.5884 -0.2800
 1487THY    CA437167   8.268   4.038   8.797 -0.5919  0.4034  0.6395
 1487THY    HA437168   8.242   3.934   8.813  0.5722 -0.0560 -0.2829
 1487THY    CA537169   8.266   4.129   8.901  0.0385  0.0915 -0.3455
 1487THY    CM137170   8.223   4.080   9.037 -0.7790  0.7031 -0.4858
 1487THY    HM137171   8.250   3.974   9.045  0.1269  0.8558 -1.3013
 1487THY    HM237172   8.265   4.131   9.124 -0.0713  1.3704 -1.2027
 1487THY    HM337173   8.113   4.082   9.046 -0.6201  2.2358  1.9513
 1487THY    CA637174   8.312   4.257   8.878  0.1478  0.1306  0.1297
 1487THY    HA637175   8.321   4.332   8.956 -1.8960  0.2385  0.3287
 1488THY      O37176   5.394   3.422   3.953  0.3701 -0.1867 -0.5484
 1488THY     HO37177   5.462   3.488   3.971  0.9693 -1.1097  0.7152
 1488THY    CA137178   5.309   3.437   4.055  0.3647 -0.3064  0.4471
 1488THY    CA237179   5.166   3.423   4.034  0.1431  0.0188 -0.1255
 1488THY    CP137180   5.107   3.361   3.904  0.4215  0.1828 -0.3870
 1488THY    HP137181   5.165   3.383   3.814 -0.3853  0.8265 -0.7595
 1488THY    CP237182   5.108   3.210   3.924 -0.6874 -0.3552 -0.2049
 1488THY    HP237183   5.091   3.165   3.826  0.9507 -1.6086  0.0412
 1488THY    HP337184   5.211   3.180   3.946 -0.0445  0.3489 -2.0787
 1488THY    HP437185   5.044   3.178   4.007 -0.5804  1.8502  0.8194
 1488THY    CP337186   4.965   3.420   3.879  0.3738 -0.4117 -0.2438
 1488THY    HP537187   4.936   3.400   3.775 -0.0767 -0.8619 -0.0321
 1488THY    HP637188   4.894   3.366   3.942  1.9350 -2.9185 -0.4770
 1488THY    HP737189   4.967   3.530   3.884 -0.4829 -0.2395 -2.3115
 1488THY    CA337190   5.085   3.436   4.150  0.3484 -1.0367 -0.1576
 1488THY    HA337191   4.978   3.417   4.143  0.0590 -0.1345  1.3961
 1488THY    CA437192   5.142   3.466   4.276  0.4331 -0.7192  0.4923
 1488THY    HA437193   5.074   3.474   4.361 -0.7182 -0.4613 -0.4295
 1488THY    CA537194   5.285   3.483   4.284 -0.6103  0.0722 -0.7661
 1488THY    CM137195   5.344   3.525   4.415  0.0605  0.8417 -0.2435
 1488THY    HM137196   5.423   3.452   4.437  1.3197  1.2692 -2.9530
 1488THY    HM237197   5.395   3.621   4.404 -1.0759  1.7319  1.8140
 1488THY    HM337198   5.275   3.541   4.498  0.2146  2.8773 -0.4613
 1488THY    CA637199   5.368   3.467   4.174 -0.0259 -0.4055  0.7325
 1488THY    HA637200   5.475   3.486   4.183  0.1090 -0.6761 -0.1854
 1489THY      O37201   2.329   6.779   3.550  0.4956 -0.3020  0.0237
 1489THY     HO37202   2.261   6.811   3.612  0.5970 -2.1338  1.1578
 1489THY    CA137203   2.329   6.647   3.563 -0.4271  0.0179  0.1332
 1489THY    CA237204   2.447   6.574   3.544  0.2309  0.2111  0.0615
 1489THY    CP137205   2.576   6.651   3.497 -0.7383  0.1340  0.0254
 1489THY    HP137206   2.546   6.740   3.440 -3.8444 -1.3951 -0.9424
 1489THY    CP237207   2.662   6.700   3.617 -0.0202 -0.3223  0.4264
 1489THY    HP237208   2.694   6.617   3.681 -0.2482  0.8477  2.1174
 1489THY    HP337209   2.747   6.762   3.586 -1.0525  0.7354 -0.3843
 1489THY    HP437210   2.595   6.750   3.688 -2.3824 -1.7283 -0.6948
 1489THY    CP337211   2.665   6.553   3.421  0.1038 -0.6594  0.2046
 1489THY    HP537212   2.712   6.489   3.496  0.6240  0.9887  1.3474
 1489THY    HP637213   2.609   6.496   3.347  0.4564  1.1507 -1.5591
 1489THY    HP737214   2.746   6.603   3.366 -0.6048  0.0405 -0.2245
 1489THY    CA337215   2.442   6.436   3.561 -0.5788 -0.4012  0.2555
 1489THY    HA337216   2.531   6.374   3.547  0.1076  0.6897 -0.3278
 1489THY    CA437217   2.318   6.369   3.582 -0.3276 -0.7388 -0.4689
 1489THY    HA437218   2.316   6.260   3.587  1.7141 -0.8265 -0.5898
 1489THY    CA537219   2.206   6.445   3.619  0.7868  0.3930  0.3429
 1489THY    CM137220   2.074   6.371   3.642  0.5561  0.5715 -0.1385
 1489THY    HM137221   2.057   6.311   3.552  0.9072  0.0211  0.1547
 1489THY    HM237222   2.086   6.302   3.727 -0.3025  0.8813  0.2554
 1489THY    HM337223   1.982   6.430   3.640  0.0002 -0.2816 -1.1846
 1489THY    CA637224   2.209   6.584   3.600 -0.4389  0.1703 -0.0208
 1489THY    HA637225   2.121   6.645   3.614 -0.6695 -0.5933  2.1429
 1490THY      O37226   7.924   6.538   4.997  0.3372  0.0364  0.1709
 1490THY     HO37227   8.017   6.518   5.019 -0.7058 -3.4390  2.2842
 1490THY    CA137228   7.886   6.434   4.927 -0.6040  0.1157 -0.9649
 1490THY    CA237229   7.804   6.445   4.814 -0.0327  0.1779  0.6523
 1490THY    CP137230   7.770   6.579   4.758  0.1147  0.3636 -0.2826
 1490THY    HP137231   7.758   6.654   4.837  3.3012  1.2246 -0.5124
 1490THY    CP237232   7.885   6.634   4.666 -0.4129  0.1320  0.0320
 1490THY    HP237233   7.912   6.578   4.576 -1.6483  0.3174 -0.4740
 1490THY    HP337234   7.851   6.731   4.628  0.9142  0.6136  0.0470
 1490THY    HP437235   7.977   6.653   4.722 -0.2624  3.4746 -1.1148
 1490THY    CP337236   7.637   6.582   4.674  0.4290 -0.2745  0.5250
 1490THY    HP537237   7.655   6.574   4.566 -1.5253  1.6679 -0.0147
 1490THY    HP637238   7.568   6.508   4.717  0.8644  0.8895  3.4655
 1490THY    HP737239   7.581   6.676   4.684  0.4719 -0.0787 -0.8827
 1490THY    CA337240   7.776   6.328   4.743 -0.0961  0.2996 -0.9772
 1490THY    HA337241   7.716   6.340   4.654 -0.3490  0.5974 -0.7683
 1490THY    CA437242   7.820   6.199   4.794 -0.6844  0.2247  0.2618
 1490THY    HA437243   7.789   6.114   4.733 -3.5544  2.5407 -1.8195
 1490THY    CA537244   7.896   6.184   4.910 -0.7068 -0.1786 -0.5125
 1490THY    CM137245   7.932   6.045   4.959  0.1227 -0.5129  0.8622
 1490THY    HM137246   7.989   5.990   4.883 -0.0928 -1.8880  1.6707
 1490THY    HM237247   7.996   6.040   5.048 -0.1853 -0.4606  1.0871
 1490THY    HM337248   7.836   5.993   4.965 -0.2665  0.1111  0.1973
 1490THY    CA637249   7.939   6.306   4.978 -0.0681 -0.5495 -0.5559
 1490THY    HA637250   8.012   6.306   5.059 -0.6332  0.4369 -0.0210
 1491THY      O37251   0.421   5.566   9.848 -0.6567 -0.2522 -0.2567
 1491THY     HO37252   0.506   5.520   9.858 -0.8018 -0.5936 -0.5832
 1491THY    CA137253   0.383   5.565   9.714 -0.8456  0.4459 -0.2874
 1491THY    CA237254   0.261   5.624   9.675  0.0179 -0.2731  0.3473
 1491THY    CP137255   0.172   5.698   9.774 -0.7987  0.7690 -0.9288
 1491THY    HP137256   0.202   5.675   9.877  1.2934  3.0939 -0.9107
 1491THY    CP237257   0.178   5.849   9.762  0.2222 -0.0178  0.0095
 1491THY    HP237258   0.136   5.880   9.859 -2.6234 -0.5754 -0.9557
 1491THY    HP337259   0.280   5.888   9.761  0.4896 -0.6939  0.1316
 1491THY    HP437260   0.123   5.891   9.677  1.6811  0.8184 -0.5511
 1491THY    CP337261   0.019   5.663   9.767 -0.2363  0.6725 -0.0140
 1491THY    HP537262  -0.033   5.713   9.850  1.0938 -0.4465  1.5791
 1491THY    HP637263  -0.027   5.705   9.677 -1.0474 -1.4975 -0.6700
 1491THY    HP737264  -0.003   5.557   9.788 -1.2414  1.2422  2.0605
 1491THY    CA337265   0.232   5.638   9.537  0.3733 -0.5276 -0.4177
 1491THY    HA337266   0.145   5.697   9.509  0.2644 -0.6431 -0.3225
 1491THY    CA437267   0.300   5.561   9.443 -0.0978  0.3807 -0.2211
 1491THY    HA437268   0.269   5.576   9.340 -1.7279  0.3115  0.2397
 1491THY    CA537269   0.420   5.504   9.484 -0.2434 -0.0033 -0.7159
 1491THY    CM137270   0.523   5.463   9.380 -0.5680  1.4901  0.1954
 1491THY    HM137271   0.623   5.446   9.422 -0.5957 -0.0513 -0.3053
 1491THY    HM237272   0.487   5.369   9.337  0.8284  0.9233  0.2182
 1491THY    HM337273   0.526   5.520   9.287  0.3035  0.2257 -0.5785
 1491THY    CA637274   0.461   5.505   9.619  1.1582 -0.0966 -1.0204
 1491THY    HA637275   0.557   5.463   9.650 -0.4328 -3.5992 -0.3661
 1492THY      O37276   2.240   4.621   8.996  0.4932  0.4239  0.0518
 1492THY     HO37277   2.203   4.532   9.003 -0.0026  0.6176 -0.0908
 1492THY    CA137278   2.138   4.694   9.048 -0.1432 -0.0189  0.0794
 1492THY    CA237279   2.120   4.832   9.023  0.0982  0.6380  0.1542
 1492THY    CP137280   2.222   4.909   8.945  0.0736 -0.3619  0.4660
 1492THY    HP137281   2.299   4.848   8.897 -0.6592 -0.6491 -0.3537
 1492THY    CP237282   2.163   4.992   8.825  0.3715  0.1376 -0.1759
 1492THY    HP237283   2.128   4.934   8.739  0.2713  1.7638 -1.2892
 1492THY    HP337284   2.081   5.062   8.846 -0.1521 -0.0234 -1.5518
 1492THY    HP437285   2.243   5.061   8.795 -0.8739  1.7787  0.1592
 1492THY    CP337286   2.281   5.013   9.042  0.2523 -0.1044 -0.2935
 1492THY    HP537287   2.200   5.081   9.071  0.3630  0.2983 -0.9103
 1492THY    HP637288   2.316   4.969   9.136 -1.2146  1.6495  1.1567
 1492THY    HP737289   2.360   5.073   8.995 -0.3420  0.0726 -1.1082
 1492THY    CA337290   2.010   4.902   9.078  0.2613  0.1434 -0.1711
 1492THY    HA337291   1.988   5.004   9.049  3.5381  0.2643 -2.9676
 1492THY    CA437292   1.932   4.838   9.175 -0.0034 -0.7949  0.2388
 1492THY    HA437293   1.859   4.899   9.227 -0.2292 -1.2467  0.4521
 1492THY    CA537294   1.943   4.702   9.196  0.2370 -0.0349  0.5268
 1492THY    CM137295   1.852   4.624   9.290 -0.0128  0.2984 -0.1333
 1492THY    HM137296   1.784   4.688   9.348 -0.6197 -1.3866  1.0744
 1492THY    HM237297   1.795   4.547   9.237  1.2751  0.8977 -2.5787
 1492THY    HM337298   1.912   4.583   9.372  0.2775  1.0394  0.0405
 1492THY    CA637299   2.044   4.629   9.123  0.2392  0.1695  0.0822
 1492THY    HA637300   2.046   4.521   9.132 -2.6580 -0.1500 -1.6335
 1493THY      O37301   3.004   2.968   7.985 -0.0349  0.0556 -0.6027
 1493THY     HO37302   3.039   3.046   8.033  2.0056 -0.7516 -0.6752
 1493THY    CA137303   2.870   2.956   8.024 -0.2784  0.8789  0.6637
 1493THY    CA237304   2.793   2.841   7.997 -0.4095 -0.2909  0.6326
 1493THY    CP137305   2.846   2.724   7.904  0.0628 -0.1090 -0.2917
 1493THY    HP137306   2.946   2.752   7.870  0.4315 -2.9349 -1.8069
 1493THY    CP237307   2.856   2.598   7.979 -0.6555 -0.2462 -0.7562
 1493THY    HP237308   2.914   2.611   8.071 -3.5603  0.6440  1.0966
 1493THY    HP337309   2.759   2.579   8.026 -0.9902  0.1903 -1.2681
 1493THY    HP437310   2.899   2.512   7.926  1.4867  1.4197 -1.8665
 1493THY    CP337311   2.764   2.702   7.775 -0.2277 -0.3329 -0.5250
 1493THY    HP537312   2.782   2.780   7.700  0.8117  0.7925  0.8572
 1493THY    HP637313   2.788   2.601   7.738  1.3372 -0.0633 -0.3293
 1493THY    HP737314   2.656   2.705   7.792 -0.2638 -0.8270 -0.6479
 1493THY    CA337315   2.659   2.831   8.048 -0.3379  0.0974 -0.2023
 1493THY    HA337316   2.599   2.749   8.011 -2.3708  0.1991  2.5140
 1493THY    CA437317   2.605   2.935   8.120  0.1480  0.4421  0.2413
 1493THY    HA437318   2.500   2.946   8.145  0.6395  4.9458  1.0899
 1493THY    CA537319   2.684   3.040   8.152  0.0572  0.2774 -0.7122
 1493THY    CM137320   2.627   3.142   8.243 -0.5844  0.4784  0.7193
 1493THY    HM137321   2.594   3.098   8.338 -1.9610 -1.1775 -0.4582
 1493THY    HM237322   2.695   3.228   8.255 -1.2530  1.4620 -1.8271
 1493THY    HM337323   2.537   3.186   8.198 -1.6242  0.2037  2.4459
 1493THY    CA637324   2.812   3.055   8.100 -0.0270  0.3507 -0.1908
 1493THY    HA637325   2.869   3.144   8.127 -2.3019  0.9162  3.3270
 1494THY      O37326   7.124   1.471   1.933  0.0731 -0.8233 -0.4369
 1494THY     HO37327   7.189   1.530   1.892 -0.8853  1.2429  0.8888
 1494THY    CA137328   7.141   1.346   1.875 -0.2307 -0.7747 -0.4555
 1494THY    CA237329   7.040   1.243   1.884 -0.1391 -0.6178 -0.0715
 1494THY    CP137330   6.909   1.261   1.969 -0.5626 -0.2252 -0.0940
 1494THY    HP137331   6.876   1.357   1.927 -0.6394 -1.3454 -2.8286
 1494THY    CP237332   6.794   1.160   1.929  0.7114 -0.2335  0.5018
 1494THY    HP237333   6.704   1.204   1.973  1.1596  0.0535  1.1554
 1494THY    HP337334   6.781   1.154   1.821  0.2816 -0.4660  0.5657
 1494THY    HP437335   6.813   1.060   1.970  0.6740 -0.3474  0.2385
 1494THY    CP337336   6.923   1.259   2.119  0.0429  0.0927  0.9166
 1494THY    HP537337   6.822   1.268   2.160 -0.0517 -1.1740  0.9928
 1494THY    HP637338   6.956   1.162   2.157  0.4720  0.6064  1.8802
 1494THY    HP737339   7.004   1.322   2.158  0.2355  0.6397 -0.3037
 1494THY    CA337340   7.063   1.125   1.808 -0.0074 -0.5122 -0.0581
 1494THY    HA337341   6.994   1.041   1.813 -2.5664  1.4245 -0.5642
 1494THY    CA437342   7.179   1.104   1.738 -0.1122 -0.1116 -0.5567
 1494THY    HA437343   7.196   1.008   1.691 -3.3320 -1.9130  1.5729
 1494THY    CA537344   7.278   1.207   1.738 -0.4505  0.0232  0.3739
 1494THY    CM137345   7.399   1.182   1.649  0.4800 -0.5953 -0.2456
 1494THY    HM137346   7.490   1.218   1.698  0.1966  1.7131 -1.3124
 1494THY    HM237347   7.396   1.074   1.630  0.0940 -0.4426 -1.0987
 1494THY    HM337348   7.388   1.254   1.568 -1.0811 -0.3452  0.1554
 1494THY    CA637349   7.262   1.325   1.810 -0.5072 -0.3307 -0.0858
 1494THY    HA637350   7.326   1.411   1.794 -0.3410 -0.0636  1.8388
 1495THY      O37351   1.425   5.643   5.423  0.8623 -0.3170 -0.0856
 1495THY     HO37352   1.402   5.606   5.337  1.1066 -0.2863 -0.1648
 1495THY    CA137353   1.516   5.737   5.402  0.3505  0.3165 -0.5629
 1495THY    CA237354   1.531   5.845   5.497 -0.1778  0.5865 -0.0882
 1495THY    CP137355   1.443   5.863   5.623  0.1145 -0.5007 -0.0150
 1495THY    HP137356   1.396   5.766   5.643 -2.2210  0.3512 -1.0319
 1495THY    CP237357   1.511   5.918   5.749 -0.4837  0.0959 -0.1556
 1495THY    HP237358   1.437   5.899   5.828 -0.0061  0.8104  0.4758
 1495THY    HP337359   1.603   5.864   5.773 -1.6429 -1.1890  1.6656
 1495THY    HP437360   1.530   6.026   5.745 -0.1390  0.0044 -0.9697
 1495THY    CP337361   1.323   5.956   5.604  0.0919 -1.0021  0.4662
 1495THY    HP537362   1.248   5.942   5.682  0.8518 -0.2980  1.3470
 1495THY    HP637363   1.360   6.059   5.604  0.2089 -1.0280 -0.7891
 1495THY    HP737364   1.279   5.939   5.505 -0.0603  2.5228 -0.1883
 1495THY    CA337365   1.634   5.932   5.482 -0.5265  0.0121  0.0822
 1495THY    HA337366   1.657   6.010   5.555 -1.2708 -0.7635  1.1746
 1495THY    CA437367   1.720   5.920   5.369  0.4793 -0.4166 -0.9281
 1495THY    HA437368   1.799   5.994   5.361  2.8958 -2.6241  0.8253
 1495THY    CA537369   1.703   5.816   5.279  0.2572 -0.0248  1.0491
 1495THY    CM137370   1.802   5.803   5.157 -0.3729  0.2877 -0.6534
 1495THY    HM137371   1.892   5.745   5.181 -0.6586  0.5074  1.0617
 1495THY    HM237372   1.762   5.760   5.064  1.6530 -1.7885 -0.6609
 1495THY    HM337373   1.845   5.902   5.139 -2.4996  1.1224 -1.3803
 1495THY    CA637374   1.601   5.725   5.300  0.4814  0.3795  0.0115
 1495THY    HA637375   1.606   5.636   5.237 -0.4540  1.6606 -1.9958
 1496THY      O37376   4.858   4.753   7.407  0.3295 -0.1167 -0.3276
 1496THY     HO37377   4.770   4.764   7.367 -1.1983 -0.4005  2.6354
 1496THY    CA137378   4.877   4.872   7.473  0.0515 -0.3364  0.0491
 1496THY    CA237379   4.919   4.883   7.608 -0.4136  0.9992 -0.7249
 1496THY    CP137380   4.950   4.760   7.690 -0.1076 -0.0073  0.1826
 1496THY    HP137381   4.975   4.678   7.622 -0.8637  0.2876 -0.4579
 1496THY    CP237382   5.077   4.781   7.769 -0.5088  0.3858 -0.0254
 1496THY    HP237383   5.067   4.849   7.854 -0.5286 -1.5550  1.6047
 1496THY    HP337384   5.118   4.686   7.807 -0.3438  0.1351 -0.8216
 1496THY    HP437385   5.158   4.815   7.703 -0.4345  0.6677  0.2071
 1496THY    CP337386   4.825   4.736   7.773 -0.4611 -0.3924  0.8510
 1496THY    HP537387   4.829   4.650   7.841  1.4596 -2.1898 -1.3631
 1496THY    HP637388   4.793   4.821   7.835  0.3550  0.2811  0.3710
 1496THY    HP737389   4.742   4.720   7.703 -0.0213  1.1251 -0.0621
 1496THY    CA337390   4.914   5.009   7.667 -0.6616 -0.3296  0.2763
 1496THY    HA337391   4.940   5.022   7.771  0.1944 -0.6115  0.1081
 1496THY    CA437392   4.871   5.119   7.588 -0.1408  0.5151 -0.3720
 1496THY    HA437393   4.859   5.215   7.636 -3.6242  0.7972 -1.5064
 1496THY    CA537394   4.852   5.106   7.449  0.1725  0.0570  0.1310
 1496THY    CM137395   4.814   5.218   7.361  0.6786  0.3774 -0.3338
 1496THY    HM137396   4.871   5.304   7.398 -1.1268  1.7104 -0.4949
 1496THY    HM237397   4.833   5.199   7.255 -0.7915 -2.6248 -0.1715
 1496THY    HM337398   4.709   5.240   7.384  0.4315 -1.3630  0.3410
 1496THY    CA637399   4.848   4.981   7.386  0.3285 -0.6014 -0.7041
 1496THY    HA637400   4.823   4.975   7.281  0.7761  2.5329 -1.0906
 1497THY      O37401   6.946   9.680   2.207 -0.0001  0.1967 -0.0723
 1497THY     HO37402   6.937   9.768   2.248  1.1569  0.2451  0.1170
 1497THY    CA137403   6.827   9.616   2.224  0.1708 -0.7518  0.2207
 1497THY    CA237404   6.800   9.496   2.157  0.4058  0.2906 -0.4103
 1497THY    CP137405   6.904   9.434   2.059 -0.1315  0.2069  0.0930
 1497THY    HP137406   6.974   9.515   2.037  0.2632 -0.7277 -2.3808
 1497THY    CP237407   6.988   9.327   2.123  0.7814 -0.4062  0.1276
 1497THY    HP237408   7.033   9.252   2.056  1.2855 -0.6532  0.7261
 1497THY    HP337409   7.060   9.366   2.196 -1.1920 -2.3611  3.4117
 1497THY    HP437410   6.924   9.255   2.176 -0.0952  0.1119 -0.2200
 1497THY    CP337411   6.836   9.374   1.941  0.1498 -0.3464  0.2334
 1497THY    HP537412   6.920   9.331   1.885  0.0147  0.0487 -0.2764
 1497THY    HP637413   6.779   9.287   1.975  0.6593  0.0459  2.2668
 1497THY    HP737414   6.775   9.436   1.875 -2.1820 -1.9967  0.7228
 1497THY    CA337415   6.677   9.427   2.180 -0.7132 -1.2696  0.4796
 1497THY    HA337416   6.656   9.330   2.134  1.2535 -1.5332  0.0090
 1497THY    CA437417   6.583   9.487   2.267 -0.0918  0.5903  0.4792
 1497THY    HA437418   6.497   9.427   2.295  0.8043 -1.3929 -0.8258
 1497THY    CA537419   6.609   9.610   2.329 -0.2831 -0.0757  0.3137
 1497THY    CM137420   6.508   9.668   2.428  0.0385  0.3146  0.0763
 1497THY    HM137421   6.450   9.754   2.394 -0.0101 -0.2736 -1.3810
 1497THY    HM237422   6.439   9.585   2.451 -0.0493  0.7601  1.5583
 1497THY    HM337423   6.567   9.692   2.518  0.3372  1.2219 -0.3528
 1497THY    CA637424   6.729   9.679   2.305  0.1991  0.2231  0.0160
 1497THY    HA637425   6.753   9.770   2.358 -0.1084 -0.3083  1.0969
 1498THY      O37426   1.491   9.776   3.709  0.1807  0.0553 -0.4338
 1498THY     HO37427   1.506   9.687   3.744  1.6364  0.4311 -0.0218
 1498THY    CA137428   1.618   9.829   3.698  0.7406  0.2248 -0.0264
 1498THY    CA237429   1.642   9.965   3.664  0.0734 -0.6323 -0.6891
 1498THY    CP137430   1.532  10.067   3.645  0.3846  0.6365  0.5872
 1498THY    HP137431   1.439  10.010   3.654  0.3290  0.8368  1.4387
 1498THY    CP237432   1.534  10.161   3.765 -0.6864 -0.1383 -0.5297
 1498THY    HP237433   1.558  10.097   3.851  1.9045 -0.0565 -1.1243
 1498THY    HP337434   1.623  10.224   3.776  0.3604 -1.2070 -2.3184
 1498THY    HP437435   1.446  10.226   3.777 -0.7400 -0.0525 -1.3124
 1498THY    CP337436   1.548  10.142   3.504  0.0979 -0.3531 -0.2812
 1498THY    HP537437   1.527  10.073   3.421 -0.9048 -0.8145  0.3348
 1498THY    HP637438   1.469  10.218   3.505 -0.1674 -0.6187  1.3850
 1498THY    HP737439   1.651  10.177   3.496  0.5634 -1.9831 -2.4232
 1498THY    CA337440   1.774  10.013   3.666 -0.2970  0.1717  0.1317
 1498THY    HA337441   1.796  10.119   3.660  0.2314  0.0516 -0.0988
 1498THY    CA437442   1.878   9.920   3.694 -0.0941  0.2339  0.0593
 1498THY    HA437443   1.982   9.951   3.693 -0.4386  1.4846  0.5770
 1498THY    CA537444   1.853   9.785   3.719  0.1964  0.0671 -0.1217
 1498THY    CM137445   1.968   9.691   3.747  0.6904  0.4011  0.1539
 1498THY    HM137446   1.934   9.587   3.749 -1.1361  0.8474 -2.1935
 1498THY    HM237447   2.043   9.693   3.668  2.4989 -0.9042  1.7377
 1498THY    HM337448   2.025   9.717   3.837 -1.7343  1.5175  1.4928
 1498THY    CA637449   1.722   9.744   3.733  0.1750  0.1358 -0.0483
 1498THY    HA637450   1.706   9.638   3.750  0.2964  0.2707  0.9788
 1499THY      O37451   7.487   7.655   4.017  0.5985 -0.5443  0.2837
 1499THY     HO37452   7.566   7.700   4.053  1.3248 -1.5024 -0.0724
 1499THY    CA137453   7.519   7.529   4.004 -0.3205 -0.0737  0.5033
 1499THY    CA237454   7.431   7.437   3.954  0.3646  0.1577 -0.3082
 1499THY    CP137455   7.294   7.481   3.898  0.1016  0.3101 -0.6010
 1499THY    HP137456   7.273   7.581   3.936  0.4756 -0.6842  2.6042
 1499THY    CP237457   7.295   7.474   3.747 -0.0216 -0.1778 -0.5677
 1499THY    HP237458   7.199   7.512   3.708 -0.7765 -0.7953  0.6307
 1499THY    HP337459   7.372   7.545   3.715  1.2626 -1.1236  0.3143
 1499THY    HP437460   7.298   7.371   3.709  2.3710 -0.2952 -0.2078
 1499THY    CP337461   7.175   7.400   3.955 -0.0314  0.0720 -0.0944
 1499THY    HP537462   7.182   7.293   3.933 -0.9560 -0.1918  0.8616
 1499THY    HP637463   7.185   7.409   4.063  1.2790 -1.3874 -0.0647
 1499THY    HP737464   7.088   7.445   3.905  0.0995 -0.2089 -0.5818
 1499THY    CA337465   7.465   7.300   3.951  0.0879  0.3047  0.0772
 1499THY    HA337466   7.399   7.227   3.905 -1.1207 -0.0895  2.3121
 1499THY    CA437467   7.580   7.255   4.012 -0.8834  0.6306 -0.7883
 1499THY    HA437468   7.615   7.152   4.013  0.4804  1.0681  0.2552
 1499THY    CA537469   7.653   7.347   4.085 -0.2461  0.7537 -0.3867
 1499THY    CM137470   7.774   7.304   4.165  0.4103 -0.1475 -0.2211
 1499THY    HM137471   7.763   7.204   4.207 -0.1675 -0.6007 -1.3977
 1499THY    HM237472   7.858   7.293   4.095 -0.0822  1.1958 -1.0658
 1499THY    HM337473   7.802   7.370   4.248  0.6421  1.4154 -1.4863
 1499THY    CA637474   7.626   7.480   4.081 -0.5009  0.0881  0.8142
 1499THY    HA637475   7.699   7.546   4.128  1.4525 -1.0473 -0.4658
 1500THY      O37476   8.332   0.874   5.983  0.2953 -0.4266  0.5047
 1500THY     HO37477   8.277   0.807   5.939  1.7291  0.6322 -3.3413
 1500THY    CA137478   8.301   0.987   5.917  0.6198 -0.4483  0.1591
 1500THY    CA237479   8.383   1.103   5.918  0.2771 -0.0109 -0.3277
 1500THY    CP137480   8.521   1.098   5.990  0.4018 -0.3611 -0.5632
 1500THY    HP137481   8.543   0.997   6.026 -0.6308 -0.1551  0.7360
 1500THY    CP237482   8.636   1.143   5.901 -0.1049 -0.4267 -0.2958
 1500THY    HP237483   8.633   1.085   5.808 -0.4725 -1.0814  0.1228
 1500THY    HP337484   8.626   1.251   5.885  2.6977  0.2021  1.5244
 1500THY    HP437485   8.730   1.124   5.955 -1.8365 -2.7756  2.1402
 1500THY    CP337486   8.510   1.187   6.112  0.4116  0.0284 -0.9190
 1500THY    HP537487   8.435   1.148   6.183  0.4227  0.8896 -0.4234
 1500THY    HP637488   8.610   1.194   6.156  0.2361  0.3230 -0.5527
 1500THY    HP737489   8.486   1.291   6.088  3.1472  0.9006 -0.2043
 1500THY    CA337490   8.345   1.216   5.844 -0.3474  0.2872 -0.6042
 1500THY    HA337491   8.414   1.300   5.845 -1.8167  1.5424  0.9287
 1500THY    CA437492   8.230   1.212   5.763 -0.2148 -0.5528  0.1794
 1500THY    HA437493   8.207   1.290   5.691  1.5707 -0.2311 -0.0751
 1500THY    CA537494   8.151   1.096   5.756 -0.4334 -0.7785 -0.0085
 1500THY    CM137495   8.030   1.091   5.661  0.2310 -0.7428 -0.4184
 1500THY    HM137496   7.980   0.994   5.666  1.2139 -1.3086 -1.2280
 1500THY    HM237497   7.969   1.180   5.685  1.4261 -0.4494  1.8636
 1500THY    HM337498   8.060   1.101   5.556 -0.3906  0.2679 -0.5169
 1500THY    CA637499   8.185   0.985   5.836  0.2556 -0.7108  0.6681
 1500THY    HA637500   8.116   0.902   5.829 -0.5705  0.0192 -0.1155
 1501THY      O37501   2.436   9.702   8.590  0.2142 -0.4182 -0.4837
 1501THY     HO37502   2.506   9.715   8.656  0.0618 -0.0107 -0.3936
 1501THY    CA137503   2.382   9.825   8.570 -0.0348 -0.1715  0.8370
 1501THY    CA237504   2.316   9.840   8.440 -0.4620 -0.4301 -0.4277
 1501THY    CP137505   2.305   9.717   8.354 -0.8780 -0.2409 -0.9411
 1501THY    HP137506   2.388   9.650   8.376  2.1117  2.7379 -2.2890
 1501THY    CP237507   2.171   9.651   8.396  0.1897 -0.2493  0.9041
 1501THY    HP237508   2.146   9.558   8.344  1.9153 -1.0221  1.3835
 1501THY    HP337509   2.174   9.632   8.504 -0.8070  0.0229  0.9933
 1501THY    HP437510   2.089   9.724   8.387  0.4641 -0.0084  0.3067
 1501THY    CP337511   2.311   9.737   8.205  0.1387  0.0356  0.3396
 1501THY    HP537512   2.214   9.748   8.155  0.9824 -2.1332 -1.9872
 1501THY    HP637513   2.381   9.819   8.182  1.1242 -0.9939 -0.4698
 1501THY    HP737514   2.343   9.643   8.159  0.5197  0.1280  0.4086
 1501THY    CA337515   2.261   9.969   8.419 -0.8488  0.2768  0.2008
 1501THY    HA337516   2.211   9.986   8.324 -1.5220  0.9594  0.6631
 1501THY    CA437517   2.268  10.072   8.516  0.4648  0.8635 -0.5857
 1501THY    HA437518   2.218  10.166   8.498 -1.6856 -0.3921 -1.5937
 1501THY    CA537519   2.347  10.054   8.632 -0.6568  0.4395  0.3499
 1501THY    CM137520   2.368  10.166   8.733 -0.8632  0.1249 -0.0423
 1501THY    HM137521   2.322  10.259   8.696  0.1255 -0.2308 -2.3550
 1501THY    HM237522   2.319  10.143   8.828  0.1435  0.1198  0.4827
 1501THY    HM337523   2.476  10.179   8.742 -0.5185 -0.8130 -2.1406
 1501THY    CA637524   2.398   9.926   8.659  0.0301 -0.1272 -0.0138
 1501THY    HA637525   2.446   9.910   8.755 -0.3192  0.9406  0.3572
 1502THY      O37526   1.676   9.062   2.812 -0.1398  0.7385  0.1670
 1502THY     HO37527   1.613   9.126   2.849  2.4116  2.4573  1.8926
 1502THY    CA137528   1.793   9.110   2.869 -0.0111  0.0896 -0.0885
 1502THY    CA237529   1.870   9.025   2.957  0.0973  0.0873 -0.1122
 1502THY    CP137530   1.821   8.887   2.990  1.2775 -0.3275 -0.4996
 1502THY    HP137531   1.713   8.871   2.995  1.4973 -2.2420 -0.9731
 1502THY    CP237532   1.876   8.789   2.885 -0.1746  0.0284 -0.1356
 1502THY    HP237533   1.848   8.688   2.916  1.1478 -0.0708  0.8124
 1502THY    HP337534   1.836   8.821   2.788  2.1286  0.8819 -0.8594
 1502THY    HP437535   1.985   8.789   2.881 -0.0071 -2.7565  1.6374
 1502THY    CP337536   1.862   8.845   3.131  0.3985 -0.4829  0.4153
 1502THY    HP537537   1.968   8.821   3.143  0.4209  0.1494  1.8307
 1502THY    HP637538   1.845   8.926   3.204 -0.4528 -1.5194  1.4138
 1502THY    HP737539   1.808   8.758   3.170  0.5299  0.2749  2.4213
 1502THY    CA337540   1.985   9.077   3.014 -0.0992 -0.3190 -0.3014
 1502THY    HA337541   2.049   9.016   3.077 -0.9357 -1.3946 -0.4666
 1502THY    CA437542   2.024   9.209   2.989  0.3010 -0.5233 -0.6145
 1502THY    HA437543   2.117   9.258   3.018 -1.3135  1.5246  1.5668
 1502THY    CA537544   1.943   9.295   2.909 -0.5210  0.5705 -0.0867
 1502THY    CM137545   1.981   9.443   2.887  0.3532  0.3403 -0.1996
 1502THY    HM137546   1.982   9.469   2.780  1.1015  0.1660 -0.2404
 1502THY    HM237547   1.916   9.518   2.933 -1.6356 -1.2214 -0.2850
 1502THY    HM337548   2.078   9.460   2.934 -0.3717  0.3238  1.3608
 1502THY    CA637549   1.829   9.239   2.844  0.3574 -0.2885  0.3385
 1502THY    HA637550   1.770   9.301   2.777 -0.6322 -0.0043  1.4327
 1503THY      O37551   7.997   4.768   9.571  0.3228  0.0624 -0.9731
 1503THY     HO37552   8.030   4.699   9.511  2.1687  1.4309 -1.5913
 1503THY    CA137553   7.860   4.755   9.571 -0.5487  0.3023 -0.2118
 1503THY    CA237554   7.785   4.839   9.648 -0.1044 -0.1273 -0.1467
 1503THY    CP137555   7.837   4.927   9.758  0.1763  0.1293 -0.0495
 1503THY    HP137556   7.943   4.941   9.738  0.4087  0.4930  1.3693
 1503THY    CP237557   7.778   5.067   9.768 -0.7266  0.9374  0.0134
 1503THY    HP237558   7.674   5.051   9.800 -0.1745 -0.4509  1.2518
 1503THY    HP337559   7.825   5.121   9.851 -2.4349  1.6082  0.5962
 1503THY    HP437560   7.793   5.130   9.680 -0.1549  0.4404 -0.2492
 1503THY    CP337561   7.835   4.851   9.892  0.2842 -0.3362  0.1416
 1503THY    HP537562   7.866   4.746   9.888  1.2211 -0.0644  0.0550
 1503THY    HP637563   7.901   4.900   9.964  1.1847  1.4765 -1.8122
 1503THY    HP737564   7.731   4.855   9.926  0.6685  1.3421  1.2277
 1503THY    CA337565   7.647   4.839   9.629 -0.3728  0.1568  0.0347
 1503THY    HA337566   7.591   4.913   9.685  1.3248  0.6609  1.1494
 1503THY    CA437567   7.592   4.747   9.542 -0.0267 -0.7232 -0.4452
 1503THY    HA437568   7.483   4.743   9.540 -0.0180 -1.7742  0.3013
 1503THY    CA537569   7.668   4.642   9.479 -0.2198 -1.0274  0.6856
 1503THY    CM137570   7.600   4.535   9.395 -0.3204 -0.3099  0.6819
 1503THY    HM137571   7.650   4.514   9.299 -2.1281  0.7280 -0.5554
 1503THY    HM237572   7.570   4.443   9.445 -0.2272 -1.0842 -0.6374
 1503THY    HM337573   7.504   4.574   9.360 -1.3101 -1.6502  1.8101
 1503THY    CA637574   7.810   4.650   9.495  0.9330 -0.4030 -0.2843
 1503THY    HA637575   7.876   4.576   9.449  0.5443  0.7639 -2.9000
 1504THY      O37576   3.016   2.647   2.235  0.0695 -0.2268  0.2845
 1504THY     HO37577   3.024   2.633   2.331  1.8029  1.8826  0.5208
 1504THY    CA137578   2.901   2.583   2.207 -0.4055 -0.7391  0.6278
 1504THY    CA237579   2.880   2.536   2.073 -0.5050 -0.4575  0.0053
 1504THY    CP137580   3.006   2.517   1.984  0.0390 -0.2062  0.6934
 1504THY    HP137581   3.093   2.573   2.019  0.6329  0.0285 -1.0819
 1504THY    CP237582   3.050   2.366   1.979  0.4200  0.2102 -0.1066
 1504THY    HP237583   3.145   2.354   1.926 -0.0267  0.6311 -1.0162
 1504THY    HP337584   3.071   2.309   2.071 -0.0127  0.6762  0.2862
 1504THY    HP437585   2.967   2.315   1.929  0.4724 -0.4204  0.4290
 1504THY    CP337586   2.976   2.569   1.841  0.1141  1.0611  0.6353
 1504THY    HP537587   2.959   2.675   1.859 -0.4810  1.5445 -2.3600
 1504THY    HP637588   3.061   2.563   1.773 -0.7502 -0.1082 -0.3845
 1504THY    HP737589   2.883   2.543   1.789 -0.6687  2.0108  1.5207
 1504THY    CA337590   2.747   2.505   2.023  0.4881  0.4424 -0.0768
 1504THY    HA337591   2.727   2.451   1.931 -1.1017 -0.1201  0.5702
 1504THY    CA437592   2.638   2.526   2.108 -0.4406 -0.2129 -0.3157
 1504THY    HA437593   2.533   2.517   2.080 -1.0168  2.3081  0.7132
 1504THY    CA537594   2.665   2.583   2.237 -0.4462  0.8000  0.1356
 1504THY    CM137595   2.554   2.590   2.335  0.9535  0.6134 -0.2181
 1504THY    HM137596   2.473   2.518   2.317  1.4935  0.2129 -1.1517
 1504THY    HM237597   2.596   2.580   2.436  2.4522 -1.6864 -0.9628
 1504THY    HM337598   2.497   2.682   2.320 -0.3896 -0.1446  0.0597
 1504THY    CA637599   2.795   2.600   2.293  0.0713  0.2068 -0.1143
 1504THY    HA637600   2.812   2.643   2.391 -0.4910 -0.6855  0.3959
 1505THY      O37601   0.114   6.358   7.066  0.1603 -0.8195 -0.5417
 1505THY     HO37602   0.053   6.316   7.003  0.8710 -3.2586  0.2957
 1505THY    CA137603   0.032   6.416   7.157 -0.1313  0.9379  0.0197
 1505THY    CA237604   0.080   6.455   7.290 -0.6020  0.2743  0.0929
 1505THY    CP137605   0.221   6.432   7.339  0.5242 -0.2121  0.2046
 1505THY    HP137606   0.259   6.345   7.284 -2.0799  0.0034 -2.1628
 1505THY    CP237607   0.298   6.551   7.294 -0.1820 -0.0715 -0.2078
 1505THY    HP237608   0.397   6.515   7.263  1.3578  4.2050 -1.0552
 1505THY    HP337609   0.251   6.593   7.204  0.0477 -0.9544 -0.7481
 1505THY    HP437610   0.307   6.627   7.372  2.1203 -1.1452  0.6334
 1505THY    CP337611   0.240   6.401   7.486 -0.3448 -0.1639 -0.4140
 1505THY    HP537612   0.245   6.493   7.546 -2.9174 -0.3427  0.1915
 1505THY    HP637613   0.172   6.327   7.529 -1.0481  0.4338 -0.4629
 1505THY    HP737614   0.335   6.349   7.494 -0.1530  0.4418  1.9148
 1505THY    CA337615  -0.012   6.518   7.373  0.2946  0.4297  0.0378
 1505THY    HA337616   0.013   6.550   7.474  2.3425  1.9279 -0.8649
 1505THY    CA437617  -0.142   6.555   7.319 -0.3867 -0.0410 -0.6136
 1505THY    HA437618  -0.203   6.618   7.382 -0.1791 -0.5389  0.1022
 1505THY    CA537619  -0.180   6.522   7.187 -0.9494  0.3362 -0.3074
 1505THY    CM137620  -0.309   6.552   7.139 -0.8521 -0.6997  0.3792
 1505THY    HM137621  -0.339   6.471   7.071  1.8480 -0.7950 -0.8215
 1505THY    HM237622  -0.383   6.560   7.220  1.3217 -1.5157  2.5526
 1505THY    HM337623  -0.311   6.649   7.089  2.1474 -1.6740 -1.9410
 1505THY    CA637624  -0.092   6.455   7.106 -0.6258  0.1026 -0.9939
 1505THY    HA637625  -0.121   6.419   7.008  1.7506  1.0794 -2.1364
 1506THY      O37626   1.793   4.323   2.329 -0.1141 -0.2249 -0.3070
 1506THY     HO37627   1.791   4.335   2.425  0.2877 -1.3327 -0.1517
 1506THY    CA137628   1.676   4.267   2.293  0.2834 -0.4411 -0.4845
 1506THY    CA237629   1.617   4.318   2.176 -0.0030 -0.3204 -0.3453
 1506THY    CP137630   1.692   4.424   2.084  0.2702  0.1923 -0.0805
 1506THY    HP137631   1.746   4.493   2.151  0.8944 -0.7194  0.3748
 1506THY    CP237632   1.786   4.357   1.984  0.2731 -0.0658  0.1477
 1506THY    HP237633   1.803   4.442   1.918 -3.0192  3.2339  3.1035
 1506THY    HP337634   1.877   4.329   2.038 -0.8437  0.2354  2.2781
 1506THY    HP437635   1.743   4.266   1.940  0.5051  0.2426 -0.7370
 1506THY    CP337636   1.593   4.516   2.011 -0.0031 -0.7765  0.0177
 1506THY    HP537637   1.653   4.600   1.973 -1.5048  0.1792 -0.3477
 1506THY    HP637638   1.539   4.461   1.933 -0.6403  0.4671 -0.4436
 1506THY    HP737639   1.534   4.557   2.093  1.1405 -1.4608  1.2319
 1506THY    CA337640   1.485   4.274   2.147  0.1621  0.1663 -1.0894
 1506THY    HA337641   1.435   4.313   2.058  0.0454 -0.4879 -1.3253
 1506THY    CA437642   1.425   4.176   2.233 -0.2817  0.1086 -0.7895
 1506THY    HA437643   1.320   4.149   2.224 -0.1879  0.0033 -1.6783
 1506THY    CA537644   1.484   4.132   2.351 -0.0462 -0.2188 -0.5953
 1506THY    CM137645   1.403   4.043   2.439 -0.3679 -0.5991  0.0163
 1506THY    HM137646   1.336   4.102   2.502 -0.6558 -0.0738 -0.7607
 1506THY    HM237647   1.339   3.971   2.386 -3.0081  1.8232 -0.2967
 1506THY    HM337648   1.471   4.001   2.514 -1.6493  0.1667  1.6618
 1506THY    CA637649   1.610   4.183   2.382 -0.5561  0.2121 -0.4997
 1506THY    HA637650   1.657   4.141   2.470 -2.2237 -0.4362  0.1315
 1507THY      O37651   2.020   0.864   4.125 -0.4267 -0.1161  0.1452
 1507THY     HO37652   2.081   0.873   4.200  0.5210 -2.2522 -0.2856
 1507THY    CA137653   1.940   0.970   4.147 -0.2186 -0.2317  0.9667
 1507THY    CA237654   1.819   0.993   4.080  0.3805 -0.3850 -0.5360
 1507THY    CP137655   1.778   0.915   3.960  0.3290  0.0828  0.2518
 1507THY    HP137656   1.868   0.913   3.898  1.4923  0.7994  1.8390
 1507THY    CP237657   1.725   0.775   3.992 -0.9233  0.0809  0.0758
 1507THY    HP237658   1.807   0.727   4.047  0.5471  2.0805 -0.2617
 1507THY    HP337659   1.625   0.768   4.035 -0.9458 -1.0969 -0.1126
 1507THY    HP437660   1.704   0.728   3.895 -0.7622  2.1244 -0.9912
 1507THY    CP337661   1.667   0.978   3.876 -0.4368  0.2632  0.6948
 1507THY    HP537662   1.657   0.910   3.792 -0.5536  0.9158  0.1691
 1507THY    HP637663   1.573   0.986   3.932  0.6304  2.4107  2.3627
 1507THY    HP737664   1.701   1.075   3.836  0.6467 -0.4530 -0.1559
 1507THY    CA337665   1.742   1.099   4.135 -0.6572 -1.1784 -0.0501
 1507THY    HA337666   1.656   1.135   4.080 -0.6816  1.5044  1.5630
 1507THY    CA437667   1.783   1.172   4.249  0.8940  0.1398 -0.3557
 1507THY    HA437668   1.717   1.251   4.284  1.0160 -0.2407  0.7913
 1507THY    CA537669   1.896   1.137   4.321 -0.5380  0.0744 -0.5998
 1507THY    CM137670   1.944   1.188   4.452 -0.3009  0.0075 -0.0586
 1507THY    HM137671   1.952   1.297   4.447 -0.8902  0.0379 -0.4437
 1507THY    HM237672   1.874   1.154   4.529 -0.2262  0.7084  0.3290
 1507THY    HM337673   2.039   1.146   4.486 -0.7791 -0.2735  0.9507
 1507THY    CA637674   1.973   1.037   4.266 -0.2230  0.3636  0.0265
 1507THY    HA637675   2.046   0.996   4.335  0.8026  1.1347 -0.5750
 1508THY      O37676   5.455   2.050   2.589  0.4598  0.2205  0.2551
 1508THY     HO37677   5.432   2.050   2.494 -2.3487 -0.9946  0.8294
 1508THY    CA137678   5.357   2.117   2.650 -1.3223 -0.0977  0.5459
 1508THY    CA237679   5.388   2.217   2.748  0.1705 -0.0768 -0.3489
 1508THY    CP137680   5.535   2.243   2.781  0.2215  0.8233  0.1771
 1508THY    HP137681   5.588   2.222   2.687 -0.4983  0.1841 -0.0935
 1508THY    CP237682   5.560   2.396   2.787 -0.0002  0.4568 -0.3099
 1508THY    HP237683   5.512   2.440   2.875  1.2844  0.3934  0.4447
 1508THY    HP337684   5.666   2.421   2.800  0.2207 -0.5334 -0.1088
 1508THY    HP437685   5.533   2.442   2.692 -0.9853  0.7694  0.1085
 1508THY    CP337686   5.589   2.157   2.893  0.5004 -0.3116  0.6345
 1508THY    HP537687   5.610   2.056   2.856  0.1980 -0.4224  0.7544
 1508THY    HP637688   5.684   2.192   2.934  0.9702  0.0764 -0.7478
 1508THY    HP737689   5.518   2.149   2.976  1.3037 -0.0562  1.3590
 1508THY    CA337690   5.281   2.288   2.807 -0.1504  0.4452  0.4532
 1508THY    HA337691   5.293   2.361   2.886 -1.3996  0.0938  0.9924
 1508THY    CA437692   5.150   2.264   2.764 -0.3324 -0.0358 -0.5967
 1508THY    HA437693   5.070   2.333   2.789  0.4316  0.5637  0.2862
 1508THY    CA537694   5.126   2.169   2.667  0.2566  0.1193  0.8484
 1508THY    CM137695   4.992   2.161   2.600 -0.9409  0.5956 -0.6976
 1508THY    HM137696   4.913   2.201   2.665  1.3568  0.0339  2.6739
 1508THY    HM237697   4.981   2.218   2.507 -3.7791 -0.2628 -0.9709
 1508THY    HM337698   4.969   2.056   2.579  0.2225  0.1249  0.2506
 1508THY    CA637699   5.229   2.092   2.607  0.4310 -0.2565 -0.2072
 1508THY    HA637700   5.211   2.021   2.526 -0.9514 -1.4381  1.0506
 1509THY      O37701   7.167   6.128   8.186  0.0463  0.1416  0.3708
 1509THY     HO37702   7.208   6.130   8.098 -0.8480 -0.4160 -0.0763
 1509THY    CA137703   7.262   6.115   8.282  0.0077 -0.6248  0.1434
 1509THY    CA237704   7.230   6.133   8.416  0.9237  0.0640 -0.1823
 1509THY    CP137705   7.079   6.158   8.455 -0.3375  0.1927  0.3004
 1509THY    HP137706   7.030   6.221   8.379 -0.0494 -0.0469 -0.0888
 1509THY    CP237707   6.991   6.029   8.466  0.1341 -0.4274  0.6332
 1509THY    HP237708   7.015   5.973   8.557  0.4537 -0.9202  0.2453
 1509THY    HP337709   6.885   6.053   8.453  0.0029 -0.0318  2.2425
 1509THY    HP437710   7.007   5.963   8.380  2.0610 -1.0080  1.3890
 1509THY    CP337711   7.079   6.214   8.600  0.4334  0.5158 -0.3508
 1509THY    HP537712   7.095   6.132   8.670 -0.5776  0.7546  0.1800
 1509THY    HP637713   7.157   6.291   8.605 -0.1590  1.0455  1.1244
 1509THY    HP737714   6.984   6.262   8.624 -1.2699 -2.4128 -0.6908
 1509THY    CA337715   7.334   6.117   8.514  0.5043 -0.0391  0.1026
 1509THY    HA337716   7.310   6.124   8.620  0.5806 -3.0103  0.4054
 1509THY    CA437717   7.463   6.090   8.470 -0.3845 -1.3333  0.3216
 1509THY    HA437718   7.535   6.090   8.552 -1.5613 -1.0058  1.3906
 1509THY    CA537719   7.491   6.072   8.331 -0.0917 -0.0524 -0.8008
 1509THY    CM137720   7.636   6.059   8.281  0.0777 -0.2630 -1.2979
 1509THY    HM137721   7.707   6.028   8.359 -0.2240 -0.4510 -1.0919
 1509THY    HM237722   7.640   5.981   8.205 -0.6413 -1.8568  0.2283
 1509THY    HM337723   7.671   6.156   8.245  0.6659 -0.1370 -0.4379
 1509THY    CA637724   7.386   6.084   8.237 -0.0188 -0.1951 -0.2590
 1509THY    HA637725   7.401   6.050   8.135 -1.8661 -0.7812 -0.3778
 1510THY      O37726   0.897   9.908   1.970 -0.1754 -0.5246 -0.1402
 1510THY     HO37727   0.883   9.820   2.010 -0.7146 -0.2052  0.3720
 1510THY    CA137728   1.012   9.901   1.894  0.1480 -0.2862  0.3063
 1510THY    CA237729   1.069  10.021   1.837  0.3090  1.0324  0.3959
 1510THY    CP137730   0.995  10.157   1.869  0.1757 -0.2240 -0.2993
 1510THY    HP137731   0.888  10.136   1.871  0.3792 -2.0982 -2.7806
 1510THY    CP237732   1.017  10.216   2.008  0.5538  0.0328 -0.1238
 1510THY    HP237733   1.116  10.201   2.052  0.8846  0.1832 -0.8057
 1510THY    HP337734   0.997  10.324   2.005 -1.1950 -0.2621 -3.1282
 1510THY    HP437735   0.946  10.173   2.080 -1.1043  0.8123 -1.2268
 1510THY    CP337736   1.018  10.257   1.752  0.1265  0.1044 -0.7554
 1510THY    HP537737   0.968  10.352   1.774 -0.6342 -0.4086 -0.2187
 1510THY    HP637738   1.124  10.282   1.747  0.4139 -0.0781  2.4246
 1510THY    HP737739   0.985  10.211   1.657  3.5872 -0.5319 -1.7830
 1510THY    CA337740   1.189  10.013   1.763  0.0894  0.2082 -0.0602
 1510THY    HA337741   1.236  10.102   1.721 -1.6820  1.3946  0.3855
 1510THY    CA437742   1.264   9.895   1.760 -0.2319  0.6563 -0.4881
 1510THY    HA437743   1.364   9.890   1.717 -0.5893 -1.7802 -1.1729
 1510THY    CA537744   1.211   9.776   1.818  0.5968 -0.8800  0.6270
 1510THY    CM137745   1.299   9.654   1.818  0.3524 -0.2961 -0.2945
 1510THY    HM137746   1.263   9.570   1.757  0.7064 -2.7469  2.6125
 1510THY    HM237747   1.402   9.675   1.788 -0.3536  0.9451 -2.0154
 1510THY    HM337748   1.298   9.621   1.923 -0.6915  0.3865 -0.0689
 1510THY    CA637749   1.083   9.781   1.879  0.4391  0.3316 -0.0589
 1510THY    HA637750   1.048   9.687   1.920  0.6558  0.5622  0.6640
 1511THY      O37751   0.502   4.313   3.983 -0.4035  0.3139 -0.1331
 1511THY     HO37752   0.517   4.250   4.055 -0.8766  1.1320  0.7004
 1511THY    CA137753   0.612   4.395   3.960 -0.1479  0.8643  1.2980
 1511THY    CA237754   0.621   4.478   3.843  0.4386  0.3734 -0.4709
 1511THY    CP137755   0.519   4.467   3.733 -0.4091 -0.5036  0.4718
 1511THY    HP137756   0.434   4.400   3.749 -0.1811 -0.8168  0.3801
 1511THY    CP237757   0.471   4.608   3.692  0.1102 -0.6456  0.7226
 1511THY    HP237758   0.422   4.657   3.777  0.1825 -0.4541  0.6528
 1511THY    HP337759   0.559   4.670   3.674 -0.3636 -0.1484  0.0640
 1511THY    HP437760   0.415   4.609   3.598  0.6874  3.6499  0.2390
 1511THY    CP337761   0.585   4.408   3.603  0.3690  0.2287 -0.3180
 1511THY    HP537762   0.642   4.317   3.622 -0.7734 -0.6464 -0.9143
 1511THY    HP637763   0.509   4.378   3.529  0.3289 -3.0680  0.9244
 1511THY    HP737764   0.656   4.472   3.549 -1.2434  1.2137 -1.3628
 1511THY    CA337765   0.744   4.545   3.831 -0.0314  0.5767 -0.3827
 1511THY    HA337766   0.769   4.586   3.733  0.3250 -1.3319 -1.1249
 1511THY    CA437767   0.834   4.547   3.935 -0.3594 -0.0024  0.8444
 1511THY    HA437768   0.931   4.596   3.929 -0.1292 -0.3941  1.2813
 1511THY    CA537769   0.816   4.482   4.060  0.1395  0.2867  0.1948
 1511THY    CM137770   0.920   4.494   4.169 -0.0495  0.1618 -0.0751
 1511THY    HM137771   0.871   4.521   4.263  1.5695  2.3872  0.2208
 1511THY    HM237772   0.971   4.398   4.183 -1.0243 -0.1293  1.7586
 1511THY    HM337773   0.985   4.582   4.157  2.4329 -1.4819  0.5853
 1511THY    CA637774   0.704   4.407   4.066  0.2019  0.5179  0.3206
 1511THY    HA637775   0.675   4.364   4.161 -1.1309  2.9076  1.0740
 1512THY      O37776   6.962   4.633   0.544  0.2194  0.0449  0.2026
 1512THY     HO37777   6.897   4.703   0.566  2.5554  2.2141  0.7358
 1512THY    CA137778   7.074   4.670   0.616  0.9005  0.3927  0.1507
 1512THY    CA237779   7.197   4.618   0.583  0.3388 -0.3451 -0.7887
 1512THY    CP137780   7.216   4.501   0.469 -0.2321 -0.2481  0.3122
 1512THY    HP137781   7.135   4.428   0.478 -0.2428 -0.3758 -0.6964
 1512THY    CP237782   7.205   4.571   0.333  0.1449 -0.2787  0.1167
 1512THY    HP237783   7.102   4.597   0.305  0.5492 -0.4493 -1.6513
 1512THY    HP337784   7.268   4.661   0.334  0.6737 -0.3732 -4.4970
 1512THY    HP437785   7.247   4.513   0.250  0.2514  2.0239 -1.5442
 1512THY    CP337786   7.355   4.431   0.479  0.1063  0.3328 -0.5786
 1512THY    HP537787   7.429   4.510   0.461 -1.9284  2.7225  0.9175
 1512THY    HP637788   7.364   4.390   0.580  0.4602  0.0560 -0.7186
 1512THY    HP737789   7.372   4.341   0.418 -0.1104 -1.2446  1.5655
 1512THY    CA337790   7.312   4.690   0.640  0.2613  0.6334 -0.4001
 1512THY    HA337791   7.411   4.661   0.604  0.3177  0.7366 -0.3259
 1512THY    CA437792   7.292   4.790   0.738 -0.0459 -0.0682 -0.2703
 1512THY    HA437793   7.377   4.842   0.780 -0.5503 -1.5544  2.8633
 1512THY    CA537794   7.169   4.817   0.778  0.2868  0.4500 -0.7070
 1512THY    CM137795   7.147   4.934   0.870  0.1561  0.0319 -0.0612
 1512THY    HM137796   7.115   5.028   0.825  1.7196  0.3921 -0.4895
 1512THY    HM237797   7.069   4.903   0.940 -0.1688  1.8478  0.4205
 1512THY    HM337798   7.238   4.958   0.926  0.3456  0.0045 -0.3537
 1512THY    CA637799   7.060   4.761   0.721 -0.3018 -0.2654 -0.1033
 1512THY    HA637800   6.963   4.786   0.764 -0.5260 -2.6545  0.9542
 1513THY      O37801   7.643   4.417   3.925  1.0505 -1.1404  0.3893
 1513THY     HO37802   7.690   4.358   3.987  2.1736  1.7196  2.4874
 1513THY    CA137803   7.646   4.355   3.805  0.5289  0.2211  0.4827
 1513THY    CA237804   7.548   4.382   3.702 -0.3527  0.4203 -0.0485
 1513THY    CP137805   7.454   4.503   3.707  0.1542 -0.1100  0.7602
 1513THY    HP137806   7.425   4.530   3.810 -0.3526  0.8879  0.3698
 1513THY    CP237807   7.521   4.631   3.653 -0.3478 -0.4333 -0.0229
 1513THY    HP237808   7.457   4.718   3.672  0.2323 -0.3259  1.5952
 1513THY    HP337809   7.620   4.648   3.698 -1.3010 -1.5733  2.7134
 1513THY    HP437810   7.537   4.630   3.545 -1.9721  0.5229 -0.3065
 1513THY    CP337811   7.313   4.487   3.629  0.8452  0.2865  0.1813
 1513THY    HP537812   7.262   4.398   3.668 -0.4695  0.6732 -0.6060
 1513THY    HP637813   7.249   4.571   3.658 -1.3057 -1.2314  0.0519
 1513THY    HP737814   7.329   4.483   3.520  2.4811  2.1825  0.3026
 1513THY    CA337815   7.550   4.301   3.590 -0.4547 -0.2764 -0.0822
 1513THY    HA337816   7.482   4.318   3.507 -1.2642 -1.1170  0.3889
 1513THY    CA437817   7.648   4.199   3.575  0.1194 -0.0055 -0.1660
 1513THY    HA437818   7.644   4.139   3.484  2.5193  0.2698 -0.4975
 1513THY    CA537819   7.731   4.165   3.679  0.7595  0.2970  0.0318
 1513THY    CM137820   7.826   4.055   3.666 -0.0601  0.0831 -0.7985
 1513THY    HM137821   7.760   3.970   3.644 -0.8846  0.2320  0.8952
 1513THY    HM237822   7.899   4.066   3.586  0.0719  0.6495 -0.6044
 1513THY    HM337823   7.859   4.040   3.769 -3.2709  0.6947  0.4648
 1513THY    CA637824   7.728   4.242   3.799 -0.0449 -0.0658  0.2571
 1513THY    HA637825   7.787   4.217   3.887  1.1266  2.2158  0.1838
 1514THY      O37826   8.073   0.764   3.844  0.2955  0.2291 -0.7646
 1514THY     HO37827   8.008   0.698   3.814 -1.1175  0.0431  2.3372
 1514THY    CA137828   8.005   0.863   3.902 -0.2560  0.2693  0.1554
 1514THY    CA237829   8.065   0.966   3.983 -0.3754  0.1601  0.6905
 1514THY    CP137830   8.218   0.972   4.012 -0.3663  0.5523 -0.7275
 1514THY    HP137831   8.257   0.870   4.011  1.0867  1.0447  0.8540
 1514THY    CP237832   8.273   1.056   3.902  0.4805  0.1077  0.7116
 1514THY    HP237833   8.241   1.018   3.804  0.4627  0.4297  0.5929
 1514THY    HP337834   8.234   1.157   3.916 -0.1692 -0.3845  2.6690
 1514THY    HP437835   8.383   1.060   3.901  0.4629  1.1075 -0.5195
 1514THY    CP337836   8.252   1.026   4.154  0.6485  0.0385 -0.1677
 1514THY    HP537837   8.232   1.134   4.153 -0.2197 -0.1009  0.8967
 1514THY    HP637838   8.186   0.983   4.230 -0.6506  3.7037  0.9586
 1514THY    HP737839   8.359   1.010   4.175  0.7500 -1.0982 -1.4314
 1514THY    CA337840   7.984   1.069   4.025  0.4063 -0.2279  0.3986
 1514THY    HA337841   8.014   1.152   4.088  0.9683  0.7593 -1.0947
 1514THY    CA437842   7.842   1.069   3.998 -0.0886 -0.1798 -0.0868
 1514THY    HA437843   7.781   1.147   4.044 -0.2705  0.0003 -0.6247
 1514THY    CA537844   7.789   0.967   3.920  0.1168 -0.1281  0.2769
 1514THY    CM137845   7.637   0.956   3.893  0.3458  0.4010 -0.3840
 1514THY    HM137846   7.602   0.874   3.957  4.0845 -0.8664  0.2861
 1514THY    HM237847   7.572   1.039   3.921  0.0937  0.0853 -0.0191
 1514THY    HM337848   7.610   0.928   3.790  0.2359  2.4459 -0.9606
 1514THY    CA637849   7.872   0.863   3.872 -0.5891  0.0187  0.5916
 1514THY    HA637850   7.822   0.781   3.822 -0.6060 -0.1305  0.8556
 1515THY      O37851   6.488   5.045   0.433  0.0666  0.1930  0.7848
 1515THY     HO37852   6.522   5.084   0.516  3.6882  1.1422 -0.9320
 1515THY    CA137853   6.455   5.144   0.347  0.6319  0.0159 -0.4130
 1515THY    CA237854   6.438   5.117   0.210  0.0734 -0.5950  0.3544
 1515THY    CP137855   6.479   4.978   0.155  0.5510 -0.6099  0.4690
 1515THY    HP137856   6.511   4.904   0.230  0.2238 -0.7605  0.4606
 1515THY    CP237857   6.348   4.921   0.099 -0.3878 -0.9854  0.2955
 1515THY    HP237858   6.304   4.984   0.020  0.3237  1.4599  1.7501
 1515THY    HP337859   6.347   4.817   0.062  0.3261 -0.5352 -1.0518
 1515THY    HP437860   6.269   4.929   0.175  0.8771 -3.8898  2.0834
 1515THY    CP337861   6.585   4.980   0.043  0.4046  0.1859 -0.2529
 1515THY    HP537862   6.631   4.883   0.024 -0.0304 -0.0018 -0.3441
 1515THY    HP637863   6.539   5.014  -0.050  1.9566 -2.3312 -2.0669
 1515THY    HP737864   6.657   5.052   0.084  0.1191 -1.0464  2.6318
 1515THY    CA337865   6.401   5.230   0.130 -0.7786  0.1262 -0.4726
 1515THY    HA337866   6.391   5.230   0.022  0.5258 -0.2502 -0.6078
 1515THY    CA437867   6.388   5.360   0.184 -0.4318 -0.0770  0.1199
 1515THY    HA437868   6.351   5.435   0.115 -0.4340 -1.8468 -1.8888
 1515THY    CA537869   6.418   5.382   0.319 -0.0710 -0.5358  0.0528
 1515THY    CM137870   6.410   5.515   0.383 -0.4340 -0.8517 -0.4254
 1515THY    HM137871   6.373   5.597   0.321  0.0641  0.3465  0.8265
 1515THY    HM237872   6.334   5.516   0.462  0.2624 -0.5815  0.2487
 1515THY    HM337873   6.508   5.546   0.419 -1.7604  0.2438  2.5916
 1515THY    CA637874   6.446   5.270   0.398  0.1501 -0.2028  0.0265
 1515THY    HA637875   6.473   5.287   0.502 -2.3811  0.9425  0.5747
 1516THY      O37876   8.292   6.725   2.677 -0.0101  0.2565  1.1395
 1516THY     HO37877   8.379   6.703   2.639 -0.4039 -0.3981  0.5997
 1516THY    CA137878   8.300   6.654   2.791 -0.0003 -0.4326 -0.2540
 1516THY    CA237879   8.196   6.658   2.885  0.4625 -0.0398 -0.5479
 1516THY    CP137880   8.065   6.728   2.851  0.0260  0.5117 -0.1054
 1516THY    HP137881   8.067   6.790   2.761 -1.2625 -1.4528 -1.5637
 1516THY    CP237882   7.955   6.624   2.838  0.2303  0.5894  0.4457
 1516THY    HP237883   7.857   6.659   2.873  0.2278  3.1706 -1.8053
 1516THY    HP337884   7.930   6.601   2.734 -0.2795 -1.2195  0.9355
 1516THY    HP437885   7.988   6.531   2.886  0.2517 -0.4942 -1.5523
 1516THY    CP337886   8.034   6.822   2.966  0.8750 -0.6115 -0.1317
 1516THY    HP537887   8.013   6.760   3.054  2.2100 -1.3755 -0.3202
 1516THY    HP637888   8.114   6.894   2.984 -2.0361  2.3080  2.1656
 1516THY    HP737889   7.947   6.879   2.931  1.5718  1.1050  0.8235
 1516THY    CA337890   8.205   6.587   3.011  1.0376  0.1641  0.3139
 1516THY    HA337891   8.123   6.578   3.081 -0.3054 -0.7863 -1.2961
 1516THY    CA437892   8.325   6.518   3.030  0.0234  0.0831 -0.9755
 1516THY    HA437893   8.335   6.456   3.118 -3.3248 -0.6427 -0.9869
 1516THY    CA537894   8.422   6.515   2.937  0.1554  0.4775 -0.6486
 1516THY    CM137895   8.549   6.433   2.965  0.1837 -0.0490  0.2305
 1516THY    HM137896   8.544   6.381   3.061  1.0006 -1.6298 -0.5468
 1516THY    HM237897   8.560   6.357   2.887 -2.6519  1.8165 -2.2330
 1516THY    HM337898   8.640   6.493   2.951  0.3088 -0.4998 -1.0411
 1516THY    CA637899   8.414   6.583   2.820  0.5515  0.2412  0.6472
 1516THY    HA637900   8.492   6.595   2.745 -0.3462  1.1671 -0.1689
 1517THY      O37901   6.871   6.441   2.749 -0.1832 -0.1012 -0.0974
 1517THY     HO37902   6.861   6.407   2.658 -3.2969 -0.1288  0.1410
 1517THY    CA137903   6.884   6.573   2.727 -0.0646  0.0138 -0.6467
 1517THY    CA237904   6.944   6.653   2.832 -0.0186 -0.1716  0.0384
 1517THY    CP137905   6.980   6.598   2.974 -0.6488  0.0282  0.4056
 1517THY    HP137906   6.990   6.489   2.967 -1.8677 -0.0793  0.0246
 1517THY    CP237907   7.114   6.652   3.025 -0.4200 -1.1426 -0.1112
 1517THY    HP237908   7.184   6.660   2.941  0.2516  2.0945  0.6441
 1517THY    HP337909   7.110   6.758   3.052  0.5365 -0.2181 -3.1526
 1517THY    HP437910   7.157   6.588   3.103  0.8255  0.1661  0.3106
 1517THY    CP337911   6.865   6.622   3.072  0.1345  0.1664  0.3621
 1517THY    HP537912   6.848   6.729   3.058  1.1563  0.1755 -0.9873
 1517THY    HP637913   6.781   6.551   3.062 -1.7782  2.1061  1.7157
 1517THY    HP737914   6.900   6.607   3.174 -1.2174 -1.2131  0.6668
 1517THY    CA337915   6.977   6.789   2.798  0.5181 -0.5205 -0.6319
 1517THY    HA337916   7.017   6.862   2.868  2.7380 -1.2951 -0.9888
 1517THY    CA437917   6.921   6.841   2.678 -0.7064  0.4591  0.6970
 1517THY    HA437918   6.932   6.943   2.643 -1.8451 -0.3407 -2.3151
 1517THY    CA537919   6.850   6.762   2.586  0.1232  1.1190  0.3253
 1517THY    CM137920   6.802   6.827   2.449 -0.2853  0.2855 -0.6596
 1517THY    HM137921   6.872   6.897   2.400 -0.3239  0.1711 -0.8819
 1517THY    HM237922   6.785   6.744   2.379  0.5892  0.2842 -0.8820
 1517THY    HM337923   6.706   6.878   2.460  0.8268  1.9921  2.2243
 1517THY    CA637924   6.843   6.622   2.603  0.3390  0.2841  0.2498
 1517THY    HA637925   6.791   6.562   2.529 -0.7729  2.4911 -0.8499
 1518THY      O37926   8.441   6.620   5.508 -0.4983 -0.3261  0.0817
 1518THY     HO37927   8.368   6.595   5.566  1.0855 -0.8391  1.9501
 1518THY    CA137928   8.529   6.518   5.521 -0.1317 -0.3935 -0.0508
 1518THY    CA237929   8.662   6.529   5.483 -0.6351 -0.1729  0.0134
 1518THY    CP137930   8.709   6.666   5.428 -0.0737  0.0946  0.7379
 1518THY    HP137931   8.636   6.724   5.371 -0.3331  1.4942  2.4049
 1518THY    CP237932   8.758   6.754   5.541  0.6357 -0.0037  0.2504
 1518THY    HP237933   8.669   6.769   5.603 -0.3423  1.4306 -1.4000
 1518THY    HP337934   8.846   6.705   5.584  0.1867  0.0569  1.2668
 1518THY    HP437935   8.789   6.855   5.511  0.8376  0.2228  1.2032
 1518THY    CP337936   8.826   6.661   5.327  0.1934  0.3018  0.8115
 1518THY    HP537937   8.922   6.623   5.365  0.9461  0.5478 -0.7537
 1518THY    HP637938   8.808   6.592   5.244  0.4779  2.9674 -1.5768
 1518THY    HP737939   8.837   6.757   5.277 -1.6040  0.6444  1.0372
 1518THY    CA337940   8.747   6.421   5.487 -0.6547  0.1194  0.1382
 1518THY    HA337941   8.853   6.436   5.467 -1.2031  0.6817 -2.8185
 1518THY    CA437942   8.701   6.302   5.543 -0.0698 -0.1275 -0.1825
 1518THY    HA437943   8.767   6.217   5.562 -1.4153 -0.6833  2.3620
 1518THY    CA537944   8.563   6.292   5.572  0.2347  0.4552  0.3179
 1518THY    CM137945   8.509   6.160   5.619 -0.0487  0.3868  0.7939
 1518THY    HM137946   8.506   6.080   5.544 -1.1256  0.6916  0.4893
 1518THY    HM237947   8.561   6.120   5.707  0.1741 -1.9230 -0.3292
 1518THY    HM337948   8.406   6.184   5.649 -0.5310  1.5096 -1.5854
 1518THY    CA637949   8.480   6.400   5.566 -0.4881 -0.5165 -0.3810
 1518THY    HA637950   8.377   6.386   5.599 -0.3433 -2.9349 -0.7582
 1519THY      O37951   2.605   9.092   2.279 -0.0581  0.4120 -0.0317
 1519THY     HO37952   2.624   8.999   2.256  1.1193  0.8764 -1.0209
 1519THY    CA137953   2.714   9.164   2.260  1.0097  0.2949  0.3360
 1519THY    CA237954   2.721   9.292   2.316  0.0240  0.2144 -0.2444
 1519THY    CP137955   2.605   9.341   2.405  0.0157 -0.7211 -0.0131
 1519THY    HP137956   2.553   9.255   2.449  0.0969 -0.7348  0.0560
 1519THY    CP237957   2.669   9.404   2.525 -0.5971  0.3014  0.1911
 1519THY    HP237958   2.590   9.432   2.596  0.3229  0.8935  1.0159
 1519THY    HP337959   2.732   9.335   2.582  0.0699  2.1397  1.8043
 1519THY    HP437960   2.730   9.494   2.507  0.4116 -0.3349  0.3259
 1519THY    CP337961   2.489   9.407   2.336 -0.1303  0.2375 -0.0287
 1519THY    HP537962   2.450   9.336   2.262  1.3151  0.7773 -1.3571
 1519THY    HP637963   2.410   9.433   2.407  1.5279  1.8432  1.3399
 1519THY    HP737964   2.521   9.505   2.299 -0.1944  0.5699  0.7851
 1519THY    CA337965   2.833   9.376   2.290 -0.2466  0.1518 -0.2469
 1519THY    HA337966   2.848   9.474   2.335  1.1979 -0.0338 -0.2789
 1519THY    CA437967   2.936   9.322   2.202  0.6623  0.2157  0.8193
 1519THY    HA437968   3.030   9.374   2.187  1.0789 -0.5830  0.6182
 1519THY    CA537969   2.916   9.198   2.138 -0.6540 -0.3251  0.4516
 1519THY    CM137970   3.013   9.144   2.039  0.5440  0.0745 -0.0302
 1519THY    HM137971   3.110   9.120   2.084  1.5027  1.5827 -1.1929
 1519THY    HM237972   2.970   9.063   1.979  0.9800  0.7918 -1.3745
 1519THY    HM337973   3.036   9.226   1.969 -2.0047 -0.3326 -1.4796
 1519THY    CA637974   2.804   9.123   2.165 -0.1218  0.1981  0.7139
 1519THY    HA637975   2.779   9.037   2.103  0.5430 -0.0868  0.8331
 1520THY      O37976   9.732   7.891   2.130  0.0782 -0.5186  0.6867
 1520THY     HO37977   9.799   7.899   2.060 -1.1779 -0.3504 -0.5542
 1520THY    CA137978   9.700   7.762   2.113 -0.7678  0.7822 -0.3782
 1520THY    CA237979   9.586   7.708   2.165  0.1963 -0.5919 -0.2305
 1520THY    CP137980   9.474   7.793   2.214  0.2054 -0.5756  0.9495
 1520THY    HP137981   9.486   7.898   2.185  0.9165 -1.0568 -0.6129
 1520THY    CP237982   9.351   7.758   2.143 -0.0885 -0.1309  1.1863
 1520THY    HP237983   9.258   7.812   2.163  0.7053  1.5921  0.4203
 1520THY    HP337984   9.376   7.772   2.037  0.4419 -0.6099  1.2442
 1520THY    HP437985   9.329   7.651   2.146  1.7290 -0.7024 -1.4659
 1520THY    CP337986   9.456   7.781   2.365 -0.1823 -0.2331 -0.1358
 1520THY    HP537987   9.463   7.675   2.392 -1.4302 -0.0906  0.8827
 1520THY    HP637988   9.525   7.847   2.420  1.2715 -0.1531 -1.9856
 1520THY    HP737989   9.355   7.801   2.405  0.5401 -0.7701  2.0832
 1520THY    CA337990   9.565   7.560   2.154 -0.3359 -0.8074  0.0005
 1520THY    HA337991   9.480   7.509   2.198 -0.7333 -1.0849 -1.0628
 1520THY    CA437992   9.671   7.483   2.100  0.1645  1.0170  0.3921
 1520THY    HA437993   9.656   7.375   2.097  1.4371  0.8272 -0.0879
 1520THY    CA537994   9.789   7.544   2.056 -0.1418  0.5218 -0.2608
 1520THY    CM137995   9.899   7.463   2.006 -0.1321  0.2205 -0.1338
 1520THY    HM137996   9.871   7.358   2.001  2.2011 -0.5051  0.7109
 1520THY    HM237997   9.924   7.501   1.906  1.0454 -0.8207 -0.2603
 1520THY    HM337998   9.985   7.469   2.074  0.0185 -1.2810 -0.1597
 1520THY    CA637999   9.797   7.681   2.059  0.0252 -0.9350  0.0472
 1520THY    HA638000   9.891   7.725   2.027  1.3053 -2.4118  1.5517
 1521THY      O38001   1.673   1.156   2.117 -0.3035  0.1209 -0.0691
 1521THY     HO38002   1.592   1.107   2.095 -0.4620  0.0408  0.6632
 1521THY    CA138003   1.753   1.140   2.010  0.2594 -0.5440 -0.3771
 1521THY    CA238004   1.886   1.186   2.019  0.0270 -0.1531  0.1170
 1521THY    CP138005   1.952   1.244   2.145 -0.5230 -0.1439 -0.1424
 1521THY    HP138006   1.879   1.257   2.227 -0.4879 -0.5405 -0.0473
 1521THY    CP238007   2.064   1.153   2.202  0.6990 -0.4477  0.6192
 1521THY    HP238008   2.137   1.147   2.120 -0.1281 -0.3868 -0.1431
 1521THY    HP338009   2.119   1.189   2.290 -0.0633 -0.4009  1.0791
 1521THY    HP438010   2.025   1.055   2.228 -1.0868 -0.3158 -1.3014
 1521THY    CP338011   2.002   1.390   2.123 -0.1268 -0.0431 -0.2249
 1521THY    HP538012   2.098   1.381   2.070 -1.2171  0.1032 -2.3114
 1521THY    HP638013   1.944   1.452   2.054  0.0275  0.5431  0.1563
 1521THY    HP738014   2.014   1.437   2.222  0.2976 -1.2786  0.3313
 1521THY    CA338015   1.968   1.180   1.898 -0.2744  0.5421 -0.1734
 1521THY    HA338016   2.071   1.214   1.901 -0.1958  0.4955 -1.6023
 1521THY    CA438017   1.905   1.124   1.784  0.4548  0.0476 -0.1435
 1521THY    HA438018   1.964   1.110   1.694 -0.8483 -1.8226 -0.7748
 1521THY    CA538019   1.773   1.079   1.780 -0.1880 -0.0775 -0.5104
 1521THY    CM138020   1.709   1.026   1.661  0.1243  0.6267  0.1977
 1521THY    HM138021   1.599   1.033   1.666 -0.0299 -1.1281  0.0043
 1521THY    HM238022   1.749   1.091   1.583  0.2334  1.7637  1.1631
 1521THY    HM338023   1.732   0.921   1.642  0.1955  0.7304 -0.2798
 1521THY    CA638024   1.700   1.089   1.894  0.2247 -0.6065 -0.1861
 1521THY    HA638025   1.594   1.063   1.891  0.7063 -3.0572  1.1353
 1522THY      O38026   3.057   9.721   0.271 -0.6131  0.6681  0.2074
 1522THY     HO38027   3.106   9.788   0.322 -1.3342  1.2805  0.1260
 1522THY    CA138028   2.961   9.664   0.354 -0.8598 -0.5063  0.2167
 1522THY    CA238029   2.907   9.542   0.315  0.3244  0.1585  0.6650
 1522THY    CP138030   2.944   9.483   0.179  0.2213  0.0875  1.1815
 1522THY    HP138031   2.992   9.556   0.113  0.5895 -0.9389  0.2819
 1522THY    CP238032   3.032   9.364   0.202 -0.2211 -0.4910 -0.2705
 1522THY    HP238033   3.078   9.321   0.112  0.9288 -0.2756  0.2089
 1522THY    HP338034   3.113   9.395   0.268 -1.5140  1.3554  0.5731
 1522THY    HP438035   2.983   9.281   0.254  0.0190  0.0342  0.8209
 1522THY    CP338036   2.821   9.435   0.096 -0.2027  0.2474  0.0915
 1522THY    HP538037   2.750   9.518   0.093 -0.2130  0.2771  0.9574
 1522THY    HP638038   2.851   9.393  -0.001  1.9595  1.9484 -0.0340
 1522THY    HP738039   2.766   9.357   0.151 -0.8283  0.0686 -0.7647
 1522THY    CA338040   2.817   9.478   0.402  0.3930 -0.4068 -0.4482
 1522THY    HA338041   2.777   9.379   0.380  1.0983 -0.9088  0.4636
 1522THY    CA438042   2.786   9.547   0.525 -0.1198 -0.0446  0.2528
 1522THY    HA438043   2.712   9.502   0.591 -0.7222  1.8566  0.9328
 1522THY    CA538044   2.845   9.665   0.559  0.1719 -0.6844  0.6970
 1522THY    CM138045   2.798   9.745   0.684  0.2911  0.7586  0.2848
 1522THY    HM138046   2.696   9.710   0.701  0.2390  0.9607  0.3811
 1522THY    HM238047   2.863   9.713   0.767  1.8727  1.9238 -0.4406
 1522THY    HM338048   2.801   9.854   0.672 -0.5891  0.8745  0.9777
 1522THY    CA638049   2.935   9.730   0.474 -0.0657  0.4870  0.4685
 1522THY    HA638050   2.975   9.828   0.497  1.5115  0.4309 -1.7526
 1523THY      O38051   3.528   0.130   9.181 -0.4718 -0.5057  0.5239
 1523THY     HO38052   3.503   0.214   9.224 -0.5858 -0.6186  0.6797
 1523THY    CA138053   3.664   0.109   9.211 -0.0284  0.0146 -0.4037
 1523THY    CA238054   3.747   0.035   9.123  0.4023  1.2694  0.1577
 1523THY    CP138055   3.692  -0.020   8.992 -0.5231  0.9354  0.9782
 1523THY    HP138056   3.605   0.040   8.962  0.8389  2.5159 -0.0035
 1523THY    CP238057   3.787   0.009   8.861 -0.8867 -0.1973 -0.2887
 1523THY    HP238058   3.809   0.116   8.848 -1.2959 -0.2880 -1.9672
 1523THY    HP338059   3.882  -0.044   8.861 -0.6336  0.2397  0.2178
 1523THY    HP438060   3.733  -0.017   8.770 -2.6391  1.1043  0.3184
 1523THY    CP338061   3.673  -0.172   9.001 -0.1089 -0.1662  0.1210
 1523THY    HP538062   3.605  -0.189   9.086 -0.9708  0.3741 -0.4396
 1523THY    HP638063   3.630  -0.213   8.909  1.5712 -1.0506 -0.3097
 1523THY    HP738064   3.764  -0.231   9.013 -1.5996 -2.6128  0.1553
 1523THY    CA338065   3.876   0.011   9.163 -0.2534  0.1176 -0.6173
 1523THY    HA338066   3.943  -0.048   9.101 -1.8927 -1.0148 -1.3774
 1523THY    CA438067   3.919   0.062   9.284  0.7689 -0.2413 -0.5628
 1523THY    HA438068   4.016   0.039   9.326  0.6747 -1.9411 -1.2196
 1523THY    CA538069   3.832   0.133   9.375 -0.3969  0.5238 -0.1192
 1523THY    CM138070   3.885   0.184   9.506 -0.0013  0.3978 -0.1181
 1523THY    HM138071   3.987   0.223   9.512  0.3247 -0.5581  0.8282
 1523THY    HM238072   3.824   0.266   9.544 -0.4590 -0.2831  0.6359
 1523THY    HM338073   3.882   0.104   9.580  1.2043 -1.7382 -2.2265
 1523THY    CA638074   3.701   0.148   9.337  0.6361  1.1299 -0.5939
 1523THY    HA638075   3.628   0.183   9.409  0.6830 -0.9605  0.5557
 1524THY      O38076   8.894   8.334   0.520  0.2330 -0.4852  0.1911
 1524THY     HO38077   8.903   8.403   0.588  0.5409  1.6599 -1.8869
 1524THY    CA138078   8.764   8.341   0.495  0.1252  0.1648 -0.2431
 1524THY    CA238079   8.683   8.223   0.513  0.1422 -0.5119  0.5684
 1524THY    CP138080   8.734   8.083   0.553  0.5615 -0.8276 -0.1357
 1524THY    HP138081   8.843   8.089   0.562  0.4095  1.3172  1.1575
 1524THY    CP238082   8.677   8.050   0.696  0.6391 -1.1052  0.2389
 1524THY    HP238083   8.745   7.978   0.743  0.0996  0.6015  4.0422
 1524THY    HP338084   8.681   8.143   0.754  1.6583 -0.9136 -0.1015
 1524THY    HP438085   8.576   8.010   0.682 -0.2793  1.5903 -1.7282
 1524THY    CP338086   8.699   7.970   0.454  0.8766 -0.5181  0.4965
 1524THY    HP538087   8.757   7.968   0.361  1.1575  1.7124  0.5626
 1524THY    HP638088   8.741   7.882   0.503  1.6356 -0.7042 -0.4580
 1524THY    HP738089   8.591   7.959   0.441  0.9114 -1.7110  1.1147
 1524THY    CA338090   8.550   8.239   0.484  0.5218 -0.2446  0.5671
 1524THY    HA338091   8.491   8.148   0.497  3.2307 -1.9039  2.2957
 1524THY    CA438092   8.494   8.354   0.429 -0.8988 -0.6798  0.2238
 1524THY    HA438093   8.394   8.364   0.389 -1.2259  0.3756  1.2714
 1524THY    CA538094   8.577   8.464   0.414  0.1185 -0.2917 -0.3223
 1524THY    CM138095   8.512   8.594   0.378 -0.1659 -1.0341  0.7509
 1524THY    HM138096   8.545   8.612   0.275 -0.2310  0.8191  1.0225
 1524THY    HM238097   8.402   8.589   0.377 -0.1572 -1.4298 -0.6350
 1524THY    HM338098   8.540   8.682   0.438 -1.1784  0.0943 -0.3872
 1524THY    CA638099   8.711   8.461   0.450  0.4903  0.0413 -0.5845
 1524THY    HA638100   8.773   8.551   0.444  0.1532  0.2431 -1.1603
 1525THY      O38101   2.118   1.715   4.593  0.2545 -0.2500 -0.3680
 1525THY     HO38102   2.120   1.771   4.514  1.4930 -1.5864 -1.3328
 1525THY    CA138103   2.014   1.733   4.680  0.3464  0.7147  0.0475
 1525THY    CA238104   1.987   1.640   4.785  0.0749 -0.1506 -0.4252
 1525THY    CP138105   2.068   1.517   4.807 -0.1778 -0.2052  0.1691
 1525THY    HP138106   2.172   1.537   4.777  0.7639 -2.6162  1.4879
 1525THY    CP238107   2.079   1.456   4.945 -0.0304  0.0468 -0.9615
 1525THY    HP238108   2.127   1.527   5.013  0.2777 -1.2255  0.1916
 1525THY    HP338109   1.980   1.437   4.987  1.6120 -1.7054  2.5491
 1525THY    HP438110   2.151   1.373   4.952  1.1637  1.0210 -1.3411
 1525THY    CP338111   2.020   1.401   4.715  0.4632  0.0654  0.2926
 1525THY    HP538112   2.095   1.322   4.722  1.4950  0.9950 -0.0183
 1525THY    HP638113   1.922   1.367   4.750  1.3135 -1.5748  1.1893
 1525THY    HP738114   2.009   1.427   4.609  1.1602  0.1279  0.2336
 1525THY    CA338115   1.872   1.667   4.867 -0.0163 -0.1089  0.0792
 1525THY    HA338116   1.852   1.609   4.956 -0.1710 -0.5907 -0.2661
 1525THY    CA438117   1.795   1.779   4.852 -0.0964 -0.1878  0.6139
 1525THY    HA438118   1.715   1.798   4.923  0.6009  1.8800  0.9187
 1525THY    CA538119   1.823   1.865   4.747 -0.4594  0.0920 -0.0618
 1525THY    CM138120   1.731   1.989   4.731 -0.0479 -0.3565  0.7732
 1525THY    HM138121   1.638   1.964   4.679  0.2534  0.8520 -0.3775
 1525THY    HM238122   1.692   2.032   4.824 -0.9707 -1.0623  0.7260
 1525THY    HM338123   1.776   2.072   4.676 -1.8391  0.0326 -0.1743
 1525THY    CA638124   1.930   1.845   4.661 -0.8109 -0.2128  0.3416
 1525THY    HA638125   1.956   1.909   4.577  0.4121 -0.7940  0.2580
 1526THY      O38126   0.969   9.216   8.078  0.3876 -0.6082  0.0632
 1526THY     HO38127   0.941   9.154   8.148  1.0645  0.3584  1.2130
 1526THY    CA138128   0.993   9.128   7.977 -0.5949  0.1117 -0.7332
 1526THY    CA238129   1.037   9.178   7.854 -0.2405  0.4542 -0.1969
 1526THY    CP138130   1.038   9.331   7.828 -0.1285 -0.2314 -0.3056
 1526THY    HP138131   1.055   9.387   7.921 -1.1205  1.4408 -1.0783
 1526THY    CP238132   1.144   9.395   7.735  0.2692 -0.3580  0.1310
 1526THY    HP238133   1.114   9.487   7.684 -0.2220 -0.5664  0.0373
 1526THY    HP338134   1.231   9.415   7.799  3.9216 -0.1176 -4.3729
 1526THY    HP438135   1.188   9.323   7.665  0.6298  1.3525 -1.4801
 1526THY    CP338136   0.899   9.365   7.767 -0.0829  0.1483  0.2312
 1526THY    HP538137   0.898   9.473   7.745  3.4591  0.8301  2.5195
 1526THY    HP638138   0.881   9.306   7.677 -2.3708  1.3238 -0.1595
 1526THY    HP738139   0.825   9.353   7.847  1.2612 -0.8123  1.4034
 1526THY    CA338140   1.056   9.091   7.748 -0.2017  0.4304 -0.8565
 1526THY    HA338141   1.078   9.126   7.647  3.5296  1.7389  0.2304
 1526THY    CA438142   1.053   8.956   7.779 -0.0604 -0.0104 -0.4813
 1526THY    HA438143   1.069   8.884   7.700  1.2116 -2.1524  1.5947
 1526THY    CA538144   1.016   8.916   7.904 -0.4024  0.1786  0.0375
 1526THY    CM138145   1.024   8.774   7.949 -0.4008 -0.1649  0.2318
 1526THY    HM138146   1.050   8.769   8.055 -0.4005  0.2651  0.2504
 1526THY    HM238147   0.940   8.708   7.924 -0.6720 -0.3815  1.6415
 1526THY    HM338148   1.109   8.725   7.899  1.3987  1.0146  1.9775
 1526THY    CA638149   0.981   8.996   8.006 -0.1190  0.6032  0.6932
 1526THY    HA638150   0.957   8.955   8.103 -0.9618 -4.8051 -1.4523
 1527THY      O38151   4.798   9.124   0.223 -0.4904  0.4683 -0.1435
 1527THY     HO38152   4.838   9.057   0.165 -4.6788 -1.8942 -0.6893
 1527THY    CA138153   4.769   9.049   0.336  0.4371 -0.3788 -0.2970
 1527THY    CA238154   4.677   9.098   0.433  0.6385  0.6040 -0.2710
 1527THY    CP138155   4.610   9.237   0.414  0.3678 -0.1830  0.4225
 1527THY    HP138156   4.611   9.271   0.310  0.7246 -0.2712  0.3945
 1527THY    CP238157   4.464   9.245   0.458 -0.5595  0.3056  0.8569
 1527THY    HP238158   4.429   9.347   0.437  1.1019  1.0402  1.4591
 1527THY    HP338159   4.408   9.175   0.396  0.9866  1.1444 -1.6277
 1527THY    HP438160   4.453   9.223   0.565  2.7062 -2.4379  0.7874
 1527THY    CP338161   4.686   9.324   0.508 -0.3753  0.0594 -0.2202
 1527THY    HP538162   4.794   9.328   0.491 -0.3725  0.5401 -0.1089
 1527THY    HP638163   4.649   9.427   0.497  1.0232  0.3826 -2.5044
 1527THY    HP738164   4.660   9.298   0.611 -0.9042 -1.0396 -0.6108
 1527THY    CA338165   4.647   9.017   0.542  0.2203 -0.1852  0.5165
 1527THY    HA338166   4.580   9.052   0.621  1.0048 -0.0030  1.1188
 1527THY    CA438167   4.708   8.897   0.567  0.4842  0.6237 -0.1289
 1527THY    HA438168   4.689   8.839   0.657 -0.5508  2.0536  0.6169
 1527THY    CA538169   4.785   8.843   0.465 -0.3865 -0.1827  0.6492
 1527THY    CM138170   4.797   8.691   0.475 -0.5420  0.4150  0.1006
 1527THY    HM138171   4.816   8.657   0.578 -0.8034 -0.0174  0.0065
 1527THY    HM238172   4.715   8.634   0.432 -1.0998 -0.4989  2.2158
 1527THY    HM338173   4.891   8.661   0.428  0.2682  2.1330  0.5216
 1527THY    CA638174   4.816   8.922   0.350  0.0215 -0.1145  0.2331
 1527THY    HA638175   4.883   8.887   0.272  0.9614 -0.4913  1.1939
 1528THY      O38176   2.530   0.030   7.485 -0.2182 -0.4682  0.4620
 1528THY     HO38177   2.497   0.081   7.561  0.8168  0.8205  0.0902
 1528THY    CA138178   2.571  -0.094   7.528 -0.5437 -0.3081  0.4727
 1528THY    CA238179   2.654  -0.181   7.455  0.6592  0.1387 -0.0723
 1528THY    CP138180   2.690  -0.151   7.310 -0.5314 -0.0051  0.1891
 1528THY    HP138181   2.696  -0.043   7.291 -2.2016 -0.1107 -1.1385
 1528THY    CP238182   2.834  -0.196   7.267  0.0949 -0.3150 -0.3552
 1528THY    HP238183   2.860  -0.153   7.169  0.4927 -0.7233 -0.4326
 1528THY    HP338184   2.907  -0.159   7.341 -0.6087  0.1445  0.1215
 1528THY    HP438185   2.833  -0.304   7.254  2.3448 -0.8520  2.6915
 1528THY    CP338186   2.577  -0.195   7.218 -0.7169 -0.5864 -0.1229
 1528THY    HP538187   2.548  -0.299   7.237  0.1432 -0.8142 -0.0373
 1528THY    HP638188   2.485  -0.137   7.235 -0.7739 -0.3468 -1.1607
 1528THY    HP738189   2.611  -0.172   7.116  0.3315  1.2305  0.5712
 1528THY    CA338190   2.680  -0.316   7.508  0.0706 -0.6145  0.2150
 1528THY    HA338191   2.738  -0.388   7.451 -1.0101 -0.8497 -0.6075
 1528THY    CA438192   2.642  -0.342   7.640 -0.0627  1.0837  0.1638
 1528THY    HA438193   2.674  -0.437   7.680  1.4898 -0.2232 -3.6434
 1528THY    CA538194   2.574  -0.244   7.714  1.2172  0.1460 -0.4270
 1528THY    CM138195   2.524  -0.265   7.851  0.4143  0.1694 -0.0729
 1528THY    HM138196   2.557  -0.184   7.916 -0.8909 -0.4701  1.4371
 1528THY    HM238197   2.414  -0.259   7.852  0.3947 -0.2659  0.3721
 1528THY    HM338198   2.553  -0.364   7.887 -0.0989  0.1826  0.3818
 1528THY    CA638199   2.532  -0.126   7.656  0.4218  0.5036  0.1392
 1528THY    HA638200   2.453  -0.063   7.698  1.2440  0.5457  1.6811
 1529THY      O38201   3.251   8.456   3.712 -0.2329  0.1527 -0.2737
 1529THY     HO38202   3.234   8.374   3.664 -2.1913  1.1815 -1.4607
 1529THY    CA138203   3.289   8.427   3.836  0.0386 -0.2999 -0.2502
 1529THY    CA238204   3.321   8.529   3.928  0.4078  0.3551  0.8940
 1529THY    CP138205   3.287   8.669   3.886 -0.4073  0.4177  0.2926
 1529THY    HP138206   3.209   8.663   3.809 -0.7052  1.1966  0.5224
 1529THY    CP238207   3.216   8.752   3.994 -0.3128  0.4722 -0.0343
 1529THY    HP238208   3.276   8.771   4.084  0.7376 -1.0362 -0.3708
 1529THY    HP338209   3.171   8.844   3.955  1.8219  1.5886 -0.0172
 1529THY    HP438210   3.132   8.688   4.024 -0.1813  0.7727  0.9989
 1529THY    CP338211   3.404   8.740   3.826  0.0000  0.2322 -0.1533
 1529THY    HP538212   3.463   8.675   3.760  0.5271  1.6709 -1.1541
 1529THY    HP638213   3.373   8.833   3.778  1.7639 -0.4323 -2.8200
 1529THY    HP738214   3.473   8.770   3.905 -0.8988  1.7906  0.0756
 1529THY    CA338215   3.379   8.498   4.052  0.4717 -0.3868  0.1795
 1529THY    HA338216   3.403   8.578   4.121 -2.5637 -0.5682  1.6127
 1529THY    CA438217   3.393   8.365   4.088 -0.1050 -0.3476  0.2550
 1529THY    HA438218   3.424   8.339   4.189  0.5633 -1.2713 -0.1735
 1529THY    CA538219   3.360   8.260   3.995  0.2740  0.0909 -0.4437
 1529THY    CM138220   3.414   8.118   4.024  0.0566  0.0942  0.1859
 1529THY    HM138221   3.494   8.115   4.099  0.9157 -0.1051 -0.7070
 1529THY    HM238222   3.328   8.065   4.066  0.7087 -0.2137  1.1590
 1529THY    HM338223   3.453   8.071   3.933 -0.8931  2.5957 -1.6288
 1529THY    CA638224   3.315   8.292   3.868  0.8140 -0.3365 -0.6246
 1529THY    HA638225   3.296   8.214   3.795  1.1523 -0.8104 -0.2127
 1530THY      O38226   6.508   2.678   8.066 -0.3907 -0.4302  0.3324
 1530THY     HO38227   6.436   2.717   8.014 -1.7218 -1.5012  1.3013
 1530THY    CA138228   6.482   2.707   8.197  0.8055  0.4906 -0.0537
 1530THY    CA238229   6.509   2.619   8.300 -0.0680 -0.1220 -0.2948
 1530THY    CP138230   6.595   2.493   8.276 -0.0506  0.4386  0.4561
 1530THY    HP138231   6.574   2.465   8.172  1.3352  2.3962 -0.3930
 1530THY    CP238232   6.743   2.525   8.306 -0.0224  0.1562  0.2410
 1530THY    HP238233   6.800   2.441   8.264 -0.1462  0.0106  0.3680
 1530THY    HP338234   6.791   2.612   8.260  1.2066 -1.5780 -1.9424
 1530THY    HP438235   6.758   2.517   8.414 -0.1170  1.6104  0.3903
 1530THY    CP338236   6.553   2.365   8.357  0.0538  0.4056 -0.0344
 1530THY    HP538237   6.450   2.340   8.330  0.1239  0.3245 -0.2340
 1530THY    HP638238   6.614   2.280   8.322 -0.8153 -1.1952  2.0828
 1530THY    HP738239   6.575   2.379   8.464 -0.6899 -2.1421  0.5249
 1530THY    CA338240   6.478   2.653   8.427 -0.5524 -0.5732 -0.6585
 1530THY    HA338241   6.498   2.585   8.509  0.7070 -0.4599 -0.8561
 1530THY    CA438242   6.418   2.775   8.454 -0.0786  1.2463 -0.3006
 1530THY    HA438243   6.409   2.813   8.556  1.8802 -0.2057  0.4793
 1530THY    CA538244   6.395   2.864   8.350  0.2712 -0.1055 -0.5660
 1530THY    CM138245   6.325   2.999   8.386  0.4601 -0.6041  0.0715
 1530THY    HM138246   6.320   3.082   8.315  2.0291 -2.3267 -2.2006
 1530THY    HM238247   6.219   2.976   8.398  0.8374 -4.1263 -2.0087
 1530THY    HM338248   6.365   3.033   8.483 -0.1180 -0.0828  0.1323
 1530THY    CA638249   6.424   2.832   8.217  0.1646  0.7836 -0.2296
 1530THY    HA638250   6.414   2.907   8.139 -0.3622 -0.5676 -1.5086
 1531THY      O38251   2.153   2.833   2.828 -0.0437  0.4650  0.5221
 1531THY     HO38252   2.142   2.813   2.923 -1.9242  1.1440  0.4809
 1531THY    CA138253   2.039   2.851   2.772  0.1191 -0.4265 -0.6285
 1531THY    CA238254   2.012   2.801   2.643  0.4032 -0.6067  0.1701
 1531THY    CP138255   2.117   2.731   2.561  0.1344 -0.1240 -0.5383
 1531THY    HP138256   2.217   2.749   2.602  1.0180 -1.3776 -1.9962
 1531THY    CP238257   2.096   2.588   2.576  0.0790  0.0308 -0.3283
 1531THY    HP238258   2.001   2.556   2.532  0.2295 -0.0424 -0.6084
 1531THY    HP338259   2.173   2.526   2.528 -1.4971 -1.6065 -0.8602
 1531THY    HP438260   2.111   2.558   2.680 -0.9261  1.7340  0.3382
 1531THY    CP338261   2.123   2.770   2.411 -0.4144 -0.1621 -0.1899
 1531THY    HP538262   2.215   2.738   2.360 -0.1681 -0.1375  0.2333
 1531THY    HP638263   2.034   2.736   2.356  0.1483  0.8162 -1.7765
 1531THY    HP738264   2.112   2.879   2.402 -0.8361 -0.2006 -0.1930
 1531THY    CA338265   1.882   2.815   2.601  0.3365 -1.1472  0.0518
 1531THY    HA338266   1.856   2.782   2.500 -0.7910 -1.8740  0.5611
 1531THY    CA438267   1.778   2.854   2.693 -0.8006 -0.0583  0.4964
 1531THY    HA438268   1.672   2.855   2.668 -1.6893 -1.7443  3.5885
 1531THY    CA538269   1.813   2.907   2.818 -0.2236  0.3222 -0.4697
 1531THY    CM138270   1.708   2.969   2.907 -0.2331 -0.3572  0.0149
 1531THY    HM138271   1.650   2.892   2.958  2.1401 -2.5171 -0.2954
 1531THY    HM238272   1.759   3.033   2.980  1.9684 -0.9111 -0.9528
 1531THY    HM338273   1.644   3.037   2.850 -1.4555  0.0953  1.8519
 1531THY    CA638274   1.946   2.905   2.860 -0.0931 -0.2335  0.4467
 1531THY    HA638275   1.982   2.949   2.952 -1.1105  0.5368  0.4923
 1532THY      O38276   6.447   3.035   4.595 -0.1546 -0.4929  0.3884
 1532THY     HO38277   6.399   2.965   4.549 -1.0458  0.0696  0.4335
 1532THY    CA138278   6.466   2.993   4.717 -0.1078  0.8629 -0.7734
 1532THY    CA238279   6.573   3.033   4.794 -0.5043 -0.1203 -0.1958
 1532THY    CP138280   6.677   3.138   4.732 -0.0787  0.3206  0.5166
 1532THY    HP138281   6.622   3.221   4.685 -1.1076  0.0765  1.2450
 1532THY    CP238282   6.761   3.218   4.837 -0.2592 -0.4346 -0.3859
 1532THY    HP238283   6.844   3.155   4.873  0.4776 -0.2687 -1.7299
 1532THY    HP338284   6.801   3.310   4.795 -1.7190 -0.1714 -1.2537
 1532THY    HP438285   6.704   3.243   4.927  0.5064  0.0349 -0.0207
 1532THY    CP338286   6.780   3.066   4.638 -0.7232 -0.3380 -0.1648
 1532THY    HP538287   6.846   3.138   4.589 -0.4021  0.4942  1.4275
 1532THY    HP638288   6.853   3.011   4.699  0.1640  0.7015 -0.2583
 1532THY    HP738289   6.747   2.993   4.563  1.4767  0.5015 -2.0704
 1532THY    CA338290   6.585   2.994   4.927 -0.2657  0.3577 -0.6642
 1532THY    HA338291   6.666   3.034   4.988 -0.7282  0.7421 -0.3021
 1532THY    CA438292   6.502   2.888   4.970  0.5018  0.1041 -0.1813
 1532THY    HA438293   6.519   2.844   5.068  1.8743 -0.7125 -0.7550
 1532THY    CA538294   6.394   2.840   4.889  0.9142 -0.5434 -0.2363
 1532THY    CM138295   6.292   2.740   4.942 -0.2526 -0.0566  0.3583
 1532THY    HM138296   6.217   2.804   4.990  0.9444  1.7954 -0.1341
 1532THY    HM238297   6.252   2.679   4.860  2.3723 -0.0164 -1.0736
 1532THY    HM338298   6.336   2.667   5.011  1.2086  0.1439 -0.3217
 1532THY    CA638299   6.366   2.902   4.766 -0.6194  0.0144 -0.5942
 1532THY    HA638300   6.278   2.885   4.706 -1.3131  1.3386 -0.0130
 1533THY      O38301   1.282   6.001   3.563  0.6556 -0.2148  0.1633
 1533THY     HO38302   1.291   5.947   3.483  1.1888 -0.8655  0.6550
 1533THY    CA138303   1.389   5.978   3.631  0.5450 -0.0105 -0.3150
 1533THY    CA238304   1.400   6.031   3.761 -0.4856  0.5187  0.1320
 1533THY    CP138305   1.308   6.147   3.809 -0.8636 -0.0708 -0.0713
 1533THY    HP138306   1.243   6.185   3.730  0.7666  1.4511 -0.7514
 1533THY    CP238307   1.215   6.084   3.919  0.0238 -0.0920  0.7342
 1533THY    HP238308   1.263   6.008   3.980 -0.1545 -0.4824  0.3924
 1533THY    HP338309   1.161   6.165   3.969 -0.6381  0.7406 -1.1988
 1533THY    HP438310   1.142   6.024   3.863  1.4575  0.8452 -2.4179
 1533THY    CP338311   1.391   6.267   3.861  0.4195 -0.2289  0.2553
 1533THY    HP538312   1.482   6.277   3.800  0.2742 -1.1954 -0.1406
 1533THY    HP638313   1.340   6.363   3.847  0.9682  0.2025  1.1105
 1533THY    HP738314   1.423   6.255   3.965  1.6350  0.4814 -0.0249
 1533THY    CA338315   1.514   5.986   3.839  0.2774 -0.1578  0.2670
 1533THY    HA338316   1.538   6.031   3.935 -0.7141  0.8733  0.0482
 1533THY    CA438317   1.602   5.886   3.790 -0.1170 -0.5907 -0.2569
 1533THY    HA438318   1.690   5.858   3.847 -0.3937  1.1547  1.1237
 1533THY    CA538319   1.579   5.826   3.671 -1.1486 -0.6170  0.1919
 1533THY    CM138320   1.670   5.731   3.604 -0.4338  0.4024  0.4557
 1533THY    HM138321   1.650   5.629   3.639  2.2241  0.4771  2.5035
 1533THY    HM238322   1.666   5.726   3.495  0.6501  1.0344  0.3721
 1533THY    HM338323   1.773   5.759   3.627  0.2986 -0.9803 -0.9811
 1533THY    CA638324   1.476   5.879   3.588 -0.3753  0.0937  0.1129
 1533THY    HA638325   1.470   5.848   3.484 -1.7859  0.6309  0.0091
 1534THY      O38326   0.968   8.539   3.377  0.1067 -0.0189  0.5162
 1534THY     HO38327   0.942   8.529   3.470 -1.5554 -0.1554  0.0607
 1534THY    CA138328   0.935   8.423   3.316 -0.1439 -0.1629 -0.6956
 1534THY    CA238329   0.943   8.397   3.171  0.3123  0.0704 -0.3929
 1534THY    CP138330   0.977   8.517   3.077 -0.0735 -0.0548  0.1736
 1534THY    HP138331   1.024   8.606   3.121  0.1791  0.1624 -0.5080
 1534THY    CP238332   1.083   8.485   2.965 -0.0549 -0.1479 -0.3986
 1534THY    HP238333   1.037   8.407   2.904 -0.3675 -0.4212  0.1869
 1534THY    HP338334   1.111   8.561   2.890 -0.1829  1.1389  0.8189
 1534THY    HP438335   1.171   8.448   3.019  0.2890  1.6524  0.3437
 1534THY    CP338336   0.855   8.587   3.012  0.7591  0.4386  0.3060
 1534THY    HP538337   0.874   8.660   2.932 -1.7854 -0.4995 -1.2874
 1534THY    HP638338   0.790   8.513   2.963  1.8894 -0.1690 -0.3150
 1534THY    HP738339   0.788   8.633   3.086 -0.8961 -0.1821 -0.7523
 1534THY    CA338340   0.897   8.276   3.122  0.7627 -0.1121 -0.1260
 1534THY    HA338341   0.891   8.272   3.013  0.7381  2.0531 -0.2366
 1534THY    CA438342   0.864   8.172   3.209 -0.0435 -0.0844  0.0276
 1534THY    HA438343   0.830   8.074   3.178 -1.1988 -0.0841  1.1572
 1534THY    CA538344   0.863   8.192   3.347 -0.0561 -0.1750  0.0396
 1534THY    CM138345   0.828   8.081   3.442 -0.1966 -0.7671 -0.1059
 1534THY    HM138346   0.732   8.108   3.487  0.4366  2.1089 -0.3320
 1534THY    HM238347   0.819   7.982   3.396  0.8869 -0.3809 -1.2101
 1534THY    HM338348   0.909   8.078   3.516  1.5385  0.3782 -1.8715
 1534THY    CA638349   0.904   8.317   3.400  0.3176  0.2507  0.7852
 1534THY    HA638350   0.899   8.336   3.507 -2.6521 -0.6548  0.8794
 1535THY      O38351   1.411   5.866   9.050 -0.1755  0.6490 -0.0024
 1535THY     HO38352   1.389   5.944   8.995 -0.6353 -0.2548 -1.1409
 1535THY    CA138353   1.302   5.854   9.126 -0.5291  0.6906  0.4144
 1535THY    CA238354   1.304   5.765   9.231 -0.7722  0.0553  0.3530
 1535THY    CP138355   1.427   5.671   9.250 -0.7451 -0.0579  0.4856
 1535THY    HP138356   1.513   5.705   9.192  0.4835 -1.3808  1.4620
 1535THY    CP238357   1.468   5.663   9.399 -0.1760 -0.3466  0.2537
 1535THY    HP238358   1.561   5.605   9.404 -0.5670 -0.9979  0.1087
 1535THY    HP338359   1.475   5.759   9.452 -0.9022  0.5856 -1.2657
 1535THY    HP438360   1.387   5.610   9.450  0.2229 -0.8212  0.4036
 1535THY    CP338361   1.394   5.527   9.207 -0.0787 -0.4520  0.1901
 1535THY    HP538362   1.481   5.460   9.204  1.5157  1.5422 -0.0438
 1535THY    HP638363   1.323   5.488   9.281  1.5704 -1.8839  1.1030
 1535THY    HP738364   1.337   5.539   9.114  1.6341  3.9174 -0.5402
 1535THY    CA338365   1.182   5.741   9.297  0.1292  0.2535  0.7662
 1535THY    HA338366   1.167   5.660   9.368  0.5297  1.7453  2.6218
 1535THY    CA438367   1.077   5.820   9.275  0.3235  0.0860  0.7058
 1535THY    HA438368   0.982   5.801   9.325  1.4708 -2.0973  2.1820
 1535THY    CA538369   1.076   5.924   9.181 -0.4122  0.4331  1.0762
 1535THY    CM138370   0.956   6.019   9.169  0.5919  0.1135  0.2992
 1535THY    HM138371   0.964   6.078   9.077 -0.8511  0.1670  0.1870
 1535THY    HM238372   0.859   5.969   9.155  0.2034  1.0563 -0.4394
 1535THY    HM338373   0.959   6.094   9.249  0.3486  1.0767 -0.5846
 1535THY    CA638374   1.196   5.939   9.105  0.6030  0.0071  1.3342
 1535THY    HA638375   1.200   6.017   9.030 -1.8418 -0.9168  0.1459
 1536THY      O38376   1.025   0.882   7.189  0.3345  0.1571 -0.4865
 1536THY     HO38377   1.051   0.862   7.097 -0.2532 -0.8614 -0.4481
 1536THY    CA138378   1.057   1.014   7.202 -1.3127  0.2660  0.2349
 1536THY    CA238379   1.099   1.075   7.323 -0.8545  0.3667 -0.2389
 1536THY    CP138380   1.122   0.990   7.452  0.0880  0.2140  0.2468
 1536THY    HP138381   1.072   0.893   7.449  1.4685 -0.5409  0.5029
 1536THY    CP238382   1.269   0.956   7.470  0.4802 -0.5515  0.7196
 1536THY    HP238383   1.290   0.859   7.516 -2.8856 -1.8550 -0.2507
 1536THY    HP338384   1.317   0.954   7.372  0.0495 -2.2327  0.5221
 1536THY    HP438385   1.325   1.022   7.538  1.4348 -2.7384  2.1845
 1536THY    CP338386   1.064   1.049   7.585 -0.1463 -0.4544  0.4181
 1536THY    HP538387   1.097   0.988   7.669  1.3897 -0.8483 -0.4251
 1536THY    HP638388   1.103   1.150   7.607  1.0933 -0.9826  0.7528
 1536THY    HP738389   0.955   1.053   7.593 -0.0748  2.8908  1.2553
 1536THY    CA338390   1.118   1.214   7.315  0.1034  0.4834 -0.7639
 1536THY    HA338391   1.164   1.270   7.396 -1.2751 -0.4092  0.6853
 1536THY    CA438392   1.105   1.286   7.191 -0.1806  0.0567 -0.1205
 1536THY    HA438393   1.138   1.390   7.190  1.4554 -0.4347 -0.8929
 1536THY    CA538394   1.075   1.214   7.075 -0.4508  0.1579 -0.6258
 1536THY    CM138395   1.070   1.284   6.949 -0.6337 -0.0581  0.0964
 1536THY    HM138396   1.169   1.320   6.917 -0.0877 -1.6091 -0.0484
 1536THY    HM238397   1.039   1.220   6.866  0.7724 -0.5086 -0.1136
 1536THY    HM338398   0.997   1.365   6.957  0.8577  1.3558 -0.0038
 1536THY    CA638399   1.035   1.081   7.081 -0.0890 -0.2031 -0.6139
 1536THY    HA638400   0.998   1.032   6.992  1.8215  0.6246 -1.9278
 1537THY      O38401   3.242   2.649   5.958 -0.3853  0.2027 -0.0956
 1537THY     HO38402   3.275   2.674   6.046  0.9070 -0.4665 -0.3483
 1537THY    CA138403   3.333   2.702   5.877  0.4827 -0.4047  0.5350
 1537THY    CA238404   3.319   2.685   5.737 -0.3127  0.6238 -0.1040
 1537THY    CP138405   3.243   2.570   5.673 -0.4465  0.3178  0.0432
 1537THY    HP138406   3.212   2.487   5.739 -1.2454  0.7078  0.1647
 1537THY    CP238407   3.119   2.639   5.608 -0.7030  0.2465 -0.2636
 1537THY    HP238408   3.139   2.727   5.546 -1.3150  1.4258  1.1467
 1537THY    HP338409   3.050   2.567   5.562 -4.2628  1.7341  2.2694
 1537THY    HP438410   3.052   2.678   5.686  0.9693  1.5060  0.5899
 1537THY    CP338411   3.320   2.486   5.569  0.3914  0.0247 -0.8195
 1537THY    HP538412   3.359   2.546   5.485 -0.2661  0.5449 -0.7648
 1537THY    HP638413   3.409   2.443   5.616  1.5256  1.8247 -1.2059
 1537THY    HP738414   3.254   2.403   5.540  0.3267 -0.0701 -0.3969
 1537THY    CA338415   3.383   2.778   5.649 -0.1100 -0.6898  1.0590
 1537THY    HA338416   3.359   2.775   5.543 -1.9065  0.2837  1.3898
 1537THY    CA438417   3.468   2.879   5.705 -0.5273  0.2045 -0.2962
 1537THY    HA438418   3.522   2.939   5.632  1.1915 -0.3150  0.4888
 1537THY    CA538419   3.482   2.890   5.842  0.0923 -0.0421 -0.6825
 1537THY    CM138420   3.568   3.000   5.898  0.5995  0.0414 -0.3077
 1537THY    HM138421   3.565   3.085   5.830 -0.0588 -0.5711 -1.0532
 1537THY    HM238422   3.530   3.037   5.994 -1.4433 -0.1668 -0.9808
 1537THY    HM338423   3.673   2.969   5.903  0.7745  0.6613  0.0268
 1537THY    CA638424   3.413   2.804   5.924 -0.2697 -1.3175 -0.3377
 1537THY    HA638425   3.423   2.820   6.031 -3.0339  0.1206 -0.2180
 1538THY      O38426   9.497   4.122   2.081  0.2232  0.2361 -0.3169
 1538THY     HO38427   9.539   4.043   2.042 -0.7274 -0.1808 -0.5348
 1538THY    CA138428   9.379   4.087   2.121 -0.6636  0.7721  0.5244
 1538THY    CA238429   9.299   4.170   2.199 -0.2180 -0.1501 -0.2271
 1538THY    CP138430   9.347   4.314   2.231 -0.0978  0.8854 -0.5107
 1538THY    HP138431   9.452   4.328   2.200  0.3532 -1.4102 -0.1805
 1538THY    CP238432   9.260   4.420   2.158  0.8972 -0.6239 -0.6088
 1538THY    HP238433   9.181   4.463   2.221  0.7995 -0.3326 -0.9226
 1538THY    HP338434   9.338   4.495   2.140  1.0687 -0.5001  0.5533
 1538THY    HP438435   9.213   4.371   2.072  0.5430 -2.3790  0.5289
 1538THY    CP338436   9.339   4.332   2.381  0.0219 -0.9762 -0.5679
 1538THY    HP538437   9.392   4.256   2.440  1.4796 -0.8666 -1.6944
 1538THY    HP638438   9.393   4.425   2.404 -0.2258 -0.2431 -2.7683
 1538THY    HP738439   9.242   4.359   2.426 -0.2991 -1.8796 -0.7147
 1538THY    CA338440   9.174   4.114   2.241  1.0191  0.1219 -0.7485
 1538THY    HA338441   9.106   4.181   2.294 -0.4618  0.0932 -2.5281
 1538THY    CA438442   9.133   3.986   2.197 -0.2650 -0.4263  0.4198
 1538THY    HA438443   9.032   3.956   2.223 -1.8987  1.7390 -2.7538
 1538THY    CA538444   9.211   3.908   2.116  0.4198 -0.4820  0.0019
 1538THY    CM138445   9.154   3.774   2.063 -0.2340 -0.2550  0.5346
 1538THY    HM138446   9.100   3.722   2.143 -0.5755  2.4157  2.1680
 1538THY    HM238447   9.088   3.794   1.978 -0.4703  1.6873  1.1326
 1538THY    HM338448   9.234   3.709   2.025  0.8392  0.5928  1.2745
 1538THY    CA638449   9.334   3.958   2.075  0.4600 -0.1224 -0.2560
 1538THY    HA638450   9.395   3.894   2.011 -0.3997 -0.3583 -0.8629
 1539THY      O38451   9.074   2.430   8.654  0.0716  0.3802  0.1621
 1539THY     HO38452   9.166   2.404   8.672  0.8344  2.6114 -0.2620
 1539THY    CA138453   9.010   2.467   8.768  0.1270 -0.0684  0.0217
 1539THY    CA238454   8.870   2.471   8.771  0.3694  0.0264 -0.2754
 1539THY    CP138455   8.785   2.436   8.653  0.0205  0.4649 -0.3357
 1539THY    HP138456   8.846   2.396   8.571 -1.1227 -0.6356 -0.6826
 1539THY    CP238457   8.701   2.313   8.684  0.6838  0.0843  0.0702
 1539THY    HP238458   8.666   2.287   8.583  1.5339  0.0419 -0.2198
 1539THY    HP338459   8.762   2.229   8.718  0.3267  0.2325  1.1138
 1539THY    HP438460   8.613   2.335   8.746 -0.0250 -0.8624 -0.5806
 1539THY    CP338461   8.697   2.543   8.603  0.1774 -1.0056  0.5567
 1539THY    HP538462   8.761   2.627   8.577  0.3928 -1.1436  0.6425
 1539THY    HP638463   8.632   2.517   8.518  2.4827  2.4306 -2.5539
 1539THY    HP738464   8.637   2.575   8.689  0.2842 -1.1886  0.7018
 1539THY    CA338465   8.810   2.519   8.892  0.5845  0.5612 -0.0463
 1539THY    HA338466   8.702   2.528   8.895  0.7344  2.4091  1.7378
 1539THY    CA438467   8.889   2.553   9.003 -0.0671 -0.5381  0.1533
 1539THY    HA438468   8.843   2.598   9.090 -0.9650  1.9536 -1.5313
 1539THY    CA538469   9.027   2.536   9.002 -0.3116  1.0166 -0.2030
 1539THY    CM138470   9.108   2.579   9.117  0.2163  0.3922 -0.1830
 1539THY    HM138471   9.100   2.685   9.143 -1.1004 -0.0017  1.1061
 1539THY    HM238472   9.087   2.519   9.206 -1.0789  2.1776  0.7464
 1539THY    HM338473   9.214   2.559   9.094  0.2676  0.2903  0.1307
 1539THY    CA638474   9.090   2.494   8.879 -0.3595  0.5222  0.2684
 1539THY    HA638475   9.196   2.482   8.859 -0.7306 -1.4691 -0.7478
 1540THY      O38476   2.487   8.568   0.767 -0.2323 -0.4002 -0.4270
 1540THY     HO38477   2.424   8.551   0.695  0.2751 -0.4425 -0.8609
 1540THY    CA138478   2.418   8.506   0.867 -0.0400 -0.5808  0.0044
 1540THY    CA238479   2.417   8.561   1.001  0.3316  0.5044  0.2428
 1540THY    CP138480   2.489   8.687   1.044 -0.0253  0.2644  0.1988
 1540THY    HP138481   2.544   8.733   0.962  0.7401 -0.9839 -0.0151
 1540THY    CP238482   2.384   8.785   1.096  0.1215 -0.2521 -0.2858
 1540THY    HP238483   2.418   8.889   1.090 -0.3809 -0.0407  0.3857
 1540THY    HP338484   2.288   8.780   1.042  0.7155 -0.2115 -1.3872
 1540THY    HP438485   2.358   8.754   1.197 -1.2931 -0.0869 -0.5829
 1540THY    CP338486   2.580   8.654   1.158  0.2548  0.0508 -0.8686
 1540THY    HP538487   2.647   8.741   1.152 -2.2781  2.0077 -4.5972
 1540THY    HP638488   2.541   8.638   1.260 -0.7647 -2.1003 -1.5564
 1540THY    HP738489   2.643   8.566   1.144  2.1381  1.3135 -0.8247
 1540THY    CA338490   2.341   8.478   1.092 -0.2216 -0.4505 -0.7720
 1540THY    HA338491   2.329   8.517   1.193 -1.8879  0.0220 -1.1098
 1540THY    CA438492   2.270   8.364   1.057 -0.1257  0.0718  0.3430
 1540THY    HA438493   2.231   8.292   1.128  1.1432 -1.2473 -0.2470
 1540THY    CA538494   2.267   8.326   0.920 -0.4360 -0.4529 -0.8991
 1540THY    CM138495   2.196   8.210   0.871 -0.0286  0.4225 -0.1397
 1540THY    HM138496   2.269   8.130   0.856  0.7920  1.0981  0.2096
 1540THY    HM238497   2.121   8.168   0.940 -1.3168  0.4988 -1.4452
 1540THY    HM338498   2.151   8.230   0.773  1.5956 -4.8669 -2.3265
 1540THY    CA638499   2.348   8.390   0.832  0.1092  0.4580  0.0631
 1540THY    HA638500   2.334   8.362   0.728 -0.7745  0.0664  0.2746
 1541THY      O38501   8.578   9.155   4.689  0.1646  0.7465  0.1805
 1541THY     HO38502   8.619   9.077   4.731 -2.3394 -0.3240  0.8074
 1541THY    CA138503   8.449   9.131   4.689 -0.4051  0.5539  0.0994
 1541THY    CA238504   8.365   9.212   4.615 -0.3791 -0.2749 -0.6123
 1541THY    CP138505   8.422   9.330   4.532 -0.3820 -0.0138  0.3283
 1541THY    HP138506   8.531   9.339   4.528 -0.5146  1.5421 -0.9562
 1541THY    CP238507   8.380   9.299   4.389 -0.0411  0.5377  0.4832
 1541THY    HP238508   8.428   9.204   4.362 -1.0055 -0.2747  1.5094
 1541THY    HP338509   8.271   9.291   4.386  0.0443 -0.5013 -0.5196
 1541THY    HP438510   8.407   9.377   4.317 -1.5302 -1.1251 -2.0403
 1541THY    CP338511   8.365   9.459   4.591  0.3871  0.3490 -0.7687
 1541THY    HP538512   8.256   9.450   4.589  0.1247  2.8307 -3.2928
 1541THY    HP638513   8.409   9.461   4.691  3.0537 -2.9137 -1.6887
 1541THY    HP738514   8.392   9.550   4.537 -1.1599  0.9517 -0.5800
 1541THY    CA338515   8.229   9.189   4.616 -0.6129  0.0275 -0.4047
 1541THY    HA338516   8.166   9.265   4.570  1.4505  2.4665  0.5701
 1541THY    CA438517   8.174   9.079   4.688 -0.7564 -0.1067 -0.2128
 1541THY    HA438518   8.067   9.057   4.687 -0.3560 -2.5482 -2.5176
 1541THY    CA538519   8.256   8.997   4.762 -0.0611 -0.8420 -0.5068
 1541THY    CM138520   8.200   8.880   4.845  0.2380  0.7778 -0.8641
 1541THY    HM138521   8.100   8.855   4.809 -0.8123  1.8268  1.1500
 1541THY    HM238522   8.267   8.793   4.845 -0.0917  0.5111  0.4035
 1541THY    HM338523   8.186   8.896   4.952  0.6514 -0.8373 -0.5388
 1541THY    CA638524   8.396   9.023   4.763 -0.5608 -0.9256  0.2634
 1541THY    HA638525   8.467   8.963   4.819  1.1122  1.3665  0.7477
 1542THY      O38526   1.247   7.174   7.113 -0.5386 -0.2618  0.0971
 1542THY     HO38527   1.194   7.248   7.080  1.2575  0.3537 -1.6153
 1542THY    CA138528   1.351   7.163   7.031  0.3484  0.1618 -0.1861
 1542THY    CA238529   1.472   7.104   7.066  0.3342 -0.1997 -0.5048
 1542THY    CP138530   1.487   7.050   7.209 -0.6186 -0.1580 -0.0982
 1542THY    HP138531   1.398   7.059   7.272 -0.3869 -1.0308  0.3842
 1542THY    CP238532   1.520   6.903   7.216  0.3385  0.4372 -0.0620
 1542THY    HP238533   1.622   6.880   7.183  0.9778  0.6011  1.6870
 1542THY    HP338534   1.516   6.870   7.321  1.6231  0.0647 -0.1040
 1542THY    HP438535   1.439   6.860   7.156  0.0255  2.9118 -1.5374
 1542THY    CP338536   1.592   7.124   7.287  0.0608 -0.4809 -0.0206
 1542THY    HP538537   1.550   7.223   7.306 -0.0067 -0.4711 -0.2191
 1542THY    HP638538   1.623   7.073   7.379  0.2918  3.9370  2.6303
 1542THY    HP738539   1.684   7.142   7.229  0.1152  0.0772  0.2329
 1542THY    CA338540   1.575   7.100   6.970  0.0798  0.2813  1.0769
 1542THY    HA338541   1.674   7.063   6.996  0.7037  1.0043 -0.1960
 1542THY    CA438542   1.556   7.147   6.835  0.2207 -0.3337  0.0475
 1542THY    HA438543   1.646   7.149   6.774  1.3735 -0.6299  1.6705
 1542THY    CA538544   1.429   7.193   6.796 -0.5116 -0.1439 -0.3924
 1542THY    CM138545   1.414   7.252   6.665  0.3649  0.0103  0.9725
 1542THY    HM138546   1.444   7.180   6.588  0.8173  0.8655  0.3401
 1542THY    HM238547   1.307   7.276   6.655  0.6223  0.9219  0.3345
 1542THY    HM338548   1.483   7.336   6.657  0.6045 -0.2521  0.3039
 1542THY    CA638549   1.331   7.198   6.895  0.4602  0.1182  0.3996
 1542THY    HA638550   1.234   7.239   6.867  0.2473  0.6251  1.7962
 1543THY      O38551   6.019   8.609   0.786 -0.3232 -0.6698  0.2744
 1543THY     HO38552   5.979   8.535   0.736 -1.2383  0.5668 -0.9080
 1543THY    CA138553   6.029   8.706   0.689 -0.2083 -0.0845 -0.6917
 1543THY    CA238554   6.128   8.804   0.691  0.3421 -0.1321  0.0352
 1543THY    CP138555   6.245   8.797   0.791 -0.1496 -0.2106 -0.7869
 1543THY    HP138556   6.262   8.699   0.837  2.0824 -0.4208 -1.9199
 1543THY    CP238557   6.375   8.843   0.718 -0.1311 -0.0930  0.5570
 1543THY    HP238558   6.372   8.951   0.700  0.6590 -0.2395 -0.5126
 1543THY    HP338559   6.464   8.823   0.780  1.5183  0.2732 -1.5963
 1543THY    HP438560   6.390   8.784   0.627 -0.5900 -0.9923  1.0495
 1543THY    CP338561   6.208   8.890   0.909  0.2392  0.6611  0.1160
 1543THY    HP538562   6.281   8.887   0.990  0.1623  2.5209  0.2921
 1543THY    HP638563   6.202   8.992   0.871 -1.0438  0.0010 -1.6246
 1543THY    HP738564   6.117   8.848   0.952 -0.5140  0.2745 -1.7242
 1543THY    CA338565   6.115   8.906   0.599 -0.7769 -0.8786  0.1586
 1543THY    HA338566   6.186   8.987   0.596  0.5432 -2.0049 -1.9585
 1543THY    CA438567   6.022   8.900   0.501 -0.0690  0.0759  0.3196
 1543THY    HA438568   6.016   8.970   0.417  2.9081 -1.3982 -1.3000
 1543THY    CA538569   5.940   8.793   0.486  1.8354 -0.1599 -0.4065
 1543THY    CM138570   5.845   8.781   0.366 -1.0730 -0.3759  0.3740
 1543THY    HM138571   5.902   8.761   0.274  0.6354  2.2494  0.7386
 1543THY    HM238572   5.778   8.697   0.389 -3.2197  1.7552  2.3509
 1543THY    HM338573   5.785   8.872   0.361  0.9136  0.9755  0.0466
 1543THY    CA638574   5.943   8.693   0.583 -0.6140 -0.2859  0.1750
 1543THY    HA638575   5.876   8.609   0.571 -0.8519 -0.3712  1.8770
 1544THY      O38576   9.291   4.039   3.388 -0.2535 -0.0181  0.2287
 1544THY     HO38577   9.280   4.134   3.403 -0.8471  0.2219 -1.4505
 1544THY    CA138578   9.397   3.991   3.450  0.6087 -0.1854  0.3407
 1544THY    CA238579   9.443   3.865   3.411  0.0425 -0.0559 -0.3684
 1544THY    CP138580   9.395   3.804   3.276 -0.2730 -0.2678 -0.2271
 1544THY    HP138581   9.296   3.845   3.250  0.0606  1.0212  0.4924
 1544THY    CP238582   9.501   3.810   3.166 -0.1630 -0.2843 -0.1892
 1544THY    HP238583   9.544   3.908   3.143  0.8302 -0.5646  0.4085
 1544THY    HP338584   9.590   3.750   3.188  1.9093  2.8323  0.6798
 1544THY    HP438585   9.449   3.781   3.074 -0.3523 -0.1002 -0.1422
 1544THY    CP338586   9.369   3.653   3.295 -0.4954 -0.3430  0.7785
 1544THY    HP538587   9.346   3.600   3.202 -2.4763  0.6938  0.6213
 1544THY    HP638588   9.457   3.606   3.341 -0.3858 -0.0062  0.9219
 1544THY    HP738589   9.281   3.633   3.357  0.5087  0.1055  2.4201
 1544THY    CA338590   9.550   3.807   3.490 -0.4588  0.0349  0.5315
 1544THY    HA338591   9.595   3.714   3.456 -1.3021 -0.2311  0.0992
 1544THY    CA438592   9.598   3.873   3.601 -0.9349 -0.4437 -0.1478
 1544THY    HA438593   9.677   3.831   3.663 -2.2409 -2.5536  0.1670
 1544THY    CA538594   9.565   4.007   3.625  0.6165  0.6256 -0.1514
 1544THY    CM138595   9.624   4.075   3.744 -0.3996  0.4536  0.0201
 1544THY    HM138596   9.597   4.180   3.731 -2.9221 -0.0725  0.4422
 1544THY    HM238597   9.578   4.039   3.837 -1.7376  1.2195 -0.3193
 1544THY    HM338598   9.733   4.066   3.736 -0.5087 -0.7868 -0.2703
 1544THY    CA638599   9.463   4.064   3.550  0.0593  0.6246 -0.4925
 1544THY    HA638600   9.435   4.168   3.565 -0.8269  0.4082 -0.6191
 1545THY      O38601   8.904   5.170   2.360 -0.1327 -0.1587  0.2051
 1545THY     HO38602   8.927   5.176   2.265  0.6891 -1.2231  0.3194
 1545THY    CA138603   8.926   5.035   2.370  0.4273 -0.6091 -1.0293
 1545THY    CA238604   8.890   4.961   2.483  0.1401  0.1858 -0.2366
 1545THY    CP138605   8.833   5.036   2.601 -0.0329  0.0989 -0.9956
 1545THY    HP138606   8.814   5.143   2.585  0.2813  0.1103 -1.3060
 1545THY    CP238607   8.704   4.973   2.641  0.2559  0.3125  0.4792
 1545THY    HP238608   8.631   4.967   2.559  2.3731 -0.8393 -1.4350
 1545THY    HP338609   8.713   4.867   2.665  0.5390 -0.1234 -1.4554
 1545THY    HP438610   8.643   5.027   2.715  0.5394  0.2005  0.7946
 1545THY    CP338611   8.923   5.036   2.729 -0.7156 -0.1053 -0.2501
 1545THY    HP538612   8.871   5.042   2.825  0.7564  1.5674  0.5054
 1545THY    HP638613   8.976   4.940   2.738 -2.3674 -1.1981 -1.5256
 1545THY    HP738614   8.993   5.121   2.730 -0.2881 -0.4563  0.0976
 1545THY    CA338615   8.917   4.818   2.472  0.0227 -0.4227 -0.1164
 1545THY    HA338616   8.911   4.763   2.566 -1.1280  0.1576  0.1767
 1545THY    CA438617   8.972   4.759   2.353 -0.0826 -0.1933  0.4254
 1545THY    HA438618   9.002   4.655   2.356  0.4611 -0.0148  1.8652
 1545THY    CA538619   9.015   4.839   2.252 -0.8965 -0.1390 -0.6816
 1545THY    CM138620   9.089   4.783   2.137 -0.4684  0.6447 -0.4463
 1545THY    HM138621   9.182   4.732   2.167 -0.2016  1.5001  0.2198
 1545THY    HM238622   9.031   4.697   2.101 -1.0552  0.8733 -0.0669
 1545THY    HM338623   9.106   4.842   2.047  0.8082 -1.7481 -1.8728
 1545THY    CA638624   8.987   4.980   2.259  0.0789  0.3733  0.1090
 1545THY    HA638625   9.017   5.034   2.169 -0.3756 -1.3713 -1.1435
 1546THY      O38626   0.624   9.834   1.833  0.4074  0.4658 -0.2326
 1546THY     HO38627   0.642   9.903   1.900 -3.8268  0.2041  1.4628
 1546THY    CA138628   0.618   9.904   1.719  0.1261  0.1031  0.1474
 1546THY    CA238629   0.566   9.841   1.606 -0.6353  0.0404  0.5250
 1546THY    CP138630   0.515   9.696   1.608 -0.0926  0.5825  0.7980
 1546THY    HP138631   0.569   9.635   1.681 -0.1985 -1.8749 -1.0643
 1546THY    CP238632   0.366   9.688   1.656 -0.4089  0.2748  0.0742
 1546THY    HP238633   0.313   9.755   1.588  0.3725  1.2285  0.3821
 1546THY    HP338634   0.325   9.587   1.640  1.5544 -0.6087  0.2038
 1546THY    HP438635   0.349   9.719   1.759 -3.0887 -2.0714  0.4677
 1546THY    CP338636   0.526   9.629   1.471  0.3138  0.0865 -0.1578
 1546THY    HP538637   0.508   9.522   1.482 -0.4815  0.2693  0.4046
 1546THY    HP638638   0.464   9.674   1.393  0.1293  0.3322  0.1265
 1546THY    HP738639   0.631   9.640   1.443  0.3851  1.6491  0.6217
 1546THY    CA338640   0.533   9.918   1.494  0.1909  0.1439  0.2842
 1546THY    HA338641   0.488   9.883   1.401  1.7149  0.1234 -0.4772
 1546THY    CA438642   0.582  10.047   1.485 -0.0063 -0.1392 -0.3814
 1546THY    HA438643   0.568  10.099   1.391 -1.0201  2.0335  0.8733
 1546THY    CA538644   0.627  10.113   1.597  0.3361  0.3340  0.4837
 1546THY    CM138645   0.664  10.258   1.580 -0.2423  0.3056 -0.4169
 1546THY    HM138646   0.626  10.308   1.490  0.8519  0.9029 -0.5651
 1546THY    HM238647   0.620  10.305   1.669  1.1612  1.7102 -0.4382
 1546THY    HM338648   0.772  10.269   1.564 -0.2336  0.8614 -0.0202
 1546THY    CA638649   0.646  10.040   1.714  0.0722  0.1468  1.0008
 1546THY    HA638650   0.682  10.094   1.802  2.9685  1.3611 -0.7590
 1547THY      O38651   5.098   4.726   5.578  0.5783 -0.0594 -0.4669
 1547THY     HO38652   5.070   4.716   5.486 -2.9985 -1.9332  0.6513
 1547THY    CA138653   5.230   4.737   5.580  0.0498 -0.0595 -0.2780
 1547THY    CA238654   5.307   4.763   5.700 -0.2626 -0.8196  0.1332
 1547THY    CP138655   5.234   4.791   5.827  0.1929 -0.9216  0.3663
 1547THY    HP138656   5.134   4.745   5.833  0.2198 -0.9956  0.2435
 1547THY    CP238657   5.301   4.739   5.957 -0.9492  0.3222 -0.3062
 1547THY    HP238658   5.406   4.770   5.963 -0.6721 -0.6720  0.1004
 1547THY    HP338659   5.261   4.782   6.050 -1.4113  0.2034 -0.4445
 1547THY    HP438660   5.290   4.630   5.950 -0.8699  0.3505 -0.9406
 1547THY    CP338661   5.213   4.939   5.853  0.7065 -0.0992  0.1169
 1547THY    HP538662   5.313   4.984   5.851  0.8163 -0.3363  0.2172
 1547THY    HP638663   5.154   4.989   5.776  1.3349  1.6899  0.7529
 1547THY    HP738664   5.162   4.955   5.948  1.4028  0.2647  0.4371
 1547THY    CA338665   5.445   4.780   5.692 -0.1109 -0.4376  0.4584
 1547THY    HA338666   5.504   4.812   5.777 -1.8980 -0.4988  1.7718
 1547THY    CA438667   5.507   4.766   5.567 -0.0264  0.5712  0.2700
 1547THY    HA438668   5.614   4.785   5.561  0.5650 -1.7374  1.9608
 1547THY    CA538669   5.438   4.739   5.454  0.3396  0.4286 -0.1242
 1547THY    CM138670   5.517   4.729   5.318  0.3621  0.5243  0.4592
 1547THY    HM138671   5.622   4.701   5.331  0.4261 -0.7759 -2.2734
 1547THY    HM238672   5.469   4.644   5.268  0.8988  0.6329 -0.2466
 1547THY    HM338673   5.501   4.826   5.268  0.1215 -0.2424 -1.0110
 1547THY    CA638674   5.300   4.719   5.458  0.5228 -0.2146  0.3146
 1547THY    HA638675   5.244   4.692   5.369  0.4729 -2.5397  0.9977
 1548THY      O38676   0.419   7.021   2.371  0.1143 -0.1000 -0.3925
 1548THY     HO38677   0.387   6.939   2.330  2.2544 -0.7434 -0.8835
 1548THY    CA138678   0.391   7.015   2.508  0.1412 -0.8001 -0.1829
 1548THY    CA238679   0.393   7.132   2.592  0.1341  0.0099 -0.0430
 1548THY    CP138680   0.398   7.270   2.536 -0.4943 -0.9387 -0.5306
 1548THY    HP138681   0.400   7.275   2.427  0.6058  0.6652 -0.4729
 1548THY    CP238682   0.264   7.343   2.574  0.7749 -0.0680 -0.4177
 1548THY    HP238683   0.191   7.279   2.522  2.1807 -1.6249 -0.5797
 1548THY    HP338684   0.246   7.340   2.682  0.0295 -0.1611 -0.5330
 1548THY    HP438685   0.276   7.444   2.535  3.4093 -0.2984 -0.3568
 1548THY    CP338686   0.510   7.356   2.598 -0.1329  0.4162  0.2592
 1548THY    HP538687   0.497   7.367   2.707 -1.0879 -1.9362  0.4316
 1548THY    HP638688   0.606   7.306   2.583 -1.2052 -1.6050 -0.1996
 1548THY    HP738689   0.522   7.457   2.556  0.8808 -0.0959 -0.7453
 1548THY    CA338690   0.366   7.112   2.727 -0.1175  0.4829 -0.0278
 1548THY    HA338691   0.365   7.192   2.800  1.1726  0.1375  0.3953
 1548THY    CA438692   0.357   6.980   2.777 -0.1124 -0.6958  0.2260
 1548THY    HA438693   0.360   6.949   2.881 -1.0644 -2.2690 -0.1785
 1548THY    CA538694   0.356   6.871   2.692  0.5079  0.2004  0.5865
 1548THY    CM138695   0.352   6.735   2.753 -0.1551 -0.5630 -0.0614
 1548THY    HM138696   0.369   6.739   2.862  0.2060  0.2180 -0.1405
 1548THY    HM238697   0.255   6.689   2.732  0.4262 -0.8014 -2.4182
 1548THY    HM338698   0.436   6.671   2.723 -0.5192 -0.5056 -1.2550
 1548THY    CA638699   0.379   6.887   2.557 -0.4173  0.6286 -0.1564
 1548THY    HA638700   0.393   6.798   2.496 -1.2414  0.2118  0.2487
 1549THY      O38701   7.133   5.591   2.093 -0.3618 -0.1459 -0.1882
 1549THY     HO38702   7.196   5.665   2.101 -0.6626 -0.0811  2.9318
 1549THY    CA138703   7.207   5.487   2.114  0.0834  0.6158 -0.6539
 1549THY    CA238704   7.163   5.357   2.095 -0.2003  0.8135 -0.0296
 1549THY    CP138705   7.020   5.334   2.061 -0.3631 -0.3677  0.3679
 1549THY    HP138706   6.969   5.427   2.032  1.0648  1.0285  2.1231
 1549THY    CP238707   6.997   5.254   1.936  0.0610  0.2082 -0.0941
 1549THY    HP238708   7.061   5.165   1.938  2.5347  1.8898  0.7112
 1549THY    HP338709   6.891   5.228   1.925 -0.1546  0.9551  0.1567
 1549THY    HP438710   7.027   5.311   1.847  3.3095 -0.6188  0.3661
 1549THY    CP338711   6.952   5.267   2.181 -0.5098 -0.5023 -0.4298
 1549THY    HP538712   6.847   5.243   2.158 -1.5062  1.1427  1.9851
 1549THY    HP638713   6.997   5.172   2.212 -2.0922 -1.7274 -1.6795
 1549THY    HP738714   6.961   5.337   2.265 -0.1689  1.2355 -1.8662
 1549THY    CA338715   7.253   5.247   2.113 -0.1861 -0.0171 -0.1953
 1549THY    HA338716   7.220   5.147   2.087 -0.4307 -0.0398  0.1892
 1549THY    CA438717   7.382   5.269   2.158 -0.2936 -0.9675 -0.2083
 1549THY    HA438718   7.457   5.191   2.165  0.4828 -0.4176 -1.9203
 1549THY    CA538719   7.422   5.402   2.183  0.3547  0.6547  0.0326
 1549THY    CM138720   7.564   5.439   2.215  0.1081 -0.3284  0.2363
 1549THY    HM138721   7.636   5.367   2.174  0.7566  0.4627 -0.0586
 1549THY    HM238722   7.595   5.534   2.169  3.3481 -0.8119  1.2026
 1549THY    HM338723   7.581   5.445   2.323 -1.1548 -0.0549  0.4387
 1549THY    CA638724   7.333   5.502   2.160 -0.7391 -0.3546  0.3675
 1549THY    HA638725   7.367   5.603   2.182  0.9710 -1.1721  1.6758
 1550THY      O38726   7.176   6.838   6.834  0.7015 -0.3543 -0.0697
 1550THY     HO38727   7.130   6.921   6.856  2.3581  0.7240 -0.4767
 1550THY    CA138728   7.221   6.850   6.707 -0.5650  0.8243 -0.7993
 1550THY    CA238729   7.286   6.740   6.651 -0.5441  0.2466  0.1302
 1550THY    CP138730   7.303   6.607   6.731  0.2437  0.0327  0.8890
 1550THY    HP138731   7.267   6.620   6.834 -2.2441  1.6199 -0.0802
 1550THY    CP238732   7.214   6.493   6.667 -0.4818 -0.4545  0.2429
 1550THY    HP238733   7.229   6.485   6.559 -1.2598 -0.3435  0.1216
 1550THY    HP338734   7.216   6.395   6.716 -0.8051 -0.6907 -0.2068
 1550THY    HP438735   7.112   6.534   6.673  0.7303  2.6384  2.1243
 1550THY    CP338736   7.453   6.556   6.713  0.8909  0.1855 -0.2099
 1550THY    HP538737   7.526   6.628   6.750  1.1740  1.5292 -3.0837
 1550THY    HP638738   7.456   6.460   6.765 -0.8607  0.5404  0.5912
 1550THY    HP738739   7.481   6.542   6.608  0.2594 -0.8167 -0.2576
 1550THY    CA338740   7.314   6.752   6.517  0.5463  0.6609  0.5817
 1550THY    HA338741   7.356   6.666   6.465 -1.8495 -0.6013  0.5912
 1550THY    CA438742   7.301   6.869   6.446  0.3631  0.3461  0.1783
 1550THY    HA438743   7.340   6.880   6.345  2.0617  0.0182  0.7824
 1550THY    CA538744   7.235   6.980   6.506  0.2609 -0.3959  0.5546
 1550THY    CM138745   7.223   7.113   6.430  0.1076 -0.1453 -0.2337
 1550THY    HM138746   7.129   7.160   6.463  1.1154  3.2128 -1.6705
 1550THY    HM238747   7.298   7.186   6.461 -1.7503  2.2595 -1.0505
 1550THY    HM338748   7.210   7.116   6.321  0.9151  2.7320 -0.3484
 1550THY    CA638749   7.207   6.970   6.643 -0.5742 -0.4390  0.0859
 1550THY    HA638750   7.175   7.054   6.704  1.2414  0.9653 -0.8356
 1551THY      O38751   7.412   2.184   4.261  0.2619 -0.1382  0.2503
 1551THY     HO38752   7.389   2.094   4.231  0.8493 -0.4050  0.5921
 1551THY    CA138753   7.437   2.175   4.391 -0.0851 -0.4726 -0.5148
 1551THY    CA238754   7.470   2.293   4.467  0.4222 -0.4346 -0.3535
 1551THY    CP138755   7.456   2.432   4.404 -0.5004 -0.6226  0.4110
 1551THY    HP138756   7.437   2.427   4.296  1.2755  0.3474  0.0151
 1551THY    CP238757   7.334   2.508   4.449  0.1563  0.1915  0.8288
 1551THY    HP238758   7.352   2.540   4.553 -1.3851 -1.8847  1.8294
 1551THY    HP338759   7.312   2.592   4.382 -0.7573 -0.5800  0.1473
 1551THY    HP438760   7.245   2.444   4.456  0.8648 -0.8096  0.9026
 1551THY    CP338761   7.587   2.521   4.422 -0.4263  0.1473 -0.3467
 1551THY    HP538762   7.577   2.614   4.365 -0.5972  1.1083  1.2066
 1551THY    HP638763   7.606   2.549   4.526 -0.8093  1.6420 -0.6640
 1551THY    HP738764   7.680   2.478   4.381 -0.2077  0.5548 -0.2822
 1551THY    CA338765   7.514   2.274   4.602 -0.3641  0.3639  0.2794
 1551THY    HA338766   7.535   2.358   4.668  1.4634 -0.2993  0.6272
 1551THY    CA438767   7.501   2.147   4.656 -0.0434  0.8712  0.5775
 1551THY    HA438768   7.514   2.129   4.763 -4.0369  0.1131  1.1213
 1551THY    CA538769   7.465   2.039   4.581  0.5644  0.1519  1.1253
 1551THY    CM138770   7.454   1.903   4.647  0.0885  0.1374  0.2889
 1551THY    HM138771   7.546   1.882   4.702 -0.0745 -1.5712 -0.0212
 1551THY    HM238772   7.374   1.890   4.720  1.2015  2.3711  2.0106
 1551THY    HM338773   7.456   1.828   4.567  0.2939 -0.5591  0.9345
 1551THY    CA638774   7.432   2.048   4.444 -0.1376 -0.1774  0.3986
 1551THY    HA638775   7.410   1.962   4.382 -1.0539  1.5923 -1.8781
 1552THY      O38776   2.813   4.687   0.686 -0.1219  0.2034 -0.4045
 1552THY     HO38777   2.775   4.609   0.643  0.4125  0.0267 -0.5707
 1552THY    CA138778   2.722   4.715   0.786 -0.7915 -0.2779  0.3380
 1552THY    CA238779   2.735   4.825   0.868 -0.7866 -0.1754  0.5726
 1552THY    CP138780   2.856   4.921   0.850 -0.1263  0.0268 -0.3460
 1552THY    HP138781   2.903   4.898   0.754  0.4869 -0.3710  0.0428
 1552THY    CP238782   2.817   5.071   0.847  0.0184  0.1501  0.0312
 1552THY    HP238783   2.784   5.101   0.948 -0.3777  0.2230 -0.1167
 1552THY    HP338784   2.890   5.144   0.811 -0.4432 -0.1734 -1.6154
 1552THY    HP438785   2.737   5.082   0.772 -0.7839 -1.9477  0.5131
 1552THY    CP338786   2.969   4.889   0.952 -0.0121 -0.2041 -0.0095
 1552THY    HP538787   2.929   4.925   1.048 -1.9192 -2.3293  0.0866
 1552THY    HP638788   2.986   4.783   0.976  2.8487 -0.1312 -1.3589
 1552THY    HP738789   3.062   4.938   0.923 -0.6961  0.0588 -1.8994
 1552THY    CA338790   2.644   4.848   0.981 -0.3591 -0.3053 -0.2194
 1552THY    HA338791   2.672   4.912   1.064 -0.6598  0.2699 -0.5609
 1552THY    CA438792   2.528   4.771   0.985  0.5548  0.5289  0.4074
 1552THY    HA438793   2.447   4.781   1.057 -0.9476  1.7149 -1.3592
 1552THY    CA538794   2.514   4.658   0.899 -0.4128  0.0998  0.4785
 1552THY    CM138795   2.390   4.560   0.908 -0.0841  0.5025  0.5986
 1552THY    HM138796   2.408   4.465   0.857  0.2812 -2.0358  4.9591
 1552THY    HM238797   2.357   4.533   1.009 -1.3567  1.3218  0.4296
 1552THY    HM338798   2.305   4.613   0.864  0.7263 -0.2761 -2.1088
 1552THY    CA638799   2.615   4.626   0.804  0.0030 -0.4490 -0.3393
 1552THY    HA638800   2.593   4.557   0.723  1.7347 -1.4818  0.0221
 1553THY      O38801   4.323   7.466   4.295  0.0415  0.1509  0.1401
 1553THY     HO38802   4.301   7.374   4.319 -3.3670  1.1013  1.1681
 1553THY    CA138803   4.241   7.532   4.390 -0.3169  0.5572 -0.0653
 1553THY    CA238804   4.149   7.627   4.346  0.8523  0.3730 -0.5993
 1553THY    CP138805   4.122   7.663   4.204  0.0796 -0.8611  0.5173
 1553THY    HP138806   4.174   7.602   4.129  1.1598  1.7226 -0.9625
 1553THY    CP238807   3.975   7.660   4.169 -0.0403 -0.4046 -0.3841
 1553THY    HP238808   3.929   7.572   4.217  0.0443  0.9425  2.3780
 1553THY    HP338809   3.921   7.742   4.217  0.2691 -1.5261  2.0569
 1553THY    HP438810   3.959   7.669   4.061 -0.0144  0.7176 -0.3047
 1553THY    CP338811   4.170   7.805   4.188 -0.1067 -0.0181  0.4908
 1553THY    HP538812   4.268   7.806   4.238 -0.0657 -0.9770  0.4498
 1553THY    HP638813   4.177   7.834   4.083  0.0422  2.0690  1.0434
 1553THY    HP738814   4.101   7.881   4.225 -0.1652  0.6247 -0.8797
 1553THY    CA338815   4.087   7.706   4.442 -0.1845 -0.5577 -0.2160
 1553THY    HA338816   4.040   7.800   4.415 -0.8691 -1.3796 -2.0336
 1553THY    CA438817   4.095   7.672   4.577 -0.1320  0.3299  0.1484
 1553THY    HA438818   4.035   7.727   4.650  1.0007  1.7073  0.0832
 1553THY    CA538819   4.171   7.560   4.615  0.5990 -0.8419 -0.1418
 1553THY    CM138820   4.184   7.535   4.760 -0.4092 -0.0348 -0.2344
 1553THY    HM138821   4.188   7.428   4.786  2.1957  0.2637  0.9782
 1553THY    HM238822   4.268   7.585   4.811  1.4267 -0.5459 -2.5733
 1553THY    HM338823   4.098   7.553   4.825 -0.8143 -3.3360  0.3481
 1553THY    CA638824   4.252   7.494   4.522  0.8997 -0.2001  0.1239
 1553THY    HA638825   4.306   7.409   4.563 -1.9601 -0.3240  4.2970
 1554THY      O38826   4.532   0.326   4.397 -0.4489  0.8239  0.2173
 1554THY     HO38827   4.583   0.408   4.407 -0.1243  0.6184  0.2761
 1554THY    CA138828   4.400   0.353   4.360 -0.6538  0.5735  0.0598
 1554THY    CA238829   4.299   0.266   4.402 -0.2526 -0.3731  1.4130
 1554THY    CP138830   4.332   0.132   4.468 -0.8790  0.2730  0.4418
 1554THY    HP138831   4.435   0.108   4.496 -0.6969 -0.2386 -0.6163
 1554THY    CP238832   4.233   0.098   4.587 -0.2146  0.1045  0.5307
 1554THY    HP238833   4.231   0.182   4.657  1.2587  0.5638  0.0490
 1554THY    HP338834   4.129   0.080   4.557 -0.3382  1.5255 -0.0020
 1554THY    HP438835   4.283   0.014   4.635 -1.4865 -0.4741  0.8957
 1554THY    CP338836   4.331   0.024   4.356 -0.2901  0.3814  0.3121
 1554THY    HP538837   4.406   0.049   4.281 -1.1349  1.2339 -0.2775
 1554THY    HP638838   4.343  -0.079   4.392 -1.0262 -1.1949 -3.4996
 1554THY    HP738839   4.243   0.025   4.291 -0.5930 -2.3513  0.5662
 1554THY    CA338840   4.171   0.300   4.358 -0.1816 -0.0161  0.3046
 1554THY    HA338841   4.086   0.240   4.388  0.1125 -0.1715  0.8479
 1554THY    CA438842   4.147   0.418   4.287 -0.3152 -0.2593 -0.6073
 1554THY    HA438843   4.051   0.453   4.251 -0.3486 -1.0781 -1.3483
 1554THY    CA538844   4.253   0.505   4.262 -0.1385 -0.5798 -0.3156
 1554THY    CM138845   4.244   0.642   4.201 -0.0505 -0.6424  0.0898
 1554THY    HM138846   4.295   0.646   4.104  1.2888  0.3750  0.8130
 1554THY    HM238847   4.141   0.675   4.185  0.2487  0.0850 -0.3755
 1554THY    HM338848   4.290   0.722   4.259 -1.2367  0.4870 -0.4813
 1554THY    CA638849   4.377   0.474   4.301 -0.1237  0.0978 -0.6150
 1554THY    HA638850   4.457   0.544   4.279 -0.1079  0.4935  0.6462
 1555THY      O38851   4.213   8.395   9.229  0.5053  0.2693  0.1648
 1555THY     HO38852   4.243   8.391   9.321 -0.0949 -1.8290  0.3183
 1555THY    CA138853   4.082   8.362   9.227  0.8704 -1.1305  0.5305
 1555THY    CA238854   3.998   8.410   9.132  0.7346 -0.7065  0.4557
 1555THY    CP138855   4.054   8.496   9.019 -0.1169 -0.3293 -0.1868
 1555THY    HP138856   4.160   8.472   9.004 -0.3377 -2.1418  0.8277
 1555THY    CP238857   3.978   8.487   8.883  1.1189 -0.1464  0.8784
 1555THY    HP238858   4.027   8.549   8.806  1.6980  0.8682  2.0151
 1555THY    HP338859   3.971   8.382   8.852 -1.9618  0.0526  0.6605
 1555THY    HP438860   3.872   8.513   8.884  0.8861 -0.8087 -1.2016
 1555THY    CP338861   4.062   8.640   9.069  0.1825  1.1707 -0.3786
 1555THY    HP538862   4.086   8.640   9.176 -0.3519  1.5492 -0.2592
 1555THY    HP638863   4.148   8.692   9.025  1.6080  0.7389  1.6934
 1555THY    HP738864   3.976   8.704   9.049 -0.7265 -0.2598 -1.2622
 1555THY    CA338865   3.863   8.366   9.128 -0.0491 -0.9567  0.3388
 1555THY    HA338866   3.796   8.404   9.052 -2.5029 -1.1274  2.2654
 1555THY    CA438867   3.825   8.268   9.223 -0.0096 -0.2386 -0.7721
 1555THY    HA438868   3.724   8.229   9.234  0.9956 -2.4131  1.9463
 1555THY    CA538869   3.921   8.214   9.309  0.1027  0.0835  0.3961
 1555THY    CM138870   3.887   8.111   9.409 -0.0257  0.6924  0.2016
 1555THY    HM138871   3.931   8.126   9.509  0.2793 -0.3605  0.2369
 1555THY    HM238872   3.781   8.093   9.432  0.4525 -0.5502  1.7086
 1555THY    HM338873   3.921   8.014   9.369 -2.4628  0.3111 -1.1020
 1555THY    CA638874   4.049   8.261   9.312  0.3264  0.1390 -0.3739
 1555THY    HA638875   4.122   8.219   9.381  1.5620  0.8281 -1.2078
 1556THY      O38876   0.297   9.174   1.070 -0.1325  0.0448  0.0080
 1556THY     HO38877   0.246   9.140   1.145  0.8382 -0.7966  0.3179
 1556THY    CA138878   0.208   9.215   0.982 -0.5151 -0.1365  0.1556
 1556THY    CA238879   0.242   9.310   0.875 -0.1578 -0.2618 -0.0894
 1556THY    CP138880   0.387   9.367   0.870 -0.2139  0.5644 -0.4895
 1556THY    HP138881   0.469   9.299   0.898  1.8797  2.4607 -1.6442
 1556THY    CP238882   0.429   9.419   0.738 -0.6245 -0.1338 -0.6286
 1556THY    HP238883   0.405   9.353   0.654 -0.8166  1.3644 -1.7989
 1556THY    HP338884   0.387   9.520   0.723 -1.4193  0.0107  2.0369
 1556THY    HP438885   0.536   9.442   0.742 -0.4879 -0.7032 -0.9600
 1556THY    CP338886   0.407   9.484   0.970 -0.6723 -0.4466 -0.5139
 1556THY    HP538887   0.507   9.527   0.960 -0.6673 -0.5070 -0.7205
 1556THY    HP638888   0.328   9.559   0.966 -0.3417  0.4108  4.0212
 1556THY    HP738889   0.412   9.438   1.070  2.3536 -0.1614 -0.4277
 1556THY    CA338890   0.145   9.332   0.774 -0.2689 -0.8277 -0.4149
 1556THY    HA338891   0.169   9.402   0.695  2.6213 -0.7664  0.4329
 1556THY    CA438892   0.016   9.270   0.799 -0.3332  0.4526 -0.0710
 1556THY    HA438893  -0.053   9.282   0.716  0.8614 -2.6568 -1.6822
 1556THY    CA538894  -0.012   9.184   0.913  0.2603 -0.1802  0.1982
 1556THY    CM138895  -0.142   9.108   0.906  0.5909  0.1525  0.5361
 1556THY    HM138896  -0.127   9.012   0.855  0.7005  0.5050 -0.1069
 1556THY    HM238897  -0.179   9.079   1.005  0.8251 -1.7597  0.1121
 1556THY    HM338898  -0.225   9.157   0.852  2.1843  1.4867 -0.8104
 1556THY    CA638899   0.086   9.160   1.000  0.0890 -0.6799  0.4927
 1556THY    HA638900   0.081   9.079   1.073 -0.2794  0.0585  1.3017
 1557THY      O38901   8.097   1.396   5.190  0.1018  0.3610 -0.0642
 1557THY     HO38902   8.104   1.331   5.119  2.3086 -1.7290  1.8889
 1557THY    CA138903   8.000   1.342   5.280 -0.7619  0.8277  0.0479
 1557THY    CA238904   7.958   1.423   5.395 -0.4982  0.1846  0.0625
 1557THY    CP138905   7.993   1.574   5.411 -0.4045  0.2792 -1.1174
 1557THY    HP138906   8.082   1.594   5.350  2.2813 -0.9440  2.0985
 1557THY    CP238907   7.881   1.663   5.357  0.7170  0.0580  0.2969
 1557THY    HP238908   7.890   1.655   5.248  3.8946 -0.8240  0.5304
 1557THY    HP338909   7.775   1.645   5.379  0.2024  3.4178  1.0319
 1557THY    HP438910   7.889   1.769   5.381 -4.8066  0.8236  0.1450
 1557THY    CP338911   8.036   1.619   5.554  0.7348  0.6414 -0.7345
 1557THY    HP538912   8.060   1.534   5.620 -0.2009  0.4794 -0.5922
 1557THY    HP638913   8.124   1.684   5.560  1.3030 -0.1635  0.0245
 1557THY    HP738914   7.951   1.671   5.600 -0.6580 -0.8031 -1.5949
 1557THY    CA338915   7.846   1.382   5.466  0.0774 -1.1084 -0.0458
 1557THY    HA338916   7.807   1.449   5.541  0.7929 -1.7763  0.9421
 1557THY    CA438917   7.804   1.247   5.455 -0.5299  0.1810 -0.0311
 1557THY    HA438918   7.723   1.203   5.512  1.0367 -0.1401  2.0779
 1557THY    CA538919   7.855   1.165   5.352 -0.2022 -0.1320  0.0891
 1557THY    CM138920   7.781   1.035   5.325 -0.5225 -0.1233 -0.8766
 1557THY    HM138921   7.680   1.038   5.283 -0.6581 -1.5712 -0.7161
 1557THY    HM238922   7.847   0.987   5.252  0.1774  3.4268 -2.8222
 1557THY    HM338923   7.781   0.962   5.407  0.5986  0.6697 -0.1458
 1557THY    CA638924   7.957   1.212   5.262  0.1602  0.0130 -0.2409
 1557THY    HA638925   7.992   1.145   5.184  0.0387  0.1282 -0.3963
 1558THY      O38926   5.677   2.160   9.322  0.4503 -0.1219 -0.1320
 1558THY     HO38927   5.641   2.199   9.403  0.1943 -1.0221  0.2040
 1558THY    CA138928   5.785   2.087   9.360  0.1898 -0.2938  0.1603
 1558THY    CA238929   5.897   2.066   9.280  0.8093 -1.0157 -0.6240
 1558THY    CP138930   5.901   2.120   9.139 -0.0002  0.2125  0.7477
 1558THY    HP138931   5.801   2.154   9.111 -0.5074 -1.4474  0.4782
 1558THY    CP238932   6.002   2.235   9.120 -0.2442 -0.1620 -0.5109
 1558THY    HP238933   5.976   2.316   9.051  1.3937 -0.3900 -1.4565
 1558THY    HP338934   6.035   2.280   9.215 -2.9306  1.2892 -0.1689
 1558THY    HP438935   6.093   2.193   9.077  1.6788 -0.3222  3.2749
 1558THY    CP338936   5.918   2.005   9.037  0.3794  0.0182  0.8312
 1558THY    HP538937   5.848   1.924   9.060  1.3226 -0.9013  0.5517
 1558THY    HP638938   5.896   2.039   8.935  0.1634  0.9285  1.1654
 1558THY    HP738939   6.020   1.967   9.032  0.2085 -0.2728 -1.5539
 1558THY    CA338940   6.007   1.989   9.338 -0.5472 -0.4642  0.1445
 1558THY    HA338941   6.101   1.980   9.284 -0.7302 -1.4976 -0.0118
 1558THY    CA438942   6.001   1.950   9.469 -0.2701  0.1427  0.0035
 1558THY    HA438943   6.082   1.893   9.512 -0.0336  0.4789  0.0015
 1558THY    CA538944   5.885   1.969   9.543 -0.8727 -0.0993  0.4771
 1558THY    CM138945   5.874   1.901   9.676  0.0220  0.4139 -0.2512
 1558THY    HM138946   5.939   1.813   9.679 -0.5502 -0.1327 -2.0817
 1558THY    HM238947   5.900   1.966   9.760 -0.1229 -0.8430  0.7966
 1558THY    HM338948   5.777   1.852   9.691  0.5990 -0.5941  0.2725
 1558THY    CA638949   5.779   2.035   9.485  0.1006 -0.0835 -0.4851
 1558THY    HA638950   5.683   2.044   9.537  0.3237 -1.0210  0.1199
 1559THY      O38951   3.990   7.521   6.965  0.0172  0.4739  0.2962
 1559THY     HO38952   3.967   7.558   7.051 -0.9920  2.3636 -0.7127
 1559THY    CA138953   4.104   7.592   6.947  0.2551 -0.3261  0.3824
 1559THY    CA238954   4.204   7.541   6.855 -0.5060 -0.6469 -0.2350
 1559THY    CP138955   4.188   7.397   6.804 -0.2486 -0.1537 -0.1018
 1559THY    HP138956   4.085   7.362   6.811  0.1051 -0.9907  1.1758
 1559THY    CP238957   4.233   7.397   6.655 -0.3592  0.2116 -0.5101
 1559THY    HP238958   4.341   7.391   6.641 -0.4079 -0.5783 -0.6206
 1559THY    HP338959   4.192   7.306   6.610  1.2390 -0.5386 -0.5101
 1559THY    HP438960   4.191   7.485   6.606  0.0154  0.2959 -0.6741
 1559THY    CP338961   4.278   7.304   6.893  0.3731 -0.6571 -0.2396
 1559THY    HP538962   4.373   7.350   6.922 -0.5061  0.9619  0.2098
 1559THY    HP638963   4.227   7.277   6.986 -0.5904  0.0710 -0.5422
 1559THY    HP738964   4.301   7.209   6.844  1.4403  0.4466 -2.0275
 1559THY    CA338965   4.325   7.613   6.838 -0.4254  1.3195  0.2019
 1559THY    HA338966   4.401   7.564   6.778 -1.1895 -2.2906  1.9031
 1559THY    CA438967   4.338   7.730   6.898  0.3689  0.1650 -0.8881
 1559THY    HA438968   4.428   7.786   6.874  1.3288 -0.3695  1.1988
 1559THY    CA538969   4.239   7.788   6.984 -0.3161  0.0344 -0.0947
 1559THY    CM138970   4.271   7.924   7.036 -0.5446  1.2006  0.0843
 1559THY    HM138971   4.249   7.927   7.143  2.1140 -1.1915  0.8321
 1559THY    HM238972   4.377   7.946   7.019  0.0591 -1.6033 -0.3239
 1559THY    HM338973   4.216   8.008   6.992 -1.3574  0.3663 -0.5245
 1559THY    CA638974   4.127   7.712   7.010  0.1576  0.3215 -0.7296
 1559THY    HA638975   4.046   7.750   7.072 -0.0097  0.3137 -0.9426
 1560THY      O38976   2.003   2.779   6.743  0.5803 -0.1473 -0.1269
 1560THY     HO38977   2.094   2.767   6.710  0.8189  0.0070  0.4483
 1560THY    CA138978   1.946   2.851   6.647 -0.0438  1.1263 -0.7482
 1560THY    CA238979   1.848   2.943   6.680  1.2479  0.1191  0.7796
 1560THY    CP138980   1.795   2.963   6.823  0.7944 -0.3278 -0.3718
 1560THY    HP138981   1.828   2.877   6.883  1.1362 -0.7386 -1.1478
 1560THY    CP238982   1.849   3.095   6.869 -0.0677  0.5985  0.1136
 1560THY    HP238983   1.958   3.102   6.873 -0.1226  1.4709  0.5095
 1560THY    HP338984   1.805   3.178   6.812 -0.3276  0.5093  0.1810
 1560THY    HP438985   1.804   3.107   6.969  0.1141 -0.7091  0.3654
 1560THY    CP338986   1.640   2.957   6.833 -0.1433  0.1214 -0.2966
 1560THY    HP538987   1.594   3.047   6.788 -2.4013  0.4328  2.3589
 1560THY    HP638988   1.606   2.865   6.784  0.4250  0.0677 -0.6019
 1560THY    HP738989   1.613   2.968   6.939  1.9978 -0.6973  0.3676
 1560THY    CA338990   1.785   3.018   6.574 -0.2129 -0.1528 -0.5572
 1560THY    HA338991   1.709   3.092   6.599  0.0086 -0.3184  0.6861
 1560THY    CA438992   1.828   3.002   6.443 -0.1574  0.3791  0.2146
 1560THY    HA438993   1.780   3.059   6.364  1.0929 -1.1418 -1.7212
 1560THY    CA538994   1.946   2.921   6.421  0.0090  0.1546 -0.0856
 1560THY    CM138995   1.983   2.907   6.277  0.6565  0.6269 -0.1845
 1560THY    HM138996   2.067   2.838   6.263 -0.8455 -1.0663 -1.1285
 1560THY    HM238997   1.898   2.880   6.214  1.6010 -2.5592 -0.2397
 1560THY    HM338998   2.007   3.005   6.235 -0.4405  1.6577  1.4665
 1560THY    CA638999   1.997   2.835   6.517 -0.3616  0.5930 -1.1748
 1560THY    HA639000   2.078   2.764   6.504  0.3686  1.3123 -0.5764
 1561THY      O39001   7.621   4.304   2.938 -0.1140 -0.1139  0.3808
 1561THY     HO39002   7.641   4.235   2.872 -0.0224  1.0358 -0.8307
 1561THY    CA139003   7.693   4.272   3.046 -0.1770 -0.3478 -0.5752
 1561THY    CA239004   7.719   4.364   3.148 -0.4963 -0.7626 -0.4930
 1561THY    CP139005   7.670   4.510   3.150 -0.8350 -0.3899 -0.3123
 1561THY    HP139006   7.596   4.531   3.072 -0.3591 -2.2145 -1.3089
 1561THY    CP239007   7.585   4.531   3.278 -0.5659 -0.0378 -0.4058
 1561THY    HP239008   7.626   4.483   3.367 -1.0789 -2.7508 -1.5490
 1561THY    HP339009   7.580   4.638   3.300 -0.8788 -0.1794  0.2117
 1561THY    HP439010   7.491   4.478   3.259 -0.5501 -0.1354 -0.2059
 1561THY    CP339011   7.778   4.615   3.141 -0.2851  0.2140 -0.9772
 1561THY    HP539012   7.832   4.602   3.236 -1.8023 -1.6830 -0.3059
 1561THY    HP639013   7.844   4.601   3.055  1.1426 -0.6663  0.2035
 1561THY    HP739014   7.740   4.718   3.143  1.1937  0.8815  3.1882
 1561THY    CA339015   7.807   4.321   3.251 -0.2940  0.4357 -0.1261
 1561THY    HA339016   7.828   4.384   3.337 -2.6319  0.3592  0.5593
 1561THY    CA439017   7.859   4.192   3.251  0.0202  0.1091 -0.3058
 1561THY    HA439018   7.939   4.169   3.321 -0.4965  0.7340  0.4994
 1561THY    CA539019   7.829   4.102   3.150  0.3524 -0.1818 -0.5520
 1561THY    CM139020   7.882   3.959   3.151  0.8011 -0.2624 -0.2110
 1561THY    HM139021   7.991   3.954   3.145  1.0380  1.1214  1.9325
 1561THY    HM239022   7.862   3.907   3.246  5.3989  2.0258  2.3078
 1561THY    HM339023   7.837   3.895   3.074 -1.2885 -2.9039  2.9258
 1561THY    CA639024   7.747   4.136   3.046  0.8162  0.5289  0.0894
 1561THY    HA639025   7.715   4.063   2.972 -1.4761  0.0956  1.4021
 1562THY      O39026   6.866   1.223   9.523 -0.3532 -0.2454  0.0526
 1562THY     HO39027   6.849   1.255   9.433 -0.2698 -0.2641  0.0306
 1562THY    CA139028   6.750   1.176   9.576  0.1248  0.1460 -0.2649
 1562THY    CA239029   6.742   1.164   9.714  0.5479 -0.2276 -0.6923
 1562THY    CP139030   6.866   1.198   9.800  0.0097  0.1634  0.0474
 1562THY    HP139031   6.954   1.184   9.737  0.3136  0.2782  0.4411
 1562THY    CP239032   6.857   1.342   9.850 -0.1528  0.2771 -0.1181
 1562THY    HP239033   6.814   1.400   9.767  0.0934 -0.6578 -0.9167
 1562THY    HP339034   6.800   1.348   9.944 -1.4426  2.1954 -0.9614
 1562THY    HP439035   6.960   1.368   9.877  0.0421 -1.7363  1.3251
 1562THY    CP339036   6.901   1.094   9.905  0.3922  0.2097  0.5656
 1562THY    HP539037   6.932   1.001   9.855 -1.5823  0.3290 -1.0116
 1562THY    HP639038   6.983   1.123   9.972 -1.9943  0.9417  3.3884
 1562THY    HP739039   6.817   1.091   9.976 -2.1115 -0.5883 -2.2426
 1562THY    CA339040   6.613   1.135   9.769  0.3594 -0.4372 -0.2931
 1562THY    HA339041   6.595   1.123   9.875 -0.1421 -1.6831 -0.4965
 1562THY    CA439042   6.503   1.104   9.691 -0.3749  0.4844  0.2905
 1562THY    HA439043   6.415   1.065   9.740  1.5062 -1.4029  2.4195
 1562THY    CA539044   6.519   1.115   9.552 -0.2807 -0.2448  0.2099
 1562THY    CM139045   6.396   1.093   9.465  0.6124 -1.4367 -0.4673
 1562THY    HM139046   6.421   1.120   9.362  0.1619 -0.5052 -0.3464
 1562THY    HM239047   6.362   0.989   9.474 -1.4237 -0.8566 -0.9674
 1562THY    HM339048   6.315   1.162   9.490  1.9976  0.3934 -0.8318
 1562THY    CA639049   6.640   1.146   9.492  0.5537 -0.1227 -0.2874
 1562THY    HA639050   6.645   1.132   9.384  0.3344 -1.8948 -0.1097
 1563THY      O39051   1.298   7.431   5.609 -0.4449 -0.1445 -0.4406
 1563THY     HO39052   1.264   7.442   5.699 -0.9474 -2.2772 -0.3134
 1563THY    CA139053   1.196   7.432   5.524 -0.1406 -0.7688  0.4473
 1563THY    CA239054   1.198   7.360   5.406  0.3324 -0.1601  0.8896
 1563THY    CP139055   1.309   7.262   5.379  0.2565  0.3606  0.3414
 1563THY    HP139056   1.376   7.247   5.464 -0.7943 -0.3863  1.0643
 1563THY    CP239057   1.261   7.124   5.361 -0.3677  0.5646 -0.1859
 1563THY    HP239058   1.345   7.066   5.321 -0.2360 -0.7490  1.8537
 1563THY    HP339059   1.232   7.079   5.457 -1.9274  1.9987  0.0639
 1563THY    HP439060   1.179   7.112   5.288 -0.1590 -0.1613 -0.3115
 1563THY    CP339061   1.394   7.316   5.271  0.2151 -0.2984 -0.3038
 1563THY    HP539062   1.332   7.325   5.181  0.9723 -1.2687 -0.9443
 1563THY    HP639063   1.427   7.418   5.294  2.0079 -0.8326 -0.3130
 1563THY    HP739064   1.481   7.251   5.258  1.6077  0.5895  3.3757
 1563THY    CA339065   1.086   7.376   5.320 -0.6860  0.0953 -0.1774
 1563THY    HA339066   1.082   7.314   5.231 -1.1204  0.0994 -0.1633
 1563THY    CA439067   0.987   7.465   5.342  0.4857 -0.2979 -0.6538
 1563THY    HA439068   0.907   7.485   5.272  0.6615  2.7850 -0.0862
 1563THY    CA539069   0.988   7.542   5.456  0.8556  0.3932 -0.0296
 1563THY    CM139070   0.890   7.643   5.482 -0.0840  0.2845 -0.5426
 1563THY    HM139071   0.910   7.740   5.436  3.5028 -0.1958 -0.2413
 1563THY    HM239072   0.793   7.623   5.435 -0.8686 -0.1841  1.1888
 1563THY    HM339073   0.867   7.643   5.589 -0.0322  1.9833 -0.5154
 1563THY    CA639074   1.089   7.520   5.550  0.4507  0.0454  0.0848
 1563THY    HA639075   1.083   7.593   5.630 -1.4858  2.0716 -1.7533
 1564THY      O39076   3.400   0.787   8.254 -0.1534 -0.2892 -1.0911
 1564THY     HO39077   3.467   0.824   8.195 -0.2871  2.7841  0.5007
 1564THY    CA139078   3.402   0.647   8.250 -0.2334 -0.2858 -0.4281
 1564THY    CA239079   3.355   0.572   8.358 -0.0966 -0.1371  0.1524
 1564THY    CP139080   3.288   0.639   8.481  0.7826 -0.2795  0.3089
 1564THY    HP139081   3.262   0.741   8.449 -1.3231 -1.4394 -2.0114
 1564THY    CP239082   3.147   0.568   8.518  0.1391 -0.2865  0.3893
 1564THY    HP239083   3.157   0.460   8.511  1.8120 -0.0289 -2.2944
 1564THY    HP339084   3.108   0.585   8.619  0.1187  0.0191  0.3321
 1564THY    HP439085   3.073   0.587   8.439  1.2693 -3.0809 -1.4770
 1564THY    CP339086   3.385   0.648   8.603 -0.4296  0.4332  0.3916
 1564THY    HP539087   3.335   0.697   8.688 -0.8032 -1.6280  1.4226
 1564THY    HP639088   3.422   0.558   8.653  1.9752  1.1099 -0.0213
 1564THY    HP739089   3.480   0.694   8.572 -0.4306 -1.3518 -2.5685
 1564THY    CA339090   3.371   0.428   8.344 -0.4751 -0.8551 -0.7148
 1564THY    HA339091   3.352   0.364   8.429  1.1453 -0.6879 -0.2059
 1564THY    CA439092   3.419   0.378   8.221  0.4024  0.7522  0.0198
 1564THY    HA439093   3.432   0.270   8.211 -0.1056  0.2980  3.2278
 1564THY    CA539094   3.469   0.463   8.118 -0.4393  0.6814 -0.7219
 1564THY    CM139095   3.545   0.410   7.989  0.2446  0.7340 -0.4000
 1564THY    HM139096   3.531   0.471   7.900 -1.0208 -3.1504 -3.1112
 1564THY    HM239097   3.652   0.413   8.014  0.1226  2.4461  0.0319
 1564THY    HM339098   3.516   0.306   7.969  1.4723  0.4420 -0.7392
 1564THY    CA639099   3.451   0.592   8.131 -0.1225 -0.5534  0.0134
 1564THY    HA639100   3.485   0.656   8.050  0.8483 -1.7466 -0.5549
 1565THY      O39101   2.488   0.412   4.847 -0.3129 -0.8480 -0.0903
 1565THY     HO39102   2.496   0.383   4.939 -0.5130  0.9970  0.5458
 1565THY    CA139103   2.615   0.425   4.807 -0.4019  0.4402  0.2353
 1565THY    CA239104   2.649   0.404   4.675 -1.3321 -0.5636  0.9302
 1565THY    CP139105   2.556   0.361   4.570 -0.4559  0.0136  0.0900
 1565THY    HP139106   2.477   0.301   4.618  2.6592 -3.5023  1.3431
 1565THY    CP239107   2.494   0.477   4.490  0.2680 -0.0547  0.1899
 1565THY    HP239108   2.566   0.554   4.460 -0.0979 -0.0785 -0.7771
 1565THY    HP339109   2.445   0.444   4.398 -1.0004  1.5814  0.2272
 1565THY    HP439110   2.410   0.521   4.546 -0.6893  0.3294 -1.4906
 1565THY    CP339111   2.614   0.263   4.467 -0.0592 -0.0384  0.8090
 1565THY    HP539112   2.682   0.188   4.510  2.1358  1.1461 -0.3692
 1565THY    HP639113   2.547   0.202   4.405  0.8780 -2.0716  1.6870
 1565THY    HP739114   2.677   0.324   4.401 -3.5236  1.7350 -1.1365
 1565THY    CA339115   2.787   0.427   4.640  0.3831  0.9616 -0.3717
 1565THY    HA339116   2.819   0.416   4.537 -1.2400  0.7154 -0.8725
 1565THY    CA439117   2.881   0.466   4.741  0.5481  0.4070 -0.5620
 1565THY    HA439118   2.984   0.484   4.711  0.4753  2.7171  0.3521
 1565THY    CA539119   2.841   0.484   4.871 -0.1035 -0.0180 -0.3396
 1565THY    CM139120   2.940   0.506   4.983  0.6925  0.2548 -0.3810
 1565THY    HM139121   2.929   0.611   5.015  2.2013 -0.0143  1.1608
 1565THY    HM239122   2.912   0.439   5.065 -0.0879  1.0622  0.0414
 1565THY    HM339123   3.043   0.496   4.948  1.3959 -0.9288  1.8355
 1565THY    CA639124   2.705   0.470   4.903  1.0274 -0.6272  0.5908
 1565THY    HA639125   2.680   0.500   5.004  0.7362  1.7474 -0.1229
 1566THY      O39126   4.678   3.536   8.821 -0.8098 -0.1567  0.1411
 1566THY     HO39127   4.732   3.462   8.788 -1.3431  0.5349 -2.5054
 1566THY    CA139128   4.631   3.601   8.711  0.2037 -0.3410 -0.5002
 1566THY    CA239129   4.508   3.673   8.713 -0.2893 -0.5312 -0.2548
 1566THY    CP139130   4.429   3.694   8.843 -0.3770 -0.6465  0.3769
 1566THY    HP139131   4.424   3.601   8.902 -0.1114 -0.9243 -0.0349
 1566THY    CP239132   4.496   3.796   8.926  0.4288  0.5330 -0.2079
 1566THY    HP239133   4.432   3.826   9.010  0.0798 -1.3630  0.2491
 1566THY    HP339134   4.583   3.746   8.969  2.7031  2.3276 -2.4226
 1566THY    HP439135   4.520   3.879   8.859 -2.3635 -0.1697 -2.2775
 1566THY    CP339136   4.281   3.735   8.823 -0.5836  0.4261  0.8487
 1566THY    HP539137   4.269   3.833   8.774 -1.3888  1.3189  2.7218
 1566THY    HP639138   4.240   3.660   8.755  0.5771 -0.1880  0.7924
 1566THY    HP739139   4.234   3.743   8.922  0.4917  1.1435  1.3292
 1566THY    CA339140   4.463   3.740   8.594  0.3851 -0.4300 -0.2726
 1566THY    HA339141   4.374   3.803   8.591  0.5888 -0.0952  0.3399
 1566THY    CA439142   4.538   3.738   8.484  0.2962  1.0199 -0.0222
 1566THY    HA439143   4.516   3.787   8.390  0.3046 -1.8843 -1.6601
 1566THY    CA539144   4.651   3.653   8.481 -0.5267  0.4021 -0.3956
 1566THY    CM139145   4.729   3.630   8.363 -0.2051  0.4573 -0.3480
 1566THY    HM139146   4.684   3.554   8.298 -3.5142  0.5350  1.6144
 1566THY    HM239147   4.727   3.716   8.295  0.6868 -1.8727 -3.5755
 1566THY    HM339148   4.833   3.602   8.384 -0.1775  1.0603  0.3514
 1566THY    CA639149   4.699   3.587   8.593  0.0046 -0.2183 -0.8151
 1566THY    HA639150   4.789   3.526   8.586  0.7876  0.9351 -1.0693
 1567THY      O39151   0.967   1.320   1.303  0.1296 -0.4733  0.3332
 1567THY     HO39152   0.909   1.361   1.237  1.5444  0.5457 -0.3240
 1567THY    CA139153   1.062   1.411   1.354  0.6903 -0.0214 -0.5074
 1567THY    CA239154   1.193   1.373   1.385  0.1031 -0.4788  0.6211
 1567THY    CP139155   1.242   1.228   1.358 -0.8438 -0.0619  0.1214
 1567THY    HP139156   1.154   1.164   1.371 -2.8717  2.3902 -0.6338
 1567THY    CP239157   1.283   1.213   1.215  0.3990  0.0589 -0.0978
 1567THY    HP239158   1.200   1.247   1.152 -1.2785 -1.4041  1.2038
 1567THY    HP339159   1.380   1.262   1.197  0.8005 -0.4879  0.5385
 1567THY    HP439160   1.305   1.107   1.197 -1.6937 -0.2703 -0.9905
 1567THY    CP339161   1.364   1.180   1.454  0.1655  0.1085 -0.0439
 1567THY    HP539162   1.459   1.227   1.425  0.3754 -0.5981 -0.5577
 1567THY    HP639163   1.347   1.207   1.559  0.3887 -2.8320  0.8518
 1567THY    HP739164   1.369   1.070   1.454  0.0262  0.1012  0.6726
 1567THY    CA339165   1.278   1.467   1.451  0.5570 -0.5743  0.0597
 1567THY    HA339166   1.378   1.442   1.486  1.5168  1.9998 -0.5947
 1567THY    CA439167   1.236   1.588   1.479 -0.1248  0.2495  0.3816
 1567THY    HA439168   1.293   1.663   1.534 -1.2740  0.0631  1.9079
 1567THY    CA539169   1.105   1.624   1.462 -0.7791 -0.3664 -0.0798
 1567THY    CM139170   1.060   1.757   1.517  0.2992 -0.3230  0.1017
 1567THY    HM139171   1.044   1.755   1.625  0.8560 -1.8730  0.1691
 1567THY    HM239172   1.137   1.834   1.504 -1.0929  1.6102  2.4412
 1567THY    HM339173   0.971   1.797   1.466  1.1936  0.7867 -0.6279
 1567THY    CA639174   1.017   1.539   1.395 -0.4594 -0.2833  0.7738
 1567THY    HA639175   0.917   1.580   1.390  0.2219  1.5126  1.1575
 1568THY      O39176   8.255   6.046   9.677  0.0878 -0.3750 -0.1943
 1568THY     HO39177   8.305   5.978   9.724  0.6594  1.4066  1.9160
 1568THY    CA139178   8.127   6.009   9.647 -0.3619  0.0608 -0.3590
 1568THY    CA239179   8.063   6.047   9.527 -0.3508 -0.5424 -0.2543
 1568THY    CP139180   8.156   6.110   9.413  0.6514 -0.1239  0.0010
 1568THY    HP139181   8.247   6.153   9.458  1.2181 -0.8552 -0.4211
 1568THY    CP239182   8.190   5.993   9.317 -0.0057 -0.3334  0.2119
 1568THY    HP239183   8.096   5.949   9.282  0.3414 -2.4816  1.7696
 1568THY    HP339184   8.233   6.030   9.224 -0.2132 -0.2574  0.1446
 1568THY    HP439185   8.260   5.926   9.369 -0.5995 -1.1696 -0.0448
 1568THY    CP339186   8.087   6.218   9.327  0.4785  0.2727 -0.8816
 1568THY    HP539187   8.153   6.268   9.255 -0.5560 -0.5151 -2.4320
 1568THY    HP639188   7.999   6.164   9.292  0.3777 -0.3799  0.3401
 1568THY    HP739189   8.040   6.296   9.389 -0.7602 -0.2000 -1.2060
 1568THY    CA339190   7.930   6.003   9.502 -0.2247  0.4836  0.0382
 1568THY    HA339191   7.871   6.026   9.414 -2.2388 -0.2855  1.0951
 1568THY    CA439192   7.864   5.933   9.607 -0.5048 -0.1820 -0.1257
 1568THY    HA439193   7.760   5.903   9.595 -0.8113  0.8170 -0.0878
 1568THY    CA539194   7.928   5.899   9.719 -0.0319  0.4270 -0.4801
 1568THY    CM139195   7.869   5.803   9.814  0.4469 -0.1133 -0.6746
 1568THY    HM139196   7.791   5.741   9.770 -0.4193 -0.1857  0.9027
 1568THY    HM239197   7.943   5.737   9.861 -0.0577  0.8128  1.5735
 1568THY    HM339198   7.826   5.854   9.901  1.8316 -0.2054  0.0964
 1568THY    CA639199   8.061   5.936   9.744 -0.1620 -0.7416  0.0649
 1568THY    HA639200   8.110   5.908   9.837  1.6608 -0.6862 -0.8425
 1569THY      O39201   5.920   7.049   9.754  0.1860 -0.0211  0.2108
 1569THY     HO39202   6.010   7.086   9.755  1.6972 -3.3758  0.1371
 1569THY    CA139203   5.846   7.105   9.655 -0.1602 -0.1900  0.5558
 1569THY    CA239204   5.718   7.053   9.617  0.1190 -0.5365 -0.1185
 1569THY    CP139205   5.655   6.933   9.679  0.0978  0.3101 -0.3892
 1569THY    HP139206   5.730   6.900   9.751 -0.9863  1.5943  1.4377
 1569THY    CP239207   5.536   6.977   9.770  0.6571  0.3146 -0.1856
 1569THY    HP239208   5.563   7.066   9.829  5.5224 -1.8102  1.2924
 1569THY    HP339209   5.444   6.994   9.713  1.9211  1.0578 -2.0965
 1569THY    HP439210   5.519   6.900   9.846  1.2477  0.6853  0.3312
 1569THY    CP339211   5.603   6.814   9.592 -0.3547 -0.2991 -0.3731
 1569THY    HP539212   5.513   6.845   9.539 -0.4138  0.0967 -0.0457
 1569THY    HP639213   5.680   6.785   9.519  2.0228  0.4641  1.6699
 1569THY    HP739214   5.592   6.729   9.661 -0.3118  0.0501  0.0662
 1569THY    CA339215   5.644   7.130   9.520 -0.0914 -0.2352  0.1212
 1569THY    HA339216   5.539   7.106   9.503 -0.7517  0.8510  2.3088
 1569THY    CA439217   5.702   7.238   9.453 -0.4309  0.4924 -0.0184
 1569THY    HA439218   5.648   7.287   9.372 -0.1818  1.5675  0.4506
 1569THY    CA539219   5.842   7.272   9.478 -0.1687  1.2561 -0.0994
 1569THY    CM139220   5.915   7.380   9.404  1.2789  0.3249 -0.2199
 1569THY    HM139221   5.943   7.457   9.476 -0.0103 -0.7028  1.4824
 1569THY    HM239222   6.002   7.343   9.349  0.7052  1.3327 -1.8910
 1569THY    HM339223   5.851   7.426   9.328 -1.4759  0.0956  1.7794
 1569THY    CA639224   5.910   7.204   9.581  0.1710  0.7408  0.1105
 1569THY    HA639225   6.006   7.244   9.611  0.7478 -0.4240 -0.1446
 1570THY      O39226   5.787   1.798   1.784  0.4063 -0.4501 -0.0244
 1570THY     HO39227   5.826   1.822   1.698  0.2795 -1.1554 -0.2890
 1570THY    CA139228   5.785   1.658   1.790  0.7734  0.0550 -0.2079
 1570THY    CA239229   5.693   1.596   1.878 -0.0687 -0.1580  0.1505
 1570THY    CP139230   5.612   1.667   1.997 -0.2654 -0.0634 -0.3024
 1570THY    HP139231   5.623   1.776   1.986 -1.1692  0.0570 -0.1472
 1570THY    CP239232   5.461   1.633   1.996 -0.1406 -0.3626  0.2265
 1570THY    HP239233   5.403   1.710   2.049  0.0070  1.1308 -1.6785
 1570THY    HP339234   5.427   1.630   1.892  0.1502 -0.6448  0.1409
 1570THY    HP439235   5.437   1.537   2.043 -0.6447 -1.8658 -2.8073
 1570THY    CP339236   5.670   1.628   2.136  0.4169 -0.1947 -0.0017
 1570THY    HP539237   5.758   1.690   2.160  1.7971 -1.6756 -1.0521
 1570THY    HP639238   5.588   1.646   2.207 -1.0861 -0.1913 -1.6753
 1570THY    HP739239   5.704   1.524   2.137 -0.2942 -0.4391 -0.6518
 1570THY    CA339240   5.677   1.453   1.861  0.7254  0.2510  0.3219
 1570THY    HA339241   5.595   1.407   1.916  0.1878 -0.1214 -0.7690
 1570THY    CA439242   5.734   1.387   1.753  0.4000  0.4163  0.9117
 1570THY    HA439243   5.713   1.286   1.720 -0.2089  0.0673  2.2704
 1570THY    CA539244   5.817   1.455   1.665 -0.2615 -0.1522 -0.1724
 1570THY    CM139245   5.863   1.397   1.544 -0.0967 -1.0539  0.1149
 1570THY    HM139246   5.943   1.454   1.495 -1.1270  1.0421  0.7676
 1570THY    HM239247   5.912   1.304   1.574 -1.1916 -1.4771  0.6290
 1570THY    HM339248   5.786   1.378   1.469  0.2683 -1.7398 -0.0987
 1570THY    CA639249   5.838   1.591   1.682  0.0117  0.6812 -0.1669
 1570THY    HA639250   5.902   1.640   1.610 -0.0311  1.6054  0.4041
 1571THY      O39251   0.995   2.057   8.307 -0.0944 -0.2926 -0.0461
 1571THY     HO39252   1.081   2.030   8.344  0.1941 -0.1990 -0.6386
 1571THY    CA139253   1.018   2.116   8.186 -0.8265 -0.2780  0.4664
 1571THY    CA239254   0.915   2.100   8.093  0.1731 -0.4332  0.5485
 1571THY    CP139255   0.799   2.003   8.119  0.1641  0.3594  0.2758
 1571THY    HP139256   0.832   1.918   8.180 -0.2632 -1.1754 -1.5527
 1571THY    CP239257   0.693   2.092   8.186  0.2403 -0.1029  0.2396
 1571THY    HP239258   0.603   2.043   8.225  0.9712  0.9094  3.5196
 1571THY    HP339259   0.741   2.141   8.271  2.1423 -0.3661 -0.6258
 1571THY    HP439260   0.652   2.177   8.130 -0.8086  1.3909  3.0816
 1571THY    CP339261   0.734   1.936   8.001 -0.4068  0.1816 -0.2126
 1571THY    HP539262   0.671   1.858   8.046 -0.4217  1.9477  3.1880
 1571THY    HP639263   0.666   1.999   7.942  0.5970 -0.4611 -2.1525
 1571THY    HP739264   0.805   1.889   7.932 -1.0477  0.1102 -0.8374
 1571THY    CA339265   0.922   2.182   7.978  0.0294 -0.6253  0.1551
 1571THY    HA339266   0.843   2.171   7.904  0.1175  2.2185 -0.4582
 1571THY    CA439267   1.036   2.274   7.961 -0.3395  0.9827  0.4169
 1571THY    HA439268   1.033   2.338   7.873 -1.4457  0.4940  0.0842
 1571THY    CA539269   1.145   2.273   8.051  0.2996 -0.6245  0.3149
 1571THY    CM139270   1.263   2.355   8.037 -0.8767 -0.1032 -0.3579
 1571THY    HM139271   1.282   2.436   8.109  0.9753  0.2454 -1.1734
 1571THY    HM239272   1.352   2.290   8.042 -0.6078 -0.0728 -3.1965
 1571THY    HM339273   1.264   2.400   7.938 -0.7312 -1.2754 -0.9090
 1571THY    CA639274   1.134   2.190   8.165  0.7649  0.2849  0.0710
 1571THY    HA639275   1.215   2.189   8.237  0.5565  1.5522  0.3470
 1572THY      O39276   6.825   3.615   5.916 -0.0448  0.4271  0.6166
 1572THY     HO39277   6.777   3.699   5.906 -1.0574 -0.3287 -1.5518
 1572THY    CA139278   6.753   3.524   5.850 -0.2094  0.4264 -0.0959
 1572THY    CA239279   6.802   3.408   5.792 -0.5597  0.2890 -0.2151
 1572THY    CP139280   6.956   3.381   5.788  0.6678  0.7472  0.0596
 1572THY    HP139281   7.007   3.441   5.863  1.3527 -1.0972  1.1375
 1572THY    CP239282   6.988   3.237   5.822  0.3600 -0.7123 -0.4798
 1572THY    HP239283   6.916   3.196   5.893 -0.4091 -0.8576 -1.3248
 1572THY    HP339284   6.995   3.170   5.736  2.6206  0.4003 -1.2550
 1572THY    HP439285   7.088   3.230   5.867  2.2291  2.0428 -3.6890
 1572THY    CP339286   7.009   3.419   5.649 -0.1201 -0.3115 -0.4548
 1572THY    HP539287   6.943   3.379   5.571 -0.5808 -0.9166  0.2265
 1572THY    HP639288   7.018   3.528   5.647 -0.0774 -0.2624  1.2513
 1572THY    HP739289   7.108   3.380   5.623  0.4512  1.8525 -1.8018
 1572THY    CA339290   6.710   3.316   5.734  0.3737 -0.0318 -0.3447
 1572THY    HA339291   6.744   3.221   5.693 -1.9455 -0.5115 -1.3290
 1572THY    CA439292   6.569   3.336   5.745 -0.7933  0.5688  1.0077
 1572THY    HA439293   6.498   3.264   5.707  0.3066 -0.0827  0.1118
 1572THY    CA539294   6.528   3.459   5.793 -0.9405 -0.1206 -0.3338
 1572THY    CM139295   6.385   3.505   5.787  0.6751  0.1469 -0.6332
 1572THY    HM139296   6.308   3.449   5.841  2.1193  0.3068  1.7400
 1572THY    HM239297   6.366   3.603   5.833 -1.6974 -1.0011  1.0056
 1572THY    HM339298   6.345   3.502   5.685 -0.1020  0.1981 -0.3321
 1572THY    CA639299   6.622   3.550   5.850 -0.3262 -0.1182 -0.1190
 1572THY    HA639300   6.592   3.635   5.911  1.0926  0.3829 -0.0717
 1573THY      O39301   6.410   3.478   7.147  0.0236 -0.2888 -0.2479
 1573THY     HO39302   6.377   3.462   7.057  0.8664  0.4828 -0.7141
 1573THY    CA139303   6.531   3.525   7.121 -0.5350  0.3902  0.0624
 1573THY    CA239304   6.634   3.524   7.213 -0.5835  0.4087  0.0522
 1573THY    CP139305   6.632   3.423   7.322  0.7815 -0.3828 -0.1381
 1573THY    HP139306   6.537   3.369   7.333  2.3496 -3.1380  1.0626
 1573THY    CP239307   6.729   3.315   7.288 -0.2908 -0.4034 -0.0482
 1573THY    HP239308   6.833   3.346   7.270 -0.6913  0.6011 -0.6864
 1573THY    HP339309   6.729   3.236   7.364 -1.7107  0.0644  0.4660
 1573THY    HP439310   6.685   3.270   7.198 -0.6060  1.1876 -0.7245
 1573THY    CP339311   6.648   3.487   7.460  0.3979  0.0712  0.1252
 1573THY    HP539312   6.750   3.522   7.474 -0.0483  0.9186  1.4419
 1573THY    HP639313   6.578   3.572   7.466  0.0453 -0.0682 -1.3643
 1573THY    HP739314   6.620   3.415   7.538 -0.5513  0.0272 -0.2390
 1573THY    CA339315   6.753   3.592   7.176  0.6438  0.1636 -0.0570
 1573THY    HA339316   6.842   3.582   7.238  0.3532 -0.1664  0.3114
 1573THY    CA439317   6.767   3.658   7.056  0.2898 -0.4382 -0.1658
 1573THY    HA439318   6.861   3.707   7.034  0.3536 -1.1337 -1.6016
 1573THY    CA539319   6.669   3.655   6.960  0.1384 -0.2950 -0.0159
 1573THY    CM139320   6.687   3.728   6.831 -0.6343 -0.3740 -0.6038
 1573THY    HM139321   6.693   3.833   6.862 -0.8975 -1.1156  2.2445
 1573THY    HM239322   6.781   3.695   6.786 -0.2073  1.8827 -1.5429
 1573THY    HM339323   6.606   3.719   6.757 -1.0988 -0.2877 -0.1165
 1573THY    CA639324   6.546   3.591   6.995 -0.2122  0.2412  0.7778
 1573THY    HA639325   6.468   3.585   6.920  1.4370 -0.5055 -0.9622
 1574THY      O39326   9.622   6.885   3.793  0.6438  0.6814  0.5263
 1574THY     HO39327   9.631   6.817   3.862  3.1570 -0.7775 -1.0586
 1574THY    CA139328   9.738   6.941   3.773  0.5777  0.8875  0.7305
 1574THY    CA239329   9.802   6.930   3.646 -0.2959  0.8690 -0.2707
 1574THY    CP139330   9.735   6.879   3.529 -0.0959 -0.5665  0.1879
 1574THY    HP139331   9.646   6.819   3.555 -0.7398  0.1860 -0.2193
 1574THY    CP239332   9.690   7.007   3.448  0.1647 -1.0391 -0.1524
 1574THY    HP239333   9.637   7.080   3.510 -0.3152  0.2258 -1.9675
 1574THY    HP339334   9.779   7.054   3.404  0.0871 -0.7619 -0.0171
 1574THY    HP439335   9.631   6.981   3.359  0.7495  0.5796 -1.0498
 1574THY    CP339336   9.828   6.787   3.437  0.4963  0.1247  0.4335
 1574THY    HP539337   9.879   6.712   3.498  1.4370 -0.8358 -1.4506
 1574THY    HP639338   9.761   6.726   3.376  1.7845  1.4208 -2.4298
 1574THY    HP739339   9.906   6.833   3.375  0.6718 -0.6488  0.0747
 1574THY    CA339340   9.937   6.967   3.642  0.0432 -0.3059  0.3096
 1574THY    HA339341   9.991   6.966   3.548 -0.8491  0.8857 -0.2469
 1574THY    CA439342   9.997   7.031   3.752  0.7684  0.0389 -0.2023
 1574THY    HA439343  10.103   7.053   3.740  1.0576 -0.7364  0.7945
 1574THY    CA539344   9.934   7.041   3.872 -0.0925  0.5731 -0.0689
 1574THY    CM139345  10.009   7.096   3.991  0.4457 -0.3812 -0.2002
 1574THY    HM139346  10.085   7.171   3.968 -0.5986  0.5852 -0.6227
 1574THY    HM239347   9.962   7.150   4.074  0.0235 -1.3266  0.1933
 1574THY    HM339348  10.075   7.016   4.027 -0.0180  0.2501  2.2385
 1574THY    CA639349   9.805   6.994   3.882 -0.0323 -0.0061 -0.4904
 1574THY    HA639350   9.755   7.000   3.978  1.7935 -0.0740  0.5250
 1575THY      O39351   3.107   9.658   0.873  0.3859  0.2350  0.1664
 1575THY     HO39352   3.089   9.717   0.948  2.2311  0.0318  0.8011
 1575THY    CA139353   3.212   9.578   0.906 -0.8284  0.0709 -0.8182
 1575THY    CA239354   3.271   9.497   0.812  0.0727  0.0093 -0.3170
 1575THY    CP139355   3.226   9.522   0.668  0.2092  0.0623 -0.1177
 1575THY    HP139356   3.118   9.533   0.660  0.0431 -1.8020 -1.0698
 1575THY    CP239357   3.286   9.656   0.620 -0.2141 -0.3820  0.5643
 1575THY    HP239358   3.273   9.733   0.697  0.2608  0.9715 -0.6633
 1575THY    HP339359   3.395   9.646   0.612 -0.3557 -1.2310 -0.5575
 1575THY    HP439360   3.248   9.690   0.523  5.2996 -0.4107 -2.0349
 1575THY    CP339361   3.266   9.409   0.563  0.1692  0.6147 -0.7050
 1575THY    HP539362   3.245   9.448   0.462  0.0145  0.3865 -0.7606
 1575THY    HP639363   3.374   9.393   0.551  0.2171  1.2890 -1.2471
 1575THY    HP739364   3.213   9.315   0.581  0.1005  0.7861 -0.0037
 1575THY    CA339365   3.385   9.419   0.841  0.0853 -0.3513  0.1437
 1575THY    HA339366   3.440   9.371   0.760 -0.1886  0.3530 -0.4702
 1575THY    CA439367   3.413   9.395   0.976 -0.3471 -0.4649  0.5855
 1575THY    HA439368   3.499   9.339   1.010  0.7087  0.3588 -0.6146
 1575THY    CA539369   3.337   9.458   1.070 -0.1423 -0.1137  0.2450
 1575THY    CM139370   3.365   9.439   1.215 -0.5539 -0.3980  0.1082
 1575THY    HM139371   3.397   9.334   1.216 -0.2838 -0.4392 -2.8873
 1575THY    HM239372   3.453   9.503   1.220 -0.0802 -1.1130  1.6412
 1575THY    HM339373   3.281   9.473   1.276 -1.3558  0.9023 -1.6358
 1575THY    CA639374   3.236   9.552   1.041 -0.5058 -0.0072  0.2596
 1575THY    HA639375   3.188   9.609   1.120 -1.7961 -1.6442  0.7266
 1576THY      O39376   5.617   7.674   7.096  0.0151  0.3246 -0.2698
 1576THY     HO39377   5.585   7.692   7.186 -0.4110 -0.8009 -0.1801
 1576THY    CA139378   5.542   7.755   7.013  0.4011  0.0016  0.1235
 1576THY    CA239379   5.536   7.727   6.873 -0.2701  0.3614 -0.4494
 1576THY    CP139380   5.601   7.600   6.817 -0.0104  0.2500 -0.0950
 1576THY    HP139381   5.694   7.587   6.874 -0.2214  2.5210  0.8656
 1576THY    CP239382   5.512   7.471   6.848  0.6919  0.9978  0.2610
 1576THY    HP239383   5.560   7.373   6.838  2.4658  1.8419  0.2535
 1576THY    HP339384   5.489   7.476   6.955  2.1759  0.8512  0.6048
 1576THY    HP439385   5.421   7.473   6.786  1.6164  1.0384 -1.1321
 1576THY    CP339386   5.638   7.602   6.672 -0.1194  0.1185  0.4726
 1576THY    HP539387   5.714   7.678   6.653  0.9393 -0.9884  0.1792
 1576THY    HP639388   5.684   7.508   6.640 -1.9462 -0.5514 -0.3590
 1576THY    HP739389   5.548   7.616   6.609 -0.5036 -1.3046  0.6675
 1576THY    CA339390   5.463   7.814   6.789 -0.6408  0.1452 -0.0334
 1576THY    HA339391   5.464   7.812   6.680  0.6477  2.1857 -0.0998
 1576THY    CA439392   5.393   7.920   6.846  0.4355  0.6532 -0.0120
 1576THY    HA439393   5.339   7.986   6.779  0.5208 -0.7029 -1.4705
 1576THY    CA539394   5.391   7.944   6.984  0.0715  0.0533 -0.3044
 1576THY    CM139395   5.318   8.069   7.040 -0.1969  0.4879 -0.3110
 1576THY    HM139396   5.370   8.157   6.999 -1.3910  1.5955  0.4727
 1576THY    HM239397   5.221   8.075   6.989 -0.7575  0.2999  0.6995
 1576THY    HM339398   5.305   8.077   7.148  0.1631  2.3420 -0.3683
 1576THY    CA639399   5.465   7.855   7.067 -0.0074  0.0791  0.5761
 1576THY    HA639400   5.450   7.873   7.174 -0.8441  0.7440  0.3600
 1577THY      O39401   3.126   9.787   7.883 -0.5589  0.0600 -0.6030
 1577THY     HO39402   3.168   9.850   7.944 -1.7543  0.9556 -0.6583
 1577THY    CA139403   3.124   9.674   7.962 -0.1857  0.0223 -0.8504
 1577THY    CA239404   3.116   9.540   7.907 -0.0370  0.1072  0.0785
 1577THY    CP139405   3.128   9.514   7.756 -0.2953  0.3154  0.2224
 1577THY    HP139406   3.132   9.612   7.706  0.5507 -0.2250 -0.7994
 1577THY    CP239407   3.258   9.450   7.725 -0.0097 -0.1497  0.0476
 1577THY    HP239408   3.260   9.355   7.780  2.2294 -0.4518 -0.4659
 1577THY    HP339409   3.272   9.438   7.617  0.1515 -1.2342  0.1830
 1577THY    HP439410   3.345   9.504   7.765  2.4561 -3.3811 -0.5136
 1577THY    CP339411   3.014   9.430   7.691  0.4312 -0.4368 -0.5379
 1577THY    HP539412   3.015   9.329   7.734 -0.0069  0.1044  0.7798
 1577THY    HP639413   2.913   9.469   7.704  2.0953  4.2754  0.1890
 1577THY    HP739414   3.018   9.421   7.582  0.1149 -1.2689 -0.4882
 1577THY    CA339415   3.095   9.433   8.002  0.0955 -0.2049 -0.0679
 1577THY    HA339416   3.098   9.328   7.973  2.9120 -0.2769  0.1820
 1577THY    CA439417   3.092   9.461   8.140  0.0475 -0.1011  0.4829
 1577THY    HA439418   3.076   9.371   8.199 -2.6441 -1.9538 -2.7338
 1577THY    CA539419   3.102   9.590   8.186 -0.3706 -0.0463 -0.3947
 1577THY    CM139420   3.090   9.613   8.334 -0.5829 -0.0082  0.4417
 1577THY    HM139421   3.146   9.705   8.355 -0.2038 -0.2034  0.2968
 1577THY    HM239422   2.984   9.622   8.363 -1.0459 -1.5679 -0.6056
 1577THY    HM339423   3.139   9.537   8.397  1.3324  0.9630  0.1766
 1577THY    CA639424   3.113   9.697   8.099  0.4516  0.6853  0.4474
 1577THY    HA639425   3.113   9.796   8.143  1.3321  1.5344 -1.3275
 1578THY      O39426   7.109   1.086   7.203  0.0188  0.1451 -0.5015
 1578THY     HO39427   7.093   0.994   7.231  0.1710  0.0786 -0.6325
 1578THY    CA139428   7.018   1.096   7.095  0.2095 -0.3470 -0.0582
 1578THY    CA239429   6.916   1.187   7.093  0.4352  0.6247 -0.0125
 1578THY    CP139430   6.901   1.288   7.209  0.2501  0.4522 -0.4558
 1578THY    HP139431   6.942   1.238   7.297 -0.6751  0.1360 -0.1966
 1578THY    CP239432   6.993   1.406   7.183  0.3967  0.4485 -0.3628
 1578THY    HP239433   7.091   1.369   7.149  0.5652 -1.4143  1.8938
 1578THY    HP339434   6.944   1.474   7.112  0.4508 -1.2013 -2.0770
 1578THY    HP439435   6.999   1.461   7.278 -1.0212  0.2406 -0.1339
 1578THY    CP339436   6.759   1.335   7.231 -0.4666 -0.1403 -0.1224
 1578THY    HP539437   6.773   1.389   7.325  1.7116  0.1801 -0.5755
 1578THY    HP639438   6.726   1.417   7.167  0.9262  0.9965  0.5485
 1578THY    HP739439   6.686   1.254   7.246 -0.0248 -0.6616 -0.7223
 1578THY    CA339440   6.839   1.200   6.975 -0.5558 -0.4854  0.0527
 1578THY    HA339441   6.764   1.277   6.961  0.8871  1.0547  0.5684
 1578THY    CA439442   6.870   1.120   6.870  0.3509 -0.2323 -0.3713
 1578THY    HA439443   6.813   1.129   6.778  0.0110 -1.7816 -0.3428
 1578THY    CA539444   6.981   1.040   6.866  0.5683  0.1345 -0.2739
 1578THY    CM139445   7.011   0.973   6.741 -0.2751  0.3709  0.3051
 1578THY    HM139446   6.958   0.878   6.733 -0.6231  0.5843  0.0699
 1578THY    HM239447   6.980   1.034   6.656  1.1248 -0.4325 -0.8302
 1578THY    HM339448   7.119   0.957   6.734 -0.4265 -0.5885  0.0124
 1578THY    CA639449   7.050   1.025   6.983 -0.0173  0.2113 -0.6824
 1578THY    HA639450   7.139   0.962   6.988  0.4886  0.9039 -0.7961
 1579THY      O39451   3.956   3.318   3.573  0.7950  0.2754 -0.1808
 1579THY     HO39452   4.006   3.263   3.510 -1.0039 -1.2881 -0.3138
 1579THY    CA139453   3.956   3.231   3.673  0.5610  0.2369 -0.1041
 1579THY    CA239454   3.845   3.214   3.764  1.0282 -0.3769  0.2906
 1579THY    CP139455   3.729   3.302   3.740  0.5672  0.7106  0.2456
 1579THY    HP139456   3.769   3.399   3.708  1.9735  0.6724  1.7774
 1579THY    CP239457   3.636   3.255   3.631  0.8116  0.2469  0.1568
 1579THY    HP239458   3.549   3.320   3.613  0.5952 -0.5339 -1.8584
 1579THY    HP339459   3.685   3.240   3.534 -0.5185  0.3634 -0.5614
 1579THY    HP439460   3.592   3.160   3.661  1.2330  0.6084  2.0349
 1579THY    CP339461   3.653   3.336   3.868  0.0879  0.2663 -0.1068
 1579THY    HP539462   3.607   3.430   3.836  0.7253 -0.3641 -3.2421
 1579THY    HP639463   3.577   3.263   3.900 -0.1780  0.0064 -1.2965
 1579THY    HP739464   3.731   3.354   3.943  0.1420 -1.7723  0.3870
 1579THY    CA339465   3.857   3.118   3.863  1.2028 -0.0552  0.4580
 1579THY    HA339466   3.768   3.100   3.922  0.2777  1.2658 -0.4434
 1579THY    CA439467   3.973   3.044   3.874 -0.8358  0.3788 -0.5764
 1579THY    HA439468   3.995   2.972   3.952 -1.9015 -0.9574 -1.4674
 1579THY    CA539469   4.083   3.069   3.786  0.5589 -0.2588 -0.2621
 1579THY    CM139470   4.222   3.002   3.806 -0.2501 -0.7664 -0.1591
 1579THY    HM139471   4.223   2.902   3.762 -0.8805 -0.9816  0.3080
 1579THY    HM239472   4.295   3.057   3.747 -1.1478  0.9009  0.2197
 1579THY    HM339473   4.263   3.001   3.908 -1.7913  1.9081  0.5862
 1579THY    CA639474   4.075   3.163   3.683 -0.0720  0.2549  0.3657
 1579THY    HA639475   4.164   3.192   3.628  0.9055 -2.2204  0.5267
 1580THY      O39476   7.080   5.858   6.693 -0.0354 -0.0172  0.1441
 1580THY     HO39477   7.113   5.811   6.615 -0.0308 -0.9668  0.7012
 1580THY    CA139478   7.189   5.853   6.773  0.9069 -0.1151  0.8456
 1580THY    CA239479   7.185   5.908   6.901 -0.3564  0.0761  0.3665
 1580THY    CP139480   7.065   5.987   6.959 -0.2371 -0.0031  0.1712
 1580THY    HP139481   6.974   5.940   6.922 -0.6516  1.3996 -0.6935
 1580THY    CP239482   7.069   5.994   7.114  0.7235  0.6326  0.0361
 1580THY    HP239483   6.977   6.037   7.154  1.1679  1.7838 -0.1313
 1580THY    HP339484   7.077   5.889   7.142 -1.7100  0.0388 -1.2389
 1580THY    HP439485   7.151   6.057   7.149  0.6142  0.2507  0.9858
 1580THY    CP339486   7.060   6.135   6.904 -0.5196  0.9026 -0.2251
 1580THY    HP539487   7.148   6.197   6.928  0.2442 -0.6238  1.0916
 1580THY    HP639488   7.057   6.143   6.795  0.0226 -0.4024 -0.3521
 1580THY    HP739489   6.979   6.197   6.944 -0.0262  1.1745  0.3834
 1580THY    CA339490   7.311   5.922   6.962  0.0414  0.2838 -0.3965
 1580THY    HA339491   7.326   5.983   7.051  0.8785  0.9126 -0.9511
 1580THY    CA439492   7.426   5.855   6.910  0.0138 -0.9030  0.2165
 1580THY    HA439493   7.520   5.845   6.964  0.4687 -1.8489 -0.7272
 1580THY    CA539494   7.422   5.783   6.792 -0.0618 -0.2594  0.4461
 1580THY    CM139495   7.539   5.715   6.734  0.4363 -0.3845  0.3774
 1580THY    HM139496   7.557   5.618   6.783 -0.6596 -0.6153  0.3348
 1580THY    HM239497   7.528   5.687   6.629 -0.3408 -0.0173  0.3518
 1580THY    HM339498   7.624   5.784   6.741 -0.3605  0.4860  2.0762
 1580THY    CA639499   7.303   5.792   6.719  0.2119 -0.1364  0.1517
 1580THY    HA639500   7.303   5.751   6.619  0.0730 -0.0279  0.1056
 1581THY      O39501   4.125   7.120   2.737 -0.0397  0.4055  0.7173
 1581THY     HO39502   4.041   7.169   2.744 -0.3426  0.0379 -0.2145
 1581THY    CA139503   4.093   6.989   2.768 -0.0768 -0.3084 -0.1762
 1581THY    CA239504   4.172   6.888   2.716  0.6064  0.4209 -0.3140
 1581THY    CP139505   4.290   6.916   2.634  0.1288  0.6025 -0.5531
 1581THY    HP139506   4.298   7.019   2.598  2.6956  1.7386  2.7050
 1581THY    CP239507   4.423   6.899   2.708  0.1646  0.0184 -0.7254
 1581THY    HP239508   4.422   6.971   2.791 -0.7569 -2.4925  1.5633
 1581THY    HP339509   4.417   6.797   2.747 -0.3596  1.1211  2.3693
 1581THY    HP439510   4.506   6.914   2.638  2.5932  0.3523  2.0491
 1581THY    CP339511   4.281   6.820   2.514  0.3675  0.8490 -0.1489
 1581THY    HP539512   4.279   6.712   2.534  1.4314  0.6667 -0.9735
 1581THY    HP639513   4.210   6.853   2.437  1.0719  0.2280 -1.0928
 1581THY    HP739514   4.369   6.841   2.452  0.7875 -0.5556 -0.0803
 1581THY    CA339515   4.145   6.753   2.760  0.2795  0.2572 -0.7300
 1581THY    HA339516   4.210   6.669   2.738 -0.4991 -1.0201  1.4951
 1581THY    CA439517   4.032   6.728   2.841 -0.3818 -0.3734  0.3553
 1581THY    HA439518   4.009   6.629   2.878 -2.3276  0.3114  1.1385
 1581THY    CA539519   3.949   6.827   2.885  0.0614 -0.7584 -0.1259
 1581THY    CM139520   3.843   6.795   2.984  0.1380  0.1754  0.1983
 1581THY    HM139521   3.802   6.697   2.958  0.2219  0.2927 -0.3809
 1581THY    HM239522   3.871   6.799   3.090  0.1888  1.6463  0.1495
 1581THY    HM339523   3.753   6.855   2.997 -0.7828 -1.1874  0.2944
 1581THY    CA639524   3.979   6.961   2.843 -0.4009 -0.2912 -0.0154
 1581THY    HA639525   3.914   7.042   2.876 -1.9440 -0.7963 -1.6412
 1582THY      O39526   9.189   7.163   0.007 -0.3517 -0.0699 -0.0213
 1582THY     HO39527   9.158   7.153  -0.085  2.4485  3.6742 -1.6408
 1582THY    CA139528   9.092   7.194   0.091 -0.4640  0.7026  0.6930
 1582THY    CA239529   9.095   7.147   0.223 -0.4779 -0.2366 -0.0105
 1582THY    CP139530   9.214   7.063   0.278 -0.0679  0.5071  0.8102
 1582THY    HP139531   9.309   7.106   0.244  0.2804  1.4706  2.8488
 1582THY    CP239532   9.220   7.062   0.424  0.0495 -0.3386  0.1239
 1582THY    HP239533   9.214   7.163   0.467 -0.6001  0.3075 -1.4163
 1582THY    HP339534   9.126   7.016   0.457  0.0576  1.3383  2.7536
 1582THY    HP439535   9.304   7.005   0.466 -0.0822 -0.9513 -0.4162
 1582THY    CP339536   9.207   6.913   0.224 -0.7861 -0.0194 -0.0384
 1582THY    HP539537   9.116   6.865   0.261 -0.0073 -2.5505 -1.2166
 1582THY    HP639538   9.222   6.900   0.116  0.9068  1.2280  0.0123
 1582THY    HP739539   9.297   6.863   0.261 -0.3181  1.3355  0.7440
 1582THY    CA339540   8.981   7.185   0.306 -0.3074  0.4729 -0.6805
 1582THY    HA339541   8.957   7.145   0.405 -2.5468  0.9149 -0.9795
 1582THY    CA439542   8.875   7.250   0.246 -0.8545 -0.2802 -1.3014
 1582THY    HA439543   8.787   7.271   0.307 -2.2748 -0.4649 -3.1956
 1582THY    CA539544   8.872   7.281   0.118 -0.2791 -0.7828 -0.0428
 1582THY    CM139545   8.756   7.360   0.056  0.4243 -0.1511 -0.0378
 1582THY    HM139546   8.686   7.293   0.004 -0.0722  2.2776 -2.7763
 1582THY    HM239547   8.701   7.408   0.137  0.8014 -1.3699  0.9708
 1582THY    HM339548   8.795   7.441  -0.006 -1.3317  1.4480  0.8460
 1582THY    CA639549   8.979   7.259   0.035 -0.3442 -0.1433 -0.1272
 1582THY    HA639550   8.989   7.293  -0.067 -0.1545  0.5815  0.1232
 1583THY      O39551   2.275   0.285   3.741  0.0840  0.3621 -0.1444
 1583THY     HO39552   2.219   0.365   3.740 -1.1745 -0.4575 -1.9275
 1583THY    CA139553   2.202   0.197   3.816  0.0193 -0.3585 -0.1530
 1583THY    CA239554   2.243   0.066   3.837  0.1400 -0.5630 -0.1843
 1583THY    CP139555   2.373   0.014   3.778  0.4983  0.1385 -0.0154
 1583THY    HP139556   2.413   0.065   3.691  0.4093 -1.2808 -0.9196
 1583THY    CP239557   2.483   0.013   3.882  0.2364  0.1223  0.2665
 1583THY    HP239558   2.571  -0.015   3.822 -0.4341 -1.8349  0.1260
 1583THY    HP339559   2.484   0.119   3.911 -1.3807 -0.1245  1.3706
 1583THY    HP439560   2.464  -0.051   3.968 -0.6861  0.0092 -0.0053
 1583THY    CP339561   2.346  -0.123   3.715 -1.1309 -0.4096  0.3547
 1583THY    HP539562   2.340  -0.200   3.793 -2.0705 -0.9136 -0.1886
 1583THY    HP639563   2.261  -0.123   3.645  0.2005  1.9959 -1.3976
 1583THY    HP739564   2.432  -0.152   3.653 -0.5695 -0.0394  0.9556
 1583THY    CA339565   2.153  -0.016   3.916 -0.2940 -0.2774  1.1044
 1583THY    HA339566   2.187  -0.118   3.932 -0.4822 -0.2272  1.8268
 1583THY    CA439567   2.040   0.040   3.978 -0.6905 -0.7048 -0.4226
 1583THY    HA439568   1.975  -0.015   4.044 -1.4305  0.6110 -0.0147
 1583THY    CA539569   2.005   0.170   3.950  0.4517  1.1437 -0.7270
 1583THY    CM139570   1.888   0.228   4.018 -0.0608  0.1008 -0.4748
 1583THY    HM139571   1.802   0.176   3.974  0.4306  0.3283 -1.7349
 1583THY    HM239572   1.913   0.204   4.122  0.9687  0.8436 -0.5413
 1583THY    HM339573   1.867   0.335   4.004  0.1183  0.0814 -0.8880
 1583THY    CA639574   2.089   0.247   3.871 -0.2300 -0.1377 -1.4813
 1583THY    HA639575   2.065   0.352   3.859 -2.1103 -0.1372  1.4095
 1584THY      O39576   9.186   3.047   1.444 -0.3048  1.0607  0.3165
 1584THY     HO39577   9.237   2.964   1.451 -1.9804 -0.0358  0.1005
 1584THY    CA139578   9.258   3.117   1.358 -0.0243  0.1053  0.2343
 1584THY    CA239579   9.206   3.145   1.231 -0.4413 -0.1809  0.0575
 1584THY    CP139580   9.090   3.062   1.182  0.2461  0.1392 -0.1953
 1584THY    HP139581   9.053   2.990   1.256  0.9720  0.1711  0.2098
 1584THY    CP239582   8.989   3.150   1.107  0.0916  0.2985  0.1612
 1584THY    HP239583   8.903   3.093   1.069 -0.8484 -0.1613  2.7425
 1584THY    HP339584   8.948   3.226   1.174 -1.3837 -0.6705  0.3999
 1584THY    HP439585   9.029   3.204   1.021  1.2542 -0.7016  0.0503
 1584THY    CP339586   9.146   2.955   1.084  0.3337 -0.2702  0.4408
 1584THY    HP539587   9.075   2.872   1.090 -0.6746  0.6311  1.2325
 1584THY    HP639588   9.164   2.999   0.985  0.8013 -0.5201  0.4123
 1584THY    HP739589   9.244   2.919   1.119  2.0417 -0.4214 -3.8634
 1584THY    CA339590   9.276   3.229   1.141 -0.5257  0.1005  0.2657
 1584THY    HA339591   9.249   3.251   1.038 -1.5653 -2.7237 -0.1490
 1584THY    CA439592   9.399   3.285   1.186  0.3009 -0.3239  0.5225
 1584THY    HA439593   9.443   3.365   1.127 -1.0132  0.1380  0.1205
 1584THY    CA539594   9.446   3.266   1.314 -0.3769  0.1855 -0.5024
 1584THY    CM139595   9.556   3.349   1.363  0.6505  0.1952  1.1059
 1584THY    HM139596   9.538   3.455   1.340 -2.8472 -0.3717  0.6997
 1584THY    HM239597   9.564   3.334   1.471  3.1139  1.9344  1.2567
 1584THY    HM339598   9.653   3.322   1.319  0.2708 -1.4752  1.2408
 1584THY    CA639599   9.381   3.177   1.401 -0.4884 -0.4550 -0.2266
 1584THY    HA639600   9.423   3.163   1.500  1.1693  0.0804 -0.8259
 1585THY      O39601   8.833   7.174   8.370 -0.6540  0.2319  0.2747
 1585THY     HO39602   8.830   7.174   8.467 -0.1719  0.0949  0.2886
 1585THY    CA139603   8.752   7.274   8.333  0.2464 -0.9622  0.5789
 1585THY    CA239604   8.679   7.270   8.214  0.4726  0.4764  0.7567
 1585THY    CP139605   8.649   7.131   8.146 -0.0187 -0.6042 -0.5841
 1585THY    HP139606   8.686   7.048   8.208 -1.8032 -0.0119  1.4022
 1585THY    CP239607   8.499   7.109   8.121 -0.0447  0.5430  1.1128
 1585THY    HP239608   8.471   7.013   8.075  0.3893  0.4940  0.9503
 1585THY    HP339609   8.439   7.101   8.213 -1.0873 -1.0329  0.3398
 1585THY    HP439610   8.457   7.192   8.063 -1.3831 -0.0786  1.1465
 1585THY    CP339611   8.743   7.116   8.027 -0.1605  0.1673  0.7305
 1585THY    HP539612   8.718   7.022   7.978  0.1189  0.3839  0.1689
 1585THY    HP639613   8.701   7.186   7.954  0.4814  1.1825  1.3006
 1585THY    HP739614   8.849   7.142   8.042 -0.2192  0.1209  1.2396
 1585THY    CA339615   8.622   7.392   8.170  0.1035 -0.4276  0.6934
 1585THY    HA339616   8.558   7.395   8.082 -0.4079  0.9587  1.0763
 1585THY    CA439617   8.632   7.512   8.240 -0.5060 -0.2558  0.4243
 1585THY    HA439618   8.599   7.605   8.195 -0.7864 -0.6096 -0.1237
 1585THY    CA539619   8.723   7.512   8.351  0.4959  0.0016  0.2632
 1585THY    CM139620   8.745   7.641   8.428  0.1265  0.3595  0.5006
 1585THY    HM139621   8.715   7.619   8.531 -2.2474 -1.2864 -0.4513
 1585THY    HM239622   8.851   7.671   8.424 -0.2212  1.5123 -2.0513
 1585THY    HM339623   8.695   7.729   8.388  0.6898 -0.0510 -1.1918
 1585THY    CA639624   8.777   7.391   8.395  0.0143  0.1809  0.0403
 1585THY    HA639625   8.847   7.390   8.477  0.3827  1.4877 -0.2432
 1586THY      O39626   1.559   9.399   5.203  0.0882 -0.0899 -0.1073
 1586THY     HO39627   1.538   9.390   5.298 -0.2730 -0.0286 -0.1804
 1586THY    CA139628   1.546   9.282   5.137  0.3068  0.1981  0.0327
 1586THY    CA239629   1.583   9.277   5.003  0.0298 -0.5340 -0.0794
 1586THY    CP139630   1.636   9.391   4.918  0.2807  0.5670 -0.0980
 1586THY    HP139631   1.617   9.484   4.973 -1.5905 -0.5354  1.2572
 1586THY    CP239632   1.789   9.383   4.911 -0.2296  0.4196 -0.0317
 1586THY    HP239633   1.821   9.285   4.873 -0.7361  0.2390 -0.0079
 1586THY    HP339634   1.827   9.465   4.848  0.5325 -0.6416 -0.9923
 1586THY    HP439635   1.833   9.396   5.010  2.8755 -2.2018 -0.8772
 1586THY    CP339636   1.574   9.401   4.776  0.3175 -0.0685  0.0513
 1586THY    HP539637   1.613   9.495   4.736  0.5616  0.3628  1.2480
 1586THY    HP639638   1.601   9.320   4.708 -0.2224 -0.1149 -0.1074
 1586THY    HP739639   1.464   9.402   4.783  0.1080  0.9675 -2.5776
 1586THY    CA339640   1.589   9.150   4.937  0.4877 -0.7293  0.2773
 1586THY    HA339641   1.608   9.137   4.831  0.6719 -2.6603  0.5071
 1586THY    CA439642   1.550   9.036   5.009 -0.4484  0.7052  0.2159
 1586THY    HA439643   1.553   8.941   4.956  0.5729  0.7734  0.1336
 1586THY    CA539644   1.514   9.051   5.150  0.0945 -0.1456  0.2150
 1586THY    CM139645   1.474   8.935   5.236 -0.4864 -0.6346  0.4711
 1586THY    HM139646   1.391   8.873   5.202 -0.4287 -0.5669  0.2079
 1586THY    HM239647   1.564   8.876   5.256 -0.4839 -0.9529 -0.4678
 1586THY    HM339648   1.452   8.978   5.335  1.6462  0.4440  0.5177
 1586THY    CA639649   1.499   9.173   5.207 -0.0299 -0.1485 -0.5415
 1586THY    HA639650   1.476   9.186   5.312 -0.8260 -0.7263 -0.6326
 1587THY      O39651   3.948   7.929   7.792  0.1578 -0.0896  0.1635
 1587THY     HO39652   3.911   8.019   7.784  0.5233 -0.0969 -2.0295
 1587THY    CA139653   4.083   7.947   7.758  0.0942 -0.3632 -0.1040
 1587THY    CA239654   4.184   7.848   7.749  0.3816 -0.1460  0.0344
 1587THY    CP139655   4.155   7.703   7.781  0.4339  0.2888  0.1556
 1587THY    HP139656   4.048   7.684   7.791  0.2640 -1.0075 -3.1515
 1587THY    CP239657   4.211   7.605   7.682 -0.4672  0.5707 -0.8446
 1587THY    HP239658   4.175   7.505   7.710  0.2459  0.4314 -0.3928
 1587THY    HP339659   4.179   7.627   7.580 -2.3239 -0.2201 -0.4887
 1587THY    HP439660   4.319   7.597   7.694 -0.4662 -3.8438 -2.0408
 1587THY    CP339661   4.201   7.659   7.921  0.2388  0.7368  0.5305
 1587THY    HP539662   4.310   7.655   7.925  0.4300  2.1625 -1.4663
 1587THY    HP639663   4.151   7.728   7.991  0.2166  1.4515 -0.1737
 1587THY    HP739664   4.161   7.561   7.948  1.3826 -0.0820 -0.6524
 1587THY    CA339665   4.316   7.879   7.717  0.2606  0.3832  0.2528
 1587THY    HA339666   4.391   7.801   7.710 -2.0368 -1.9746 -0.1430
 1587THY    CA439667   4.349   8.013   7.678 -0.1314  0.6644  0.4954
 1587THY    HA439668   4.451   8.036   7.651 -0.2910  0.6841 -0.1008
 1587THY    CA539669   4.252   8.109   7.685  0.1269 -0.2812 -0.3808
 1587THY    CM139670   4.281   8.257   7.670  0.5080 -0.1520  0.3318
 1587THY    HM139671   4.338   8.262   7.577  0.9333 -0.8187  0.5525
 1587THY    HM239672   4.184   8.308   7.672  0.3352 -0.1943 -2.6629
 1587THY    HM339673   4.333   8.299   7.757  0.4230  0.2003  0.2147
 1587THY    CA639674   4.121   8.079   7.729 -0.3308 -0.4531 -0.5515
 1587THY    HA639675   4.047   8.157   7.745  0.5586 -0.2682  4.1452
 1588THY      O39676   1.015   1.174   8.307 -0.2225  0.4957  1.0219
 1588THY     HO39677   0.920   1.166   8.329  0.2432 -0.2358  2.9041
 1588THY    CA139678   1.007   1.279   8.223 -0.3817  0.1690 -0.3796
 1588THY    CA239679   1.088   1.299   8.110  0.2130  0.0416 -0.4366
 1588THY    CP139680   1.185   1.192   8.056  0.2030 -0.0380 -0.3175
 1588THY    HP139681   1.181   1.106   8.124 -0.5093 -0.5480 -0.9832
 1588THY    CP239682   1.149   1.137   7.919 -0.1891 -0.0661  0.0820
 1588THY    HP239683   1.040   1.146   7.911  0.0725  3.6015 -1.1741
 1588THY    HP339684   1.188   1.199   7.837 -1.2851 -0.7530 -0.9901
 1588THY    HP439685   1.192   1.036   7.911  1.8456  0.6253  1.3728
 1588THY    CP339686   1.332   1.235   8.057 -0.4130  0.0334 -0.3384
 1588THY    HP539687   1.349   1.320   7.991 -2.1156 -0.1160 -1.0131
 1588THY    HP639688   1.369   1.246   8.160  0.0521 -0.9459 -0.3831
 1588THY    HP739689   1.401   1.158   8.020 -0.1655 -0.4903  1.1076
 1588THY    CA339690   1.075   1.428   8.054 -0.3443 -0.4722  0.5042
 1588THY    HA339691   1.141   1.454   7.972 -0.8288  0.5159  0.4067
 1588THY    CA439692   0.979   1.520   8.105 -0.0522 -0.0672  0.4220
 1588THY    HA439693   0.978   1.615   8.051  0.7976 -0.8041 -0.9335
 1588THY    CA539694   0.899   1.493   8.212 -0.3633  0.4181 -0.2768
 1588THY    CM139695   0.822   1.601   8.274 -0.1526  0.3914  0.0720
 1588THY    HM139696   0.774   1.673   8.206 -1.6022 -1.4227 -0.9003
 1588THY    HM239697   0.742   1.567   8.341  1.2124  0.8410  2.0223
 1588THY    HM339698   0.882   1.655   8.348  0.1370  0.9805 -0.5838
 1588THY    CA639699   0.920   1.371   8.275  0.7552 -0.2709  0.4467
 1588THY    HA639700   0.869   1.357   8.371  2.4787 -1.9076  1.1880
 1589THY      O39701   6.958   0.774   6.059  0.4761 -0.2681 -0.3469
 1589THY     HO39702   6.937   0.721   5.980  1.3096  0.8169 -1.3344
 1589THY    CA139703   6.874   0.725   6.154 -0.3984 -0.0607 -0.5267
 1589THY    CA239704   6.834   0.804   6.257  0.2851  0.2044 -0.0170
 1589THY    CP139705   6.884   0.949   6.273 -0.1402 -0.1803 -0.4747
 1589THY    HP139706   6.935   0.991   6.185  0.8039 -1.3621 -0.5128
 1589THY    CP239707   6.782   1.056   6.319 -0.6205  0.3676 -0.7681
 1589THY    HP239708   6.732   1.031   6.413  2.0474 -1.4834  0.3029
 1589THY    HP339709   6.830   1.154   6.327  1.0897 -0.5063  0.2950
 1589THY    HP439710   6.708   1.061   6.238 -0.9140  0.3710 -0.5013
 1589THY    CP339711   6.989   0.943   6.390 -0.1027 -0.2623 -0.0393
 1589THY    HP539712   6.937   0.922   6.484  1.0802  0.3032  0.7740
 1589THY    HP639713   7.062   0.863   6.372  0.7114 -0.5734  3.7942
 1589THY    HP739714   7.051   1.033   6.404  0.1559 -0.0893 -1.9371
 1589THY    CA339715   6.750   0.752   6.355 -0.1598  0.1293  0.5772
 1589THY    HA339716   6.715   0.788   6.451  1.1613 -0.6935  1.4068
 1589THY    CA439717   6.718   0.614   6.351  0.3839 -0.0924  0.3119
 1589THY    HA439718   6.669   0.572   6.438  0.0528  1.8875  1.1320
 1589THY    CA539719   6.751   0.535   6.241 -0.4430  0.1492  1.0298
 1589THY    CM139720   6.728   0.384   6.229  0.4063  0.1523 -0.5103
 1589THY    HM139721   6.642   0.358   6.292  2.6916 -2.9464  1.6315
 1589THY    HM239722   6.713   0.354   6.125  0.6560  1.0065 -0.8016
 1589THY    HM339723   6.811   0.327   6.272 -0.4990 -1.6811 -1.0993
 1589THY    CA639724   6.830   0.596   6.142 -0.6342 -0.1666 -0.0608
 1589THY    HA639725   6.858   0.539   6.053 -2.2679 -1.3815  0.1757
 1590THY      O39726   5.027   3.257   3.384  0.5953 -0.4922  0.0022
 1590THY     HO39727   4.992   3.258   3.293  0.1561 -2.1805  0.1179
 1590THY    CA139728   5.040   3.386   3.423  0.2083 -0.2660 -0.2017
 1590THY    CA239729   5.165   3.443   3.463 -0.1647  0.7581  0.3339
 1590THY    CP139730   5.295   3.357   3.457  0.0969  0.2531 -0.2016
 1590THY    HP139731   5.272   3.259   3.415 -0.8324 -0.4784  1.8581
 1590THY    CP239732   5.399   3.413   3.362  0.0155 -0.1964  0.0088
 1590THY    HP239733   5.409   3.518   3.392 -0.6058  0.5484 -2.1731
 1590THY    HP339734   5.494   3.360   3.347 -0.1050 -0.9373  1.6549
 1590THY    HP439735   5.358   3.417   3.261  1.5777 -0.9700 -0.6975
 1590THY    CP339736   5.353   3.326   3.599  0.6033 -1.0242 -0.1799
 1590THY    HP539737   5.450   3.275   3.597  0.5778 -1.0629 -1.0628
 1590THY    HP639738   5.362   3.412   3.667 -0.8187 -1.6249  0.8111
 1590THY    HP739739   5.289   3.257   3.655  1.0681  0.0041  1.7155
 1590THY    CA339740   5.168   3.574   3.509  0.5696 -0.4705 -0.0157
 1590THY    HA339741   5.255   3.632   3.539  0.6367 -0.8505  0.5302
 1590THY    CA439742   5.047   3.640   3.535 -0.4208  0.1315  0.2186
 1590THY    HA439743   5.050   3.738   3.580  1.8702 -0.4781  1.5448
 1590THY    CA539744   4.921   3.576   3.507 -0.4043  0.2181  0.2730
 1590THY    CM139745   4.789   3.644   3.528 -0.2685 -0.3650  0.0381
 1590THY    HM139746   4.707   3.585   3.570  0.9530 -1.4436  0.9722
 1590THY    HM239747   4.801   3.729   3.596 -0.1994  2.8957 -3.6761
 1590THY    HM339748   4.753   3.674   3.429 -0.6712  0.7057  0.4862
 1590THY    CA639749   4.919   3.455   3.450 -0.5795  0.2288  0.0592
 1590THY    HA639750   4.828   3.402   3.422  0.2268 -0.8664 -0.5281
 1591THY      O39751   2.194   5.769   9.190 -1.2217 -0.5776 -0.0102
 1591THY     HO39752   2.229   5.760   9.099  0.8729 -2.3473  0.8604
 1591THY    CA139753   2.063   5.806   9.175 -0.3622 -0.0689  0.4674
 1591THY    CA239754   1.960   5.763   9.262 -0.3556  0.1739  0.5309
 1591THY    CP139755   1.995   5.662   9.385  0.3095 -0.0438  0.2480
 1591THY    HP139756   2.101   5.634   9.396  0.7338  1.7153  1.0067
 1591THY    CP239757   1.940   5.702   9.526  0.3899  0.1250 -0.8341
 1591THY    HP239758   1.831   5.698   9.531  0.3491  0.0372 -1.6766
 1591THY    HP339759   1.976   5.635   9.605 -2.7978  0.5355  1.1312
 1591THY    HP439760   1.962   5.808   9.543 -1.0115  0.3984 -0.6564
 1591THY    CP339761   1.945   5.522   9.347  0.9358 -0.1162 -0.1945
 1591THY    HP539762   1.967   5.456   9.431 -3.2423 -1.3068  0.1835
 1591THY    HP639763   1.836   5.525   9.337  1.1181  0.2530 -2.9822
 1591THY    HP739764   1.984   5.504   9.246 -1.5224  0.9343 -1.3987
 1591THY    CA339765   1.830   5.806   9.253  0.5709 -0.5817  0.3216
 1591THY    HA339766   1.754   5.769   9.321 -0.5384 -0.1409 -0.6252
 1591THY    CA439767   1.792   5.880   9.136 -0.7611  0.3160 -0.4917
 1591THY    HA439768   1.688   5.911   9.128 -1.3175 -0.9355  1.2807
 1591THY    CA539769   1.888   5.925   9.048  0.0605 -0.5574 -0.4137
 1591THY    CM139770   1.835   6.022   8.943  0.0443  0.6494 -0.3253
 1591THY    HM139771   1.812   6.125   8.974 -0.9532  0.2618  0.2641
 1591THY    HM239772   1.904   6.019   8.858  0.8271  0.2111  0.3166
 1591THY    HM339773   1.743   5.984   8.899  0.3072 -1.5798  0.9144
 1591THY    CA639774   2.023   5.885   9.065  0.2660  0.7276  0.1728
 1591THY    HA639775   2.103   5.929   9.006  0.6917  1.7464  1.4570
 1592THY      O39776   9.169   5.055   9.200  0.2044 -0.8570 -0.1433
 1592THY     HO39777   9.125   4.991   9.258 -2.0769  1.9083  1.4290
 1592THY    CA139778   9.247   4.977   9.116  0.7820 -0.8517  0.7207
 1592THY    CA239779   9.314   5.023   9.005  0.4334 -0.5063 -0.0967
 1592THY    CP139780   9.312   5.174   8.971 -0.1030 -0.0390  0.2455
 1592THY    HP139781   9.215   5.217   8.995  0.6935  2.2677 -0.4513
 1592THY    CP239782   9.414   5.244   9.058 -0.4333 -0.3982 -0.1684
 1592THY    HP239783   9.416   5.352   9.042 -0.0359 -0.3781  0.0250
 1592THY    HP339784   9.405   5.216   9.164 -1.7692 -0.7198 -0.3519
 1592THY    HP439785   9.515   5.218   9.026 -0.4043 -0.0200 -0.3832
 1592THY    CP339786   9.341   5.199   8.822 -0.1097 -0.4368 -0.3753
 1592THY    HP539787   9.441   5.167   8.790 -0.3421  0.6272 -2.3025
 1592THY    HP639788   9.271   5.145   8.758 -0.8462  0.6243 -0.4921
 1592THY    HP739789   9.339   5.307   8.803 -1.0889 -0.0932  1.5005
 1592THY    CA339790   9.395   4.931   8.929  0.0684  0.7254 -0.2832
 1592THY    HA339791   9.452   4.961   8.841  1.0565  0.6735  0.3220
 1592THY    CA439792   9.402   4.794   8.970  0.3372 -0.3657 -0.3192
 1592THY    HA439793   9.468   4.724   8.921  1.3154 -0.3781  0.9718
 1592THY    CA539794   9.331   4.749   9.082  0.0951 -0.7547 -0.4256
 1592THY    CM139795   9.344   4.611   9.116 -0.4475 -0.4989  0.4393
 1592THY    HM139796   9.438   4.589   9.168  0.2617 -1.1936 -1.0568
 1592THY    HM239797   9.260   4.573   9.176 -0.8555  0.4906  0.5050
 1592THY    HM339798   9.337   4.556   9.021 -1.0314 -0.2139  0.3153
 1592THY    CA639799   9.252   4.843   9.155  0.1541  0.5265 -0.1717
 1592THY    HA639800   9.210   4.799   9.244  0.1560 -1.0349 -0.9036
 1593THY      O39801   8.650   0.752   8.420  0.2111 -0.9559  0.3320
 1593THY     HO39802   8.669   0.822   8.354  1.9721 -1.0826  0.6626
 1593THY    CA139803   8.519   0.719   8.396  1.0790  0.8296  0.2353
 1593THY    CA239804   8.419   0.717   8.489  0.4385 -0.0679 -1.3399
 1593THY    CP139805   8.453   0.732   8.634 -0.6402  0.6274  0.2104
 1593THY    HP139806   8.554   0.770   8.654 -0.0740 -0.8100  0.1958
 1593THY    CP239807   8.361   0.829   8.708  0.0056 -0.1147  0.1367
 1593THY    HP239808   8.282   0.768   8.754  0.2107 -0.1811  0.4015
 1593THY    HP339809   8.411   0.878   8.792  0.9831  0.2891 -0.6639
 1593THY    HP439810   8.316   0.913   8.653  2.6050  0.8863 -0.6159
 1593THY    CP339811   8.458   0.597   8.703 -0.4276  0.8655  0.3593
 1593THY    HP539812   8.378   0.542   8.651  1.0946 -0.5289 -0.6063
 1593THY    HP639813   8.550   0.544   8.674  0.1279  0.7597  2.2096
 1593THY    HP739814   8.455   0.597   8.812  0.9184  0.1489  0.4240
 1593THY    CA339815   8.282   0.703   8.448  0.1713  0.6311 -0.3567
 1593THY    HA339816   8.201   0.703   8.520  1.1040  3.4991  0.8317
 1593THY    CA439817   8.256   0.681   8.314 -0.1795  0.5015  0.4134
 1593THY    HA439818   8.152   0.684   8.284 -0.0439 -0.3295 -0.1729
 1593THY    CA539819   8.361   0.682   8.219  0.1528 -0.1428 -0.2151
 1593THY    CM139820   8.339   0.655   8.076  0.1373 -0.4015  0.5566
 1593THY    HM139821   8.240   0.609   8.061 -1.3468  2.3177  1.3250
 1593THY    HM239822   8.327   0.749   8.020 -1.8391 -0.7343  0.3595
 1593THY    HM339823   8.423   0.600   8.032  1.1395  0.2912  1.5677
 1593THY    CA639824   8.488   0.693   8.265 -0.4444 -0.3477  0.2130
 1593THY    HA639825   8.569   0.684   8.193  1.5189  1.8034  1.9676
 1594THY      O39826   1.715   5.303   3.352 -0.0449  0.0726  0.8247
 1594THY     HO39827   1.628   5.270   3.324  0.5444  1.4485 -3.2634
 1594THY    CA139828   1.747   5.235   3.467 -0.7008 -0.0419 -0.0581
 1594THY    CA239829   1.866   5.162   3.475  0.1724 -0.1690  1.3247
 1594THY    CP139830   1.958   5.162   3.357 -0.1284 -0.0267 -1.2352
 1594THY    HP139831   1.959   5.255   3.300  1.8930 -0.6017 -2.2655
 1594THY    CP239832   2.110   5.155   3.401 -0.0229 -0.2100  0.0244
 1594THY    HP239833   2.131   5.049   3.416 -1.9719 -0.2033  4.3605
 1594THY    HP339834   2.168   5.183   3.312 -0.7286  2.5633  0.3245
 1594THY    HP439835   2.138   5.226   3.479 -1.9017 -1.2124  1.6800
 1594THY    CP339836   1.932   5.038   3.257  0.2529 -0.4028  0.0413
 1594THY    HP539837   1.930   4.938   3.303 -1.3267 -1.2973 -1.8386
 1594THY    HP639838   1.832   5.054   3.215  0.0920  0.6242  0.7707
 1594THY    HP739839   2.005   5.040   3.176  0.3203 -0.0298  0.1116
 1594THY    CA339840   1.875   5.072   3.588 -0.0171 -0.5357 -0.1799
 1594THY    HA339841   1.955   4.999   3.582  0.6408 -0.0630  1.9199
 1594THY    CA439842   1.790   5.078   3.699  0.2487  0.3557 -0.5731
 1594THY    HA439843   1.798   5.016   3.789 -0.6643  0.9310 -0.0820
 1594THY    CA539844   1.688   5.176   3.694 -0.1554  0.0669 -0.0571
 1594THY    CM139845   1.591   5.190   3.808  0.5577  0.1188  0.0423
 1594THY    HM139846   1.586   5.297   3.827  1.5039 -0.0192  1.1324
 1594THY    HM239847   1.493   5.141   3.795  1.1847 -1.5676  1.3766
 1594THY    HM339848   1.617   5.131   3.897 -0.0691  0.6500  0.5870
 1594THY    CA639849   1.669   5.245   3.579  0.5804 -0.7790 -0.0136
 1594THY    HA639850   1.579   5.307   3.579  1.3365  0.3754 -1.1310
 1595THY      O39851   9.037   5.218   7.144  0.3176 -0.2610  0.1221
 1595THY     HO39852   8.982   5.298   7.137 -0.2661 -0.6378  0.3283
 1595THY    CA139853   8.991   5.142   7.040 -0.0901 -0.0927 -1.0185
 1595THY    CA239854   9.059   5.020   7.002  0.1867 -0.2484  0.8624
 1595THY    CP139855   9.179   4.964   7.076  0.3913 -0.1744 -0.0325
 1595THY    HP139856   9.147   4.981   7.179  0.8834  0.7654 -0.0229
 1595THY    CP239857   9.189   4.812   7.053 -0.1050  0.5662  0.0368
 1595THY    HP239858   9.197   4.783   6.948 -2.2658 -0.7163  0.1749
 1595THY    HP339859   9.271   4.788   7.122 -1.9973  1.3603  2.7569
 1595THY    HP439860   9.102   4.751   7.079  1.2669 -1.5899 -0.1895
 1595THY    CP339861   9.307   5.034   7.039 -0.7339 -0.5872 -0.1435
 1595THY    HP539862   9.308   5.136   7.079  1.1602 -0.2023 -1.0231
 1595THY    HP639863   9.390   4.979   7.085 -0.7327 -0.5627 -0.1165
 1595THY    HP739864   9.328   5.034   6.931  0.2287  0.2554  0.0295
 1595THY    CA339865   9.006   4.971   6.882 -0.5498  0.4944  0.0676
 1595THY    HA339866   9.054   4.886   6.834  0.1868  1.4530 -0.9800
 1595THY    CA439867   8.906   5.031   6.811 -0.6116 -0.2148  0.8096
 1595THY    HA439868   8.871   4.990   6.716 -2.6824  3.9558 -0.4835
 1595THY    CA539869   8.834   5.142   6.859 -0.7293  0.2368  0.0223
 1595THY    CM139870   8.719   5.209   6.787 -0.2906 -0.0906  0.2940
 1595THY    HM139871   8.634   5.238   6.849 -0.1106  0.6393  0.2109
 1595THY    HM239872   8.764   5.300   6.746 -0.7397 -0.4444 -1.0614
 1595THY    HM339873   8.680   5.145   6.706 -0.3145 -0.3347  0.4982
 1595THY    CA639874   8.884   5.205   6.978 -0.6014 -0.3533 -1.3455
 1595THY    HA639875   8.832   5.292   7.017 -1.1316 -1.9750  1.8792
 1596THY      O39876   0.739   6.144   2.024  0.3522 -0.8065  0.1798
 1596THY     HO39877   0.664   6.174   1.969 -0.9523 -1.4790  1.5133
 1596THY    CA139878   0.796   6.042   1.961  0.2513  0.2411 -0.5664
 1596THY    CA239879   0.921   6.001   2.001  0.2031  0.1402 -0.4340
 1596THY    CP139880   1.008   6.081   2.106  0.6873  0.1659 -0.4078
 1596THY    HP139881   0.945   6.153   2.159 -0.0074 -0.8992  0.2372
 1596THY    CP239882   1.080   6.001   2.216  1.1001  0.4139  0.2002
 1596THY    HP239883   1.030   5.911   2.254 -0.4612  0.9099 -0.6138
 1596THY    HP339884   1.180   5.964   2.191  1.0789  0.5939 -0.1642
 1596THY    HP439885   1.097   6.065   2.304 -1.0006  0.9438  0.2730
 1596THY    CP339886   1.118   6.167   2.035 -0.0245  0.9644  0.0785
 1596THY    HP539887   1.171   6.232   2.106  0.0595  2.6068 -1.4083
 1596THY    HP639888   1.190   6.104   1.981  0.0019  1.9853 -1.1235
 1596THY    HP739889   1.063   6.233   1.966 -0.8629  0.1116 -0.0789
 1596THY    CA339890   0.962   5.865   1.968 -0.3004 -0.1058  0.0405
 1596THY    HA339891   1.044   5.822   2.025 -0.3544 -0.5885 -0.2462
 1596THY    CA439892   0.883   5.791   1.884  0.1352 -0.2013  0.7395
 1596THY    HA439893   0.913   5.690   1.855 -1.2308 -0.6449  0.8117
 1596THY    CA539894   0.766   5.840   1.838  1.2042 -0.2984  0.0658
 1596THY    CM139895   0.678   5.757   1.740 -0.2773  0.5087 -0.0579
 1596THY    HM139896   0.638   5.670   1.794  1.5304 -0.2975  0.0494
 1596THY    HM239897   0.591   5.819   1.715  0.1605  1.6396  1.0911
 1596THY    HM339898   0.732   5.710   1.657  1.1013  1.5729  0.1912
 1596THY    CA639899   0.713   5.962   1.884  0.2753 -0.3569 -0.1925
 1596THY    HA639900   0.616   6.000   1.854  1.3483  3.2550  0.4427
 1597THY      O39901   4.720   1.793   5.866  0.2393 -0.2940  0.0551
 1597THY     HO39902   4.746   1.812   5.958 -0.2758  2.1797 -0.2651
 1597THY    CA139903   4.715   1.662   5.860 -0.7076  0.1782 -0.3252
 1597THY    CA239904   4.699   1.592   5.744  0.3433  0.0012 -0.2270
 1597THY    CP139905   4.671   1.666   5.612 -0.1796  0.3150 -0.2377
 1597THY    HP139906   4.604   1.751   5.629  0.0257  0.3437  0.4929
 1597THY    CP239907   4.800   1.723   5.553  0.0946  0.0370 -0.2169
 1597THY    HP239908   4.873   1.642   5.544  0.3392  0.3597 -1.3330
 1597THY    HP339909   4.786   1.756   5.450 -2.8020  0.2659  0.1805
 1597THY    HP439910   4.852   1.793   5.620  1.4140  0.7254 -1.8757
 1597THY    CP339911   4.604   1.580   5.501  0.0414 -0.2044  0.1835
 1597THY    HP539912   4.676   1.509   5.458  0.3101  0.2219 -0.0690
 1597THY    HP639913   4.525   1.516   5.541  0.0504 -0.2106  0.1916
 1597THY    HP739914   4.563   1.641   5.420 -1.8157  0.3533  1.4941
 1597THY    CA339915   4.703   1.452   5.740  0.2339  0.6909  0.7284
 1597THY    HA339916   4.684   1.402   5.645  1.8351  2.3576 -0.5277
 1597THY    CA439917   4.731   1.384   5.861 -0.5610  0.0725 -0.1675
 1597THY    HA439918   4.739   1.276   5.866 -0.8362  0.0377 -0.4456
 1597THY    CA539919   4.744   1.452   5.983  0.0298  0.6030 -0.0466
 1597THY    CM139920   4.757   1.372   6.111  0.1338  0.4351  0.0173
 1597THY    HM139921   4.746   1.439   6.197 -3.2859 -1.4805  1.2616
 1597THY    HM239922   4.680   1.294   6.111 -0.6178  1.1502  1.3533
 1597THY    HM339923   4.857   1.327   6.106  0.1882  0.7162 -2.2194
 1597THY    CA639924   4.735   1.587   5.980 -0.1146 -0.1883  0.9401
 1597THY    HA639925   4.749   1.646   6.070  1.2259 -1.0508  1.3349
 1598THY      O39926   1.465   3.088   6.492 -0.1024 -0.3666  1.0430
 1598THY     HO39927   1.493   3.014   6.549 -2.7972 -1.1428  1.4918
 1598THY    CA139928   1.336   3.105   6.514 -0.0231 -0.8098  0.0223
 1598THY    CA239929   1.265   3.202   6.445  0.2553  0.2349 -0.3465
 1598THY    CP139930   1.327   3.283   6.334  0.2070 -0.0425 -0.4693
 1598THY    HP139931   1.433   3.255   6.323  0.0502 -1.9959  2.1821
 1598THY    CP239932   1.256   3.248   6.194  0.3295 -0.7286  0.2574
 1598THY    HP239933   1.171   3.316   6.179  1.7709  0.9527 -0.6802
 1598THY    HP339934   1.338   3.261   6.122  0.6954  0.1305  0.8085
 1598THY    HP439935   1.215   3.147   6.183 -0.7538 -0.2731 -0.0471
 1598THY    CP339936   1.317   3.429   6.372  0.2429  0.8929  0.1545
 1598THY    HP539937   1.416   3.471   6.353  0.7573 -0.6549 -0.7582
 1598THY    HP639938   1.242   3.488   6.318 -0.3140  0.6632  0.6710
 1598THY    HP739939   1.301   3.439   6.480 -0.7390 -1.4781  0.2937
 1598THY    CA339940   1.130   3.230   6.483 -0.7383 -0.2273  0.0869
 1598THY    HA339941   1.064   3.299   6.431 -0.0976  1.0330  0.9042
 1598THY    CA439942   1.072   3.158   6.588  0.3924  0.3205  0.4565
 1598THY    HA439943   0.977   3.179   6.635  1.1351  3.7770  0.6641
 1598THY    CA539944   1.143   3.058   6.657 -0.5383 -0.8717  0.8150
 1598THY    CM139945   1.096   2.980   6.778  0.9932 -0.4083  0.3218
 1598THY    HM139946   1.152   3.004   6.869 -0.5584  1.1535  0.9173
 1598THY    HM239947   0.989   2.999   6.792  1.2031  0.2629  1.1041
 1598THY    HM339948   1.107   2.872   6.760  1.5567  0.0324 -2.3769
 1598THY    CA639949   1.276   3.031   6.616  0.1878  0.0820 -0.5944
 1598THY    HA639950   1.337   2.964   6.677  1.0891  2.7032  1.5967
 1599THY      O39951   2.878   6.648   8.418 -0.8666  0.0409  0.2610
 1599THY     HO39952   2.909   6.734   8.452  0.2252  0.1789 -0.9898
 1599THY    CA139953   2.934   6.557   8.501  1.2837 -0.3864 -0.0832
 1599THY    CA239954   2.917   6.423   8.481  0.2670  0.2390  0.3160
 1599THY    CP139955   2.825   6.359   8.378  0.3975 -0.0615  0.0042
 1599THY    HP139956   2.745   6.430   8.352 -1.4881 -1.4734  1.6603
 1599THY    CP239957   2.903   6.321   8.250  0.9394  0.4164 -0.4720
 1599THY    HP239958   2.832   6.288   8.173 -0.2278  1.1353  0.2750
 1599THY    HP339959   2.945   6.409   8.200  1.2023 -0.4626 -1.8776
 1599THY    HP439960   2.973   6.237   8.258 -2.2083 -2.5587 -1.5811
 1599THY    CP339961   2.752   6.246   8.422 -0.4131 -0.2922  0.3278
 1599THY    HP539962   2.720   6.281   8.521  2.9356 -0.5445  1.6229
 1599THY    HP639963   2.664   6.223   8.361 -0.8454  0.1066  0.7899
 1599THY    HP739964   2.812   6.156   8.439  2.1818  0.7841 -2.3259
 1599THY    CA339965   2.985   6.337   8.574  0.0094  0.3465  0.1654
 1599THY    HA339966   2.961   6.231   8.581 -1.4251  0.3835 -2.8083
 1599THY    CA439967   3.076   6.386   8.672 -0.2786 -0.3061 -0.5851
 1599THY    HA439968   3.134   6.324   8.740  0.7595  2.8615  1.6328
 1599THY    CA539969   3.080   6.523   8.689  1.4608 -0.3086  0.5269
 1599THY    CM139970   3.175   6.574   8.793 -0.4488  0.1838  0.3411
 1599THY    HM139971   3.126   6.667   8.824 -1.2877 -0.0460 -0.2390
 1599THY    HM239972   3.166   6.518   8.886  1.3337 -1.7881 -0.5909
 1599THY    HM339973   3.280   6.566   8.761 -0.1053 -0.2367  1.5473
 1599THY    CA639974   3.008   6.608   8.606  0.0701 -0.3422  0.0722
 1599THY    HA639975   3.014   6.712   8.636 -2.0614 -0.3329  0.6584
 1600THY      O39976   9.204   8.666   6.324  0.1787 -0.4423  0.3804
 1600THY     HO39977   9.141   8.740   6.319  1.7499  0.8557 -2.1404
 1600THY    CA139978   9.323   8.723   6.358 -0.7402  0.5863 -0.3526
 1600THY    CA239979   9.433   8.640   6.382 -0.3960  0.3749 -0.2686
 1600THY    CP139980   9.423   8.485   6.375 -0.5328 -0.6189 -0.0317
 1600THY    HP139981   9.320   8.450   6.363 -0.6695 -0.1135 -0.3358
 1600THY    CP239982   9.510   8.430   6.260  0.5058 -0.3393  0.0056
 1600THY    HP239983   9.514   8.322   6.242  2.4461 -0.0320 -1.8599
 1600THY    HP339984   9.490   8.475   6.161  1.8347  0.1590 -0.0528
 1600THY    HP439985   9.616   8.450   6.279  0.5187 -1.6737  1.5264
 1600THY    CP339986   9.473   8.416   6.503 -1.1886  0.2282 -0.3990
 1600THY    HP539987   9.429   8.316   6.497  1.2652 -0.8179 -2.7643
 1600THY    HP639988   9.581   8.401   6.496 -0.7690  1.2553  2.4392
 1600THY    HP739989   9.448   8.468   6.597  0.9323  0.6025  0.0069
 1600THY    CA339990   9.557   8.696   6.419  0.3956 -0.0308 -0.4021
 1600THY    HA339991   9.643   8.633   6.438 -1.7553 -3.5508 -1.5226
 1600THY    CA439992   9.564   8.839   6.428 -0.3449  0.2999 -0.2752
 1600THY    HA439993   9.652   8.890   6.467  0.0850  0.9175 -1.9894
 1600THY    CA539994   9.455   8.918   6.400  0.0498 -0.5410  0.9815
 1600THY    CM139995   9.473   9.068   6.418 -0.1991 -0.0601 -0.6188
 1600THY    HM139996   9.500   9.093   6.521 -2.3583  0.9180 -0.2134
 1600THY    HM239997   9.553   9.107   6.355  0.7893  1.2649  1.3459
 1600THY    HM339998   9.385   9.127   6.387  1.0379  1.8670 -0.6497
 1600THY    CA639999   9.333   8.864   6.365  0.3280  0.6766  0.1608
 1600THY    HA640000   9.251   8.928   6.336 -0.0881 -0.0448 -0.3000
 1601THY      O40001   4.122   4.079   7.968  0.4310  0.3537  0.3594
 1601THY     HO40002   4.060   4.099   8.041  1.7399  1.3910  1.2307
 1601THY    CA140003   4.247   4.058   8.024 -0.0749  0.1328 -0.0830
 1601THY    CA240004   4.362   4.032   7.940 -0.2044  0.0149 -0.0095
 1601THY    CP140005   4.353   4.037   7.784  0.4223  0.1457  0.3724
 1601THY    HP140006   4.261   4.090   7.758 -0.1297 -1.3070 -0.7768
 1601THY    CP240007   4.470   4.120   7.712  0.1130 -0.3351 -0.1432
 1601THY    HP240008   4.453   4.145   7.607 -1.9286 -0.5307  0.1017
 1601THY    HP340009   4.502   4.203   7.776  3.0506 -1.5360  0.1615
 1601THY    HP440010   4.564   4.063   7.716  0.8288  0.8770  2.5704
 1601THY    CP340011   4.334   3.899   7.716 -0.0650  0.2003 -0.0496
 1601THY    HP540012   4.307   3.914   7.611  0.1907  1.2280  0.0219
 1601THY    HP640013   4.427   3.841   7.721 -0.7173 -0.7367  2.6186
 1601THY    HP740014   4.252   3.844   7.763 -1.5222  0.5449 -2.0608
 1601THY    CA340015   4.483   4.014   8.007 -0.6800  0.2871  0.1192
 1601THY    HA340016   4.572   4.019   7.945 -0.6014  1.0170  0.2826
 1601THY    CA440017   4.489   4.020   8.147 -0.0845  0.5310  0.2718
 1601THY    HA440018   4.580   3.991   8.198 -1.9988 -0.9971  3.0946
 1601THY    CA540019   4.374   4.038   8.223 -0.0995 -0.0404 -0.9751
 1601THY    CM140020   4.381   4.025   8.372 -1.2842 -1.1387  0.6813
 1601THY    HM140021   4.394   4.120   8.425 -1.2076 -1.5606  1.4292
 1601THY    HM240022   4.306   3.962   8.421 -1.6624 -1.2864 -0.0795
 1601THY    HM340023   4.477   3.981   8.401 -1.6206 -2.7767 -0.5536
 1601THY    CA640024   4.256   4.063   8.163 -0.6288 -0.0760 -0.2699
 1601THY    HA640025   4.170   4.082   8.227 -0.5443 -0.0400 -0.1695
 1602THY      O40026   9.275   8.252   0.673  0.6742 -0.1225 -0.9952
 1602THY     HO40027   9.254   8.195   0.597 -1.5850 -2.1592  0.9932
 1602THY    CA140028   9.410   8.253   0.697 -0.4157  0.0223 -0.5297
 1602THY    CA240029   9.462   8.283   0.825 -0.4049 -0.0742  0.3285
 1602THY    CP140030   9.375   8.308   0.949 -0.0289 -1.2173  0.2003
 1602THY    HP140031   9.273   8.273   0.926 -0.6602 -0.2723  1.4274
 1602THY    CP240032   9.408   8.215   1.066  0.1611 -0.2669  0.8953
 1602THY    HP240033   9.416   8.113   1.027 -0.7530 -0.6315  1.6131
 1602THY    HP340034   9.506   8.239   1.109  0.3247 -0.0315  0.3908
 1602THY    HP440035   9.336   8.226   1.148  0.8223  0.6102  1.3774
 1602THY    CP340036   9.357   8.455   0.988  0.1875  1.2151  0.1761
 1602THY    HP540037   9.268   8.454   1.052  0.3026 -0.1166  0.3570
 1602THY    HP640038   9.450   8.497   1.029  0.4890  0.2812  0.4927
 1602THY    HP740039   9.335   8.513   0.898 -1.7698  2.0002  1.0922
 1602THY    CA340040   9.601   8.294   0.835 -0.3137  0.2354 -0.0865
 1602THY    HA340041   9.637   8.340   0.926  1.3160 -2.6557  0.8855
 1602THY    CA440042   9.681   8.277   0.720  0.1593 -0.5373  0.5332
 1602THY    HA440043   9.789   8.288   0.727  0.0994  0.0411  0.6019
 1602THY    CA540044   9.630   8.239   0.602 -0.2627 -0.7149 -0.6292
 1602THY    CM140045   9.711   8.218   0.481 -0.5880  0.4211  0.1690
 1602THY    HM140046   9.800   8.158   0.501 -0.2264  0.4743 -1.1813
 1602THY    HM240047   9.645   8.160   0.415  0.8298 -2.8374  1.3788
 1602THY    HM340048   9.748   8.314   0.446  0.1401  0.0604 -0.0728
 1602THY    CA640049   9.490   8.228   0.592 -0.0435 -0.5556 -0.1679
 1602THY    HA640050   9.445   8.205   0.496  0.4502  1.3554 -0.9042
 1603THY      O40051   4.217   2.284   1.523  0.2052  0.0292  0.2962
 1603THY     HO40052   4.191   2.332   1.442 -2.1848 -0.8028  0.4906
 1603THY    CA140053   4.206   2.153   1.482 -0.2592 -0.9936 -0.1670
 1603THY    CA240054   4.258   2.047   1.551 -0.5766  0.6216  0.3676
 1603THY    CP140055   4.336   2.051   1.680  0.4753  0.0678 -0.1835
 1603THY    HP140056   4.355   2.157   1.701 -0.0066  0.0431  0.4369
 1603THY    CP240057   4.255   1.998   1.792  0.6414  0.1119 -0.3021
 1603THY    HP240058   4.252   1.888   1.787 -1.8438  0.1499 -0.9705
 1603THY    HP340059   4.292   2.032   1.889 -1.9249  2.0673  0.1170
 1603THY    HP440060   4.152   2.036   1.790 -0.1543 -1.9263 -0.8422
 1603THY    CP340061   4.461   1.973   1.677 -0.0381  0.5172 -0.0487
 1603THY    HP540062   4.440   1.866   1.662 -4.0295  1.1232  0.1373
 1603THY    HP640063   4.528   2.018   1.603 -0.9036  1.9007 -0.0217
 1603THY    HP740064   4.511   1.994   1.772  0.6067  0.6537 -0.4176
 1603THY    CA340065   4.220   1.924   1.502  0.2898  1.1024 -0.0201
 1603THY    HA340066   4.243   1.834   1.557  0.6347  0.5358 -1.0588
 1603THY    CA440067   4.151   1.911   1.379 -0.2873 -0.3397 -0.3985
 1603THY    HA440068   4.132   1.811   1.342 -0.4569 -0.8680  1.0750
 1603THY    CA540069   4.105   2.024   1.313  0.0782  0.0155  0.0939
 1603THY    CM140070   4.057   1.998   1.176  0.2784 -0.1153  0.0493
 1603THY    HM140071   3.947   1.994   1.183  0.2030 -2.5790 -1.2469
 1603THY    HM240072   4.087   2.073   1.102 -2.8895  1.4357  0.1561
 1603THY    HM340073   4.089   1.897   1.149 -1.3194 -0.5399 -0.4042
 1603THY    CA640074   4.132   2.149   1.364 -0.1773  0.6223  0.0796
 1603THY    HA640075   4.104   2.238   1.308 -1.5916  0.4514  0.4895
 1604THY      O40076   6.320   2.650   7.797 -0.1269  0.6587 -0.1879
 1604THY     HO40077   6.389   2.626   7.733  0.0543  1.7470 -0.4238
 1604THY    CA140078   6.256   2.764   7.749 -0.5479  0.0584  0.1256
 1604THY    CA240079   6.128   2.807   7.798 -0.0207 -0.4771  0.1158
 1604THY    CP140080   6.053   2.716   7.901 -0.3055  0.5201 -0.1854
 1604THY    HP140081   6.119   2.636   7.937 -0.8237  0.4148  0.5627
 1604THY    CP240082   6.004   2.802   8.023  0.5459  0.7055 -0.1312
 1604THY    HP240083   6.065   2.887   8.054 -0.7030  0.8422  2.1606
 1604THY    HP340084   5.907   2.844   7.997 -0.4104 -0.3860  1.5007
 1604THY    HP440085   5.981   2.732   8.104  2.0603  0.0415 -0.2319
 1604THY    CP340086   5.940   2.646   7.825  0.2864 -0.1946  0.0114
 1604THY    HP540087   5.866   2.716   7.785  0.1561 -0.1489  0.3326
 1604THY    HP640088   5.989   2.593   7.742  0.8930 -0.8220  0.7508
 1604THY    HP740089   5.885   2.572   7.884 -0.4994 -0.8714 -1.5118
 1604THY    CA340090   6.079   2.935   7.756  0.0117 -0.3245 -0.0146
 1604THY    HA340091   5.983   2.968   7.796  0.5207  1.2788 -0.0307
 1604THY    CA440092   6.146   3.014   7.662 -0.3472 -0.1640 -0.1112
 1604THY    HA440093   6.109   3.111   7.629  2.8932  0.4342 -2.4898
 1604THY    CA540094   6.268   2.963   7.613  0.1287 -0.0483  0.6640
 1604THY    CM140095   6.349   3.041   7.522  0.0424  0.8389  0.2523
 1604THY    HM140096   6.321   3.146   7.506 -1.8246  0.1676 -1.2989
 1604THY    HM240097   6.453   3.043   7.555 -0.3205  1.8917  1.4123
 1604THY    HM340098   6.345   2.980   7.431 -1.6295 -2.5196  2.4107
 1604THY    CA640099   6.319   2.841   7.648  0.0903  0.4628  0.3118
 1604THY    HA640100   6.413   2.799   7.613  1.0780  0.8738  2.3144
 1605THY      O40101   4.089   7.163   1.000  0.1316 -0.4067 -0.2249
 1605THY     HO40102   4.031   7.108   1.054 -1.5142  2.8403  1.6017
 1605THY    CA140103   4.100   7.287   1.062  0.4987 -0.4549 -0.7448
 1605THY    CA240104   4.203   7.379   1.015 -0.2183 -0.2717  0.2114
 1605THY    CP140105   4.311   7.322   0.922 -0.8230  0.2480 -0.1617
 1605THY    HP140106   4.331   7.216   0.942 -0.1835  0.1731 -1.1629
 1605THY    CP240107   4.256   7.339   0.778  0.1152 -0.6964  0.1919
 1605THY    HP240108   4.210   7.432   0.744  2.4642  0.1432 -0.9080
 1605THY    HP340109   4.337   7.328   0.705 -1.4444 -0.6556 -1.6339
 1605THY    HP440110   4.193   7.250   0.766  0.3452 -1.3468  3.0290
 1605THY    CP340111   4.453   7.383   0.930  0.3027  0.0728 -0.5207
 1605THY    HP540112   4.514   7.328   0.857 -1.0551  0.3473 -1.9173
 1605THY    HP640113   4.460   7.489   0.902 -0.6178  0.0488 -0.8921
 1605THY    HP740114   4.498   7.381   1.029 -1.1599 -2.2864  0.1937
 1605THY    CA340115   4.215   7.498   1.083 -0.0473  1.0268  0.4827
 1605THY    HA340116   4.292   7.567   1.048  1.1075  0.5393  1.9775
 1605THY    CA440117   4.125   7.523   1.185 -0.5646 -0.3527  0.0450
 1605THY    HA440118   4.132   7.617   1.240 -1.1592 -0.6537  0.6487
 1605THY    CA540119   4.011   7.447   1.214 -0.6161 -0.6962  0.2175
 1605THY    CM140120   3.895   7.507   1.299  0.5819  0.0216 -0.9716
 1605THY    HM140121   3.851   7.596   1.253  0.5203  0.7855  0.5014
 1605THY    HM240122   3.817   7.433   1.321  0.6339  0.7252  2.0580
 1605THY    HM340123   3.924   7.546   1.397 -0.8759  0.5141 -0.7198
 1605THY    CA640124   4.001   7.329   1.154  0.4907  0.0910 -0.2303
 1605THY    HA640125   3.918   7.266   1.183 -0.0497  1.5740  1.5605
 1606THY      O40126   5.240   3.996   8.490  0.5556  0.0834 -0.0005
 1606THY     HO40127   5.183   4.056   8.440 -0.6254  0.8478  2.1218
 1606THY    CA140128   5.243   3.882   8.419 -0.8284  0.8152  0.7620
 1606THY    CA240129   5.341   3.781   8.450 -0.3074  0.1406  0.1718
 1606THY    CP140130   5.448   3.812   8.558 -0.6226 -1.1639 -0.8783
 1606THY    HP140131   5.418   3.896   8.621 -0.5944 -0.7507 -1.4050
 1606THY    CP240132   5.475   3.696   8.655  0.2420 -0.3538 -0.4024
 1606THY    HP240133   5.385   3.686   8.716  0.1240 -1.9000 -0.7914
 1606THY    HP340134   5.502   3.602   8.607  2.5507 -0.6998  1.3778
 1606THY    HP440135   5.550   3.727   8.730 -0.5170  0.7067 -0.0549
 1606THY    CP340136   5.575   3.840   8.482 -0.9016  0.2075 -0.2962
 1606THY    HP540137   5.662   3.870   8.542 -0.5680  0.7555 -1.0380
 1606THY    HP640138   5.606   3.749   8.429 -1.1145  0.0076 -0.0769
 1606THY    HP740139   5.552   3.914   8.405  0.4711  0.3417 -0.6103
 1606THY    CA340140   5.358   3.668   8.362  0.1068 -0.0619  0.5790
 1606THY    HA340141   5.439   3.596   8.367  1.6992  1.6540  0.6759
 1606THY    CA440142   5.267   3.668   8.253 -0.3079 -0.6048 -0.6170
 1606THY    HA440143   5.279   3.584   8.186 -0.0975 -1.8192  0.8980
 1606THY    CA540144   5.168   3.762   8.227 -0.4897 -0.4145 -0.3823
 1606THY    CM140145   5.079   3.761   8.109 -0.3136 -0.2826  0.2495
 1606THY    HM140146   5.123   3.821   8.029  0.3263 -1.2701 -0.1583
 1606THY    HM240147   5.049   3.658   8.084 -0.2695 -1.0007  2.8705
 1606THY    HM340148   4.985   3.809   8.138  0.7503  2.6313 -0.7321
 1606THY    CA640149   5.153   3.870   8.316  0.4868 -0.4844 -0.3045
 1606THY    HA640150   5.084   3.949   8.286  1.4270 -0.0505 -1.4123
 1607THY      O40151   7.284   1.126   3.757  0.9795  0.5546  0.0483
 1607THY     HO40152   7.324   1.129   3.669 -0.2828  0.0296 -0.5785
 1607THY    CA140153   7.375   1.190   3.839  0.0290  0.1306  0.3333
 1607THY    CA240154   7.372   1.190   3.974  0.4465 -0.0760 -0.0256
 1607THY    CP140155   7.261   1.119   4.043 -0.8251  0.5231  0.1128
 1607THY    HP140156   7.179   1.106   3.971  1.1140  0.5332 -2.2299
 1607THY    CP240157   7.313   0.984   4.097 -0.1893  0.0610  0.7407
 1607THY    HP240158   7.257   0.927   4.172 -0.2331  0.5887  1.1120
 1607THY    HP340159   7.331   0.912   4.016 -1.7211  0.7042 -0.2211
 1607THY    HP440160   7.411   1.011   4.136  0.7547  0.4906 -1.7636
 1607THY    CP340161   7.215   1.206   4.156  0.1826  0.0377  0.1583
 1607THY    HP540162   7.217   1.313   4.133 -0.0686 -0.0969 -0.5027
 1607THY    HP640163   7.119   1.167   4.190 -0.0917  1.4838  1.1124
 1607THY    HP740164   7.278   1.185   4.244 -2.5300 -3.0982  1.5788
 1607THY    CA340165   7.478   1.247   4.044 -0.3885  0.2864  0.4649
 1607THY    HA340166   7.494   1.246   4.152  3.2091 -0.6526  0.0371
 1607THY    CA440167   7.584   1.317   3.968 -0.1795  0.7429 -0.5054
 1607THY    HA440168   7.669   1.362   4.018  0.5118  0.2507 -1.2054
 1607THY    CA540169   7.573   1.330   3.834  0.2801 -0.7527 -0.1403
 1607THY    CM140170   7.676   1.394   3.751 -1.1718 -0.1526  0.0281
 1607THY    HM140171   7.707   1.484   3.805  0.3055 -1.2246  1.0482
 1607THY    HM240172   7.768   1.336   3.737 -0.9170  0.4080 -0.6959
 1607THY    HM340173   7.650   1.434   3.652  3.3352  2.0939 -0.4932
 1607THY    CA640174   7.471   1.268   3.772 -0.9915  0.1118  0.2323
 1607THY    HA640175   7.460   1.300   3.669  0.1275  2.5869  0.8136
 1608THY      O40176   4.189   0.530   5.207 -0.2098 -0.3248  0.1388
 1608THY     HO40177   4.224   0.444   5.235  2.7704  1.5147  2.7844
 1608THY    CA140178   4.056   0.538   5.222  0.5408  0.4824  0.5141
 1608THY    CA240179   3.978   0.433   5.168 -0.0725 -0.6491  0.5868
 1608THY    CP140180   4.031   0.314   5.086 -0.2571 -0.1488 -0.3590
 1608THY    HP140181   4.130   0.337   5.044  0.0084  0.8593  0.7600
 1608THY    CP240182   4.037   0.190   5.182  0.4152 -0.1960 -0.0124
 1608THY    HP240183   4.079   0.209   5.282  0.5351 -2.8843  0.5274
 1608THY    HP340184   3.938   0.145   5.196 -0.7903  1.3517 -2.8596
 1608THY    HP440185   4.110   0.118   5.143  1.5560 -0.4429  2.3376
 1608THY    CP340186   3.951   0.300   4.958 -0.3667  0.4833 -0.2565
 1608THY    HP540187   3.961   0.394   4.902 -1.0544 -0.0734 -1.3439
 1608THY    HP640188   3.998   0.223   4.896  0.5056 -0.6141  1.6627
 1608THY    HP740189   3.845   0.273   4.964 -0.1510 -1.2896 -2.9574
 1608THY    CA340190   3.838   0.443   5.197 -0.0648  0.1356 -0.0057
 1608THY    HA340191   3.763   0.375   5.157 -1.0262  0.6927  0.7780
 1608THY    CA440192   3.783   0.548   5.277 -1.1639 -0.1046 -0.2288
 1608THY    HA440193   3.676   0.549   5.296 -1.5883 -0.2397 -2.3150
 1608THY    CA540194   3.868   0.648   5.329  1.0644 -0.2444  1.0514
 1608THY    CM140195   3.802   0.765   5.405  0.2495  0.2501 -0.7636
 1608THY    HM140196   3.767   0.837   5.329 -1.2840 -0.2184 -0.5465
 1608THY    HM240197   3.722   0.732   5.472  2.6275 -0.1202  2.1010
 1608THY    HM340198   3.881   0.815   5.462  1.2699 -1.3749 -0.6892
 1608THY    CA640199   4.007   0.643   5.304  0.4535  0.2209  0.2339
 1608THY    HA640200   4.078   0.705   5.359 -1.6458  1.2220  1.9552
 1609THY      O40201   3.795   2.570   8.715 -0.4063  0.4361 -0.0067
 1609THY     HO40202   3.723   2.505   8.711 -0.1370  0.1677 -0.5509
 1609THY    CA140203   3.841   2.553   8.835 -0.5069 -0.4786 -0.0788
 1609THY    CA240204   3.980   2.532   8.861  0.1664  0.6026 -0.7008
 1609THY    CP140205   4.077   2.514   8.740  0.0432 -0.3041  0.3524
 1609THY    HP140206   4.069   2.602   8.674  1.9906 -0.4868 -0.1975
 1609THY    CP240207   4.225   2.496   8.792 -0.1285  0.5819 -0.0196
 1609THY    HP240208   4.268   2.583   8.844 -0.4390  0.6000  0.2066
 1609THY    HP340209   4.242   2.401   8.843 -0.5106  1.0304  0.9547
 1609THY    HP440210   4.273   2.487   8.693 -1.7123 -3.2334 -0.6189
 1609THY    CP340211   4.053   2.383   8.664 -0.0389 -0.0167 -0.3335
 1609THY    HP540212   3.964   2.400   8.602 -0.5236  0.6273  0.5276
 1609THY    HP640213   4.137   2.349   8.601  1.3756 -0.6386  1.7978
 1609THY    HP740214   4.034   2.299   8.731  4.8186 -1.6292 -0.5558
 1609THY    CA340215   4.021   2.529   8.997  0.3521  0.4219  0.1777
 1609THY    HA340216   4.123   2.507   9.027  0.4561  0.4411 -0.1664
 1609THY    CA440217   3.923   2.536   9.096 -0.4518  0.5920 -0.4565
 1609THY    HA440218   3.958   2.545   9.198 -0.3156 -1.0038 -0.3315
 1609THY    CA540219   3.787   2.554   9.067 -0.1207  0.0836  0.7723
 1609THY    CM140220   3.685   2.523   9.171 -0.0699  0.4220 -0.4368
 1609THY    HM140221   3.713   2.435   9.231 -0.6346 -0.3313 -1.2415
 1609THY    HM240222   3.663   2.601   9.244 -2.5072 -0.2085 -0.4096
 1609THY    HM340223   3.587   2.503   9.124  0.4142  0.9729 -1.7258
 1609THY    CA640224   3.749   2.564   8.937 -0.0674 -0.2235 -0.3522
 1609THY    HA640225   3.642   2.573   8.920  0.1595  0.2501 -1.5890
 1610THY      O40226   4.725   5.051   8.365 -0.3951  0.2659  0.0033
 1610THY     HO40227   4.646   5.092   8.404 -2.2777 -0.9971 -2.2678
 1610THY    CA140228   4.684   5.018   8.241  0.7526  0.2422 -0.4169
 1610THY    CA240229   4.703   4.885   8.197 -0.1110 -0.0731 -0.1711
 1610THY    CP140230   4.766   4.784   8.288  0.1672 -0.4187 -0.0738
 1610THY    HP140231   4.805   4.829   8.381  1.7700  2.3548 -1.9450
 1610THY    CP240232   4.673   4.676   8.324  0.5124 -0.2253 -0.4819
 1610THY    HP240233   4.692   4.617   8.414 -0.6873 -0.2347 -0.2210
 1610THY    HP340234   4.580   4.707   8.373  0.0660 -3.3868  0.8932
 1610THY    HP440235   4.652   4.604   8.244 -0.5907 -1.8585  1.2084
 1610THY    CP340236   4.902   4.732   8.234  0.3012 -0.6319  0.1797
 1610THY    HP540237   4.885   4.661   8.152 -0.9442 -0.1824  0.0294
 1610THY    HP640238   4.964   4.819   8.207  2.3821 -1.7179  1.1655
 1610THY    HP740239   4.960   4.678   8.310 -0.3297 -2.8845 -0.8587
 1610THY    CA340240   4.653   4.845   8.072 -1.0002  0.3598  0.5490
 1610THY    HA340241   4.656   4.742   8.039  2.2703  0.5951 -0.2689
 1610THY    CA440242   4.595   4.945   7.993  0.3033 -0.0834 -0.3099
 1610THY    HA440243   4.552   4.913   7.898 -1.8030  2.3810 -0.2803
 1610THY    CA540244   4.581   5.068   8.038  0.0597 -0.3691 -0.1005
 1610THY    CM140245   4.509   5.165   7.958  0.5748 -0.4084 -0.0482
 1610THY    HM140246   4.550   5.265   7.976  0.9123 -0.2698 -1.5392
 1610THY    HM240247   4.532   5.151   7.852 -0.1203  1.3058 -0.4647
 1610THY    HM340248   4.402   5.175   7.980  0.5184 -0.9736 -0.0556
 1610THY    CA640249   4.621   5.108   8.166  0.4671 -0.3018  0.5823
 1610THY    HA640250   4.606   5.209   8.205 -0.1162 -0.3887  0.5931
 1611THY      O40251   7.716   3.092   5.905 -0.0772 -0.0118 -0.2256
 1611THY     HO40252   7.680   3.124   5.821 -0.1338 -0.0708 -0.2240
 1611THY    CA140253   7.809   3.182   5.935  0.3214 -0.7414  0.4551
 1611THY    CA240254   7.923   3.145   6.013 -0.0784  0.6937 -0.0565
 1611THY    CP140255   7.931   3.003   6.073  0.3830  0.8709 -0.3056
 1611THY    HP140256   7.843   2.941   6.054 -0.6460  2.4707 -0.9456
 1611THY    CP240257   8.051   2.929   6.036  0.4962 -0.2217  0.5812
 1611THY    HP240258   8.139   2.954   6.097  1.0417  0.1440 -0.3253
 1611THY    HP340259   8.033   2.823   6.016  0.3759 -0.1374  0.2409
 1611THY    HP440260   8.074   2.962   5.934 -0.4769  0.0079  0.4293
 1611THY    CP340261   7.930   2.995   6.233  0.6811  0.6561 -0.0772
 1611THY    HP540262   7.930   2.890   6.267 -1.0765  0.9623  0.9424
 1611THY    HP640263   8.010   3.050   6.284  0.6628  1.6606 -1.0993
 1611THY    HP740264   7.830   3.021   6.267 -0.5568 -0.5362 -2.5030
 1611THY    CA340265   8.030   3.237   6.031  0.2780  0.3907  0.2150
 1611THY    HA340266   8.120   3.220   6.088  0.9691  0.0919 -0.9410
 1611THY    CA440267   8.013   3.366   5.967  0.0139 -0.1130 -0.4931
 1611THY    HA440268   8.094   3.438   5.977 -0.5260  0.7846 -2.2346
 1611THY    CA540269   7.900   3.400   5.895 -0.4264  1.1026  0.1268
 1611THY    CM140270   7.904   3.530   5.817  0.2507  0.2653 -0.9771
 1611THY    HM140271   7.957   3.609   5.872 -1.7131  1.3534 -0.5581
 1611THY    HM240272   7.956   3.512   5.723  1.0051  1.4098 -0.8055
 1611THY    HM340273   7.807   3.575   5.792  0.8396  1.5043 -1.1392
 1611THY    CA640274   7.798   3.306   5.873  0.1017 -0.3618  0.0700
 1611THY    HA640275   7.712   3.341   5.817 -1.3022 -1.7845  1.2509
 1612THY      O40276   2.569   9.459   8.635 -0.2217  0.4197  0.4235
 1612THY     HO40277   2.495   9.507   8.595  1.2257  0.8612 -1.9189
 1612THY    CA140278   2.568   9.344   8.560 -0.3166 -0.1688 -0.0857
 1612THY    CA240279   2.670   9.252   8.567 -0.1142 -0.0549  1.0231
 1612THY    CP140280   2.792   9.277   8.656  0.0293 -1.0457 -0.0124
 1612THY    HP140281   2.774   9.362   8.722  1.5692 -1.1977  0.6529
 1612THY    CP240282   2.833   9.152   8.741 -0.2879 -1.1236  1.0424
 1612THY    HP240283   2.906   9.184   8.817  1.2295  4.3453 -2.1562
 1612THY    HP340284   2.746   9.103   8.787 -1.9306 -0.0561 -0.8050
 1612THY    HP440285   2.875   9.068   8.684 -0.7308 -1.1797  0.7983
 1612THY    CP340286   2.912   9.319   8.571 -0.5648 -0.1902  0.2718
 1612THY    HP540287   2.944   9.243   8.498  1.0908  0.3857  0.3612
 1612THY    HP640288   2.886   9.409   8.514  1.2204 -0.1670 -0.5622
 1612THY    HP740289   3.001   9.356   8.622  1.1407 -2.2842 -1.0083
 1612THY    CA340290   2.670   9.147   8.466  0.5328 -1.0001 -0.1546
 1612THY    HA340291   2.741   9.065   8.473  2.6562  0.6992 -0.7225
 1612THY    CA440292   2.559   9.139   8.377 -0.5053  0.0302 -0.2451
 1612THY    HA440293   2.551   9.053   8.311  2.2818 -2.1051  1.9523
 1612THY    CA540294   2.450   9.227   8.384  0.1136  0.0207  0.7625
 1612THY    CM140295   2.332   9.219   8.286 -0.4012 -0.3324  0.2258
 1612THY    HM140296   2.321   9.116   8.251 -0.1125  0.3411 -2.0665
 1612THY    HM240297   2.241   9.271   8.317  0.0524 -0.6855  2.2935
 1612THY    HM340298   2.361   9.282   8.201  0.6476 -0.1822  0.6785
 1612THY    CA640299   2.456   9.334   8.476 -0.6580 -0.1274 -0.4659
 1612THY    HA640300   2.371   9.401   8.482  0.5514  1.3701  0.6970
 1613THY      O40301   8.528   1.720   0.938  0.1733  0.4054 -0.4354
 1613THY     HO40302   8.539   1.630   0.903  1.4749  0.6168 -0.6209
 1613THY    CA140303   8.477   1.797   0.844  0.2009 -0.6329  0.5478
 1613THY    CA240304   8.519   1.926   0.815  0.0264  0.1888  0.2706
 1613THY    CP140305   8.641   1.987   0.901  0.0169 -0.0818 -0.4164
 1613THY    HP140306   8.681   1.909   0.967  1.2940  2.3334  1.8255
 1613THY    CP240307   8.759   2.017   0.817 -0.6628  0.0379 -0.0565
 1613THY    HP240308   8.840   2.066   0.872 -0.3845  0.4555 -0.8254
 1613THY    HP340309   8.801   1.929   0.766 -0.4379 -0.2652  0.6403
 1613THY    HP440310   8.725   2.091   0.745 -0.6341  1.2148  1.1093
 1613THY    CP340311   8.591   2.100   0.993  0.5080 -0.4942  0.0343
 1613THY    HP540312   8.666   2.100   1.073 -2.0212 -1.1246  2.5754
 1613THY    HP640313   8.581   2.197   0.942 -1.6617 -0.8706 -0.3504
 1613THY    HP740314   8.505   2.064   1.050  0.5219 -0.6835 -0.0618
 1613THY    CA340315   8.464   2.005   0.714 -0.1419 -0.3665  0.4515
 1613THY    HA340316   8.504   2.101   0.681  1.0032 -1.6042 -2.0681
 1613THY    CA440317   8.355   1.955   0.644 -0.6807  0.2776  0.2046
 1613THY    HA440318   8.310   2.016   0.566 -1.2731 -0.7250 -0.2627
 1613THY    CA540319   8.300   1.831   0.682 -0.3690 -0.2832 -0.8528
 1613THY    CM140320   8.170   1.779   0.626 -0.0583  0.1271 -0.0993
 1613THY    HM140321   8.087   1.849   0.639 -0.4544 -0.1802 -0.9123
 1613THY    HM240322   8.194   1.746   0.525  0.8057 -3.6357  1.1471
 1613THY    HM340323   8.148   1.683   0.676  3.8344 -0.5319  0.6986
 1613THY    CA640324   8.367   1.756   0.781  0.1247  0.8614  0.7370
 1613THY    HA640325   8.326   1.664   0.823  2.8855 -0.1204  1.4774
 1614THY      O40326   1.958   6.589   5.927 -0.3289 -0.0774 -0.0906
 1614THY     HO40327   1.941   6.629   5.840  1.8625  0.9842 -0.1047
 1614THY    CA140328   2.089   6.582   5.945 -0.0878  0.9005  0.6126
 1614THY    CA240329   2.154   6.471   5.993 -0.2833  0.7291 -0.0678
 1614THY    CP140330   2.080   6.347   6.035 -0.1349  0.0998  0.4473
 1614THY    HP140331   1.975   6.365   6.062 -0.8250 -2.6484 -0.0829
 1614THY    CP240332   2.068   6.249   5.920 -0.1943 -0.0831 -0.0416
 1614THY    HP240333   1.993   6.281   5.846 -1.7108 -1.3645  0.8849
 1614THY    HP340334   2.164   6.246   5.867  0.3947 -2.5556  1.0315
 1614THY    HP440335   2.041   6.151   5.962 -0.4439  0.6338  1.5209
 1614THY    CP340336   2.140   6.270   6.161  0.0663 -0.0696 -0.5351
 1614THY    HP540337   2.209   6.190   6.132 -0.4664 -1.1738  1.0752
 1614THY    HP640338   2.195   6.348   6.215  0.8265 -0.0076 -1.3824
 1614THY    HP740339   2.058   6.235   6.225  0.9626 -2.2324 -0.4871
 1614THY    CA340340   2.296   6.474   5.999 -0.5180  0.1668  0.6005
 1614THY    HA340341   2.353   6.386   6.028 -1.2631 -0.4132  0.3445
 1614THY    CA440342   2.367   6.591   5.966 -0.5765  0.3085  0.6843
 1614THY    HA440343   2.475   6.582   5.963 -0.7021 -1.1178 -0.7453
 1614THY    CA540344   2.295   6.699   5.916  0.2887  0.1533 -0.4804
 1614THY    CM140345   2.372   6.830   5.886 -0.6000  0.1390 -0.5420
 1614THY    HM140346   2.470   6.842   5.934 -1.4188 -0.9575  1.5561
 1614THY    HM240347   2.365   6.863   5.782 -0.2525 -1.0537 -0.9630
 1614THY    HM340348   2.319   6.905   5.945 -1.7282  0.2817 -1.6888
 1614THY    CA640349   2.156   6.697   5.900 -0.2182 -0.3058  0.5069
 1614THY    HA640350   2.097   6.780   5.863 -1.1064 -1.4576 -0.7926
 1615THY      O40351   6.313   8.417   0.100 -0.7343 -0.7765  0.1027
 1615THY     HO40352   6.329   8.493   0.159 -0.1709 -0.2689 -0.6871
 1615THY    CA140353   6.260   8.478  -0.012 -0.4407  0.4111  0.1703
 1615THY    CA240354   6.119   8.471  -0.039  0.0414  0.4196  0.0928
 1615THY    CP140355   6.024   8.411   0.061  0.3031  0.2327 -0.4818
 1615THY    HP140356   6.065   8.430   0.161 -1.0957  1.7506 -0.1341
 1615THY    CP240357   5.887   8.486   0.062  0.0514  0.4534 -0.5565
 1615THY    HP240358   5.891   8.595   0.071  0.8481  0.4252 -0.5191
 1615THY    HP340359   5.828   8.464  -0.027 -3.7392 -0.1576  1.8731
 1615THY    HP440360   5.821   8.449   0.142  0.0121 -1.1163 -1.2915
 1615THY    CP340361   6.002   8.258   0.038  0.0812 -0.3982 -0.5207
 1615THY    HP540362   5.988   8.248  -0.070  1.0487  1.7713 -0.9009
 1615THY    HP640363   6.084   8.199   0.081  0.1385 -0.2457 -0.4183
 1615THY    HP740364   5.906   8.223   0.078  0.9029 -0.5696  1.3917
 1615THY    CA340365   6.076   8.523  -0.165 -0.2159 -0.2807  0.0813
 1615THY    HA340366   5.970   8.532  -0.186 -0.1968  0.5115  0.2930
 1615THY    CA440367   6.170   8.567  -0.259  0.6253  0.0217 -0.1990
 1615THY    HA440368   6.130   8.602  -0.354  3.3254 -0.1493 -1.4918
 1615THY    CA540369   6.310   8.565  -0.240  0.9457 -0.0537 -0.9652
 1615THY    CM140370   6.396   8.601  -0.344 -0.0343 -0.0991  0.2376
 1615THY    HM140371   6.351   8.690  -0.390 -0.6291 -0.2287  0.5649
 1615THY    HM240372   6.500   8.627  -0.318  0.5423  0.4580 -2.3083
 1615THY    HM340373   6.406   8.531  -0.428  0.9386 -0.3391  0.5359
 1615THY    CA640374   6.347   8.521  -0.108 -0.3388 -0.4050 -0.0577
 1615THY    HA640375   6.452   8.527  -0.080  0.3888 -1.0426 -2.3637
 1616THY      O40376   7.288   9.909   3.625 -0.2522  0.1441  0.2673
 1616THY     HO40377   7.296   9.986   3.684  0.7863  1.9998 -2.1218
 1616THY    CA140378   7.326   9.952   3.499 -0.1448  0.3453 -0.2608
 1616THY    CA240379   7.362   9.856   3.404  0.0227  0.1370  0.1943
 1616THY    CP140380   7.346   9.710   3.439  0.1543 -0.9436  0.2927
 1616THY    HP140381   7.335   9.696   3.547 -0.3698 -1.7605  0.1443
 1616THY    CP240382   7.218   9.646   3.372 -0.1689 -0.0980 -0.3680
 1616THY    HP240383   7.224   9.540   3.396  0.1908 -0.2960 -1.2888
 1616THY    HP340384   7.126   9.688   3.414 -1.7987 -2.7812 -1.0699
 1616THY    HP440385   7.209   9.666   3.265  2.9349  0.7352 -0.5878
 1616THY    CP340386   7.472   9.625   3.397  0.2604  0.3773  0.4991
 1616THY    HP540387   7.457   9.522   3.432  0.6444  0.2671  0.3409
 1616THY    HP640388   7.506   9.635   3.294 -2.2042  1.1411 -0.3156
 1616THY    HP740389   7.562   9.658   3.450  0.7199  1.3158 -0.8315
 1616THY    CA340390   7.382   9.897   3.269  0.6201 -0.4205  0.2134
 1616THY    HA340391   7.418   9.827   3.195  1.6175 -0.0720  0.3521
 1616THY    CA440392   7.381  10.030   3.239 -0.2083  0.0373 -1.0983
 1616THY    HA440393   7.405  10.064   3.139  2.6604 -3.2641 -1.7392
 1616THY    CA540394   7.360  10.127   3.336 -0.0384  0.1717 -0.1471
 1616THY    CM140395   7.359  10.266   3.294 -0.0556  0.1216  0.1738
 1616THY    HM140396   7.382  10.335   3.377 -0.1921  0.1134  0.2193
 1616THY    HM240397   7.441  10.294   3.228 -2.5256  1.3050 -2.6411
 1616THY    HM340398   7.267  10.310   3.252  0.0107  1.7208  1.5997
 1616THY    CA640399   7.326  10.082   3.463 -0.2094 -0.3677 -0.1121
 1616THY    HA640400   7.307  10.152   3.544  1.5617  0.2183 -0.1421
 1617THY      O40401   0.245   5.119   1.895  0.1931 -0.3280 -0.4483
 1617THY     HO40402   0.247   5.045   1.959  0.2714  0.3281  0.3191
 1617THY    CA140403   0.307   5.082   1.786 -0.4033 -0.3386  0.0812
 1617THY    CA240404   0.363   5.174   1.691  0.6530 -0.0531 -0.2714
 1617THY    CP140405   0.333   5.331   1.711  0.1570 -0.5770  0.0439
 1617THY    HP140406   0.233   5.340   1.754  0.6814 -1.1202  1.4393
 1617THY    CP240407   0.428   5.401   1.814 -0.0062  0.6559  0.7357
 1617THY    HP240408   0.531   5.392   1.779  0.6140  0.4900  2.4942
 1617THY    HP340409   0.388   5.503   1.820 -0.5139  1.2061 -5.7170
 1617THY    HP440410   0.428   5.341   1.906  0.6283  1.2862  1.1530
 1617THY    CP340411   0.341   5.406   1.571  0.6202 -0.2775  0.0461
 1617THY    HP540412   0.445   5.438   1.556  0.5279  1.3409  2.3594
 1617THY    HP640413   0.310   5.336   1.492 -0.5686 -0.2019  0.4232
 1617THY    HP740414   0.284   5.500   1.567  3.4024  1.6354  1.5396
 1617THY    CA340415   0.441   5.122   1.583 -0.6160  0.5714 -0.0509
 1617THY    HA340416   0.486   5.186   1.507 -0.3898  0.0069 -0.4000
 1617THY    CA440417   0.471   4.986   1.585 -0.1833  0.0050 -0.3048
 1617THY    HA440418   0.524   4.942   1.502 -1.8154  0.1167 -1.4719
 1617THY    CA540419   0.405   4.899   1.678 -0.0800  0.1008  0.8432
 1617THY    CM140420   0.446   4.753   1.671 -0.0967  0.4675 -0.8127
 1617THY    HM140421   0.539   4.751   1.730 -1.2867  3.3574  1.4460
 1617THY    HM240422   0.371   4.692   1.723  0.6666  0.3746  0.2067
 1617THY    HM340423   0.460   4.720   1.567 -0.0055  2.3760 -1.4466
 1617THY    CA640424   0.334   4.949   1.780  0.2793 -0.9463 -0.4527
 1617THY    HA640425   0.306   4.881   1.860 -3.4702 -0.5790 -1.2701
 1618THY      O40426   4.424   4.859   2.345  0.8032  0.2881  0.1927
 1618THY     HO40427   4.521   4.865   2.342  1.0957 -2.9126  0.0907
 1618THY    CA140428   4.394   4.749   2.287  0.5680  0.7295  0.1348
 1618THY    CA240429   4.265   4.693   2.301  0.6327 -0.7899  0.1370
 1618THY    CP140430   4.160   4.761   2.392  0.1861  0.5503  0.0203
 1618THY    HP140431   4.191   4.865   2.410  0.2043  0.3145  1.4752
 1618THY    CP240432   4.023   4.770   2.331 -0.1212  0.4046 -0.3028
 1618THY    HP240433   3.960   4.680   2.326 -0.0864  0.3545  0.1162
 1618THY    HP340434   3.958   4.846   2.377 -1.2892  0.1950 -1.5551
 1618THY    HP440435   4.036   4.819   2.234 -0.0939  1.4337  0.1953
 1618THY    CP340436   4.145   4.688   2.532 -0.7187  0.0003  0.6830
 1618THY    HP540437   4.084   4.756   2.593 -0.4179  0.1191  0.8514
 1618THY    HP640438   4.084   4.597   2.530 -0.9375 -0.0467  3.9891
 1618THY    HP740439   4.243   4.682   2.581 -0.1169 -1.3220 -0.6235
 1618THY    CA340440   4.232   4.563   2.241 -0.3200 -0.2579 -1.2198
 1618THY    HA340441   4.135   4.517   2.256 -1.6616  2.3536 -1.3047
 1618THY    CA440442   4.335   4.497   2.174  0.4338  0.0461 -0.3356
 1618THY    HA440443   4.320   4.398   2.134  1.2268  0.0240 -0.5916
 1618THY    CA540444   4.457   4.562   2.153  0.0129 -0.1072 -0.0852
 1618THY    CM140445   4.554   4.482   2.072  1.0954 -0.1140  0.4970
 1618THY    HM140446   4.640   4.535   2.028  0.1428 -0.7268 -2.3152
 1618THY    HM240447   4.589   4.407   2.144 -1.1414  0.8007  2.6526
 1618THY    HM340448   4.507   4.436   1.985  2.7808  2.4342 -1.9490
 1618THY    CA640449   4.495   4.683   2.212 -0.5735 -0.6418 -0.9111
 1618THY    HA640450   4.598   4.716   2.197 -1.1544  0.6353 -2.3783
 1619THY      O40451   2.972   5.942   2.941 -0.6055  0.1126  0.0132
 1619THY     HO40452   3.059   5.979   2.963 -0.0818 -1.3836  0.5308
 1619THY    CA140453   2.994   5.810   2.910 -1.0143  0.3984  0.2171
 1619THY    CA240454   2.903   5.737   2.836  0.5632  0.6237  0.8747
 1619THY    CP140455   2.765   5.793   2.791  0.0794 -0.5840 -0.6675
 1619THY    HP140456   2.758   5.901   2.804  1.8065 -0.6978  2.1763
 1619THY    CP240457   2.753   5.766   2.643  0.1082 -0.5645 -0.1593
 1619THY    HP240458   2.755   5.660   2.618 -2.4482 -0.5267 -0.8201
 1619THY    HP340459   2.667   5.820   2.602  0.6694 -0.1073 -0.7476
 1619THY    HP440460   2.840   5.818   2.601 -1.3621  1.5938 -0.7031
 1619THY    CP340461   2.639   5.726   2.856  0.0791 -0.1749  1.0616
 1619THY    HP540462   2.621   5.631   2.805  0.6085 -0.6453  1.7391
 1619THY    HP640463   2.657   5.683   2.955  0.2835 -0.3834  0.9372
 1619THY    HP740464   2.551   5.791   2.863 -0.6029 -0.9811  0.2036
 1619THY    CA340465   2.926   5.595   2.816  0.7392 -0.5096  0.6168
 1619THY    HA340466   2.845   5.534   2.777  0.3555  0.7131 -0.5590
 1619THY    CA440467   3.049   5.540   2.863 -0.8976 -0.4760  0.2842
 1619THY    HA440468   3.069   5.434   2.852  1.3117  0.0726 -1.9426
 1619THY    CA540469   3.138   5.620   2.936 -0.2714  0.1027  0.4059
 1619THY    CM140470   3.273   5.568   2.978 -0.4361 -1.1814  0.2189
 1619THY    HM140471   3.278   5.459   2.972  0.2003 -1.0711 -2.0467
 1619THY    HM240472   3.340   5.606   2.900 -0.7648  1.7477  1.2559
 1619THY    HM340473   3.305   5.600   3.078  0.8637  1.2403 -0.8826
 1619THY    CA640474   3.115   5.756   2.955  0.2273  0.2643  0.1542
 1619THY    HA640475   3.192   5.820   2.999  0.1184  2.1101 -2.1669
 1620THY      O40476   7.419   3.355   9.661  0.2395  0.0315 -0.1731
 1620THY     HO40477   7.469   3.438   9.657  0.3968 -0.0846 -0.8698
 1620THY    CA140478   7.341   3.366   9.551 -1.1028 -0.1679 -0.3871
 1620THY    CA240479   7.242   3.265   9.518 -0.2019 -0.4957  0.0321
 1620THY    CP140480   7.231   3.141   9.596  0.5982 -0.7915  0.2361
 1620THY    HP140481   7.300   3.145   9.681 -0.1434  0.1803  0.8145
 1620THY    CP240482   7.085   3.135   9.665 -0.4444  0.3126  0.2703
 1620THY    HP240483   7.071   3.224   9.727  0.8140 -0.0665  1.1214
 1620THY    HP340484   7.010   3.143   9.585  0.1010  1.2305 -0.1674
 1620THY    HP440485   7.068   3.043   9.722 -2.7344 -0.2268 -1.1537
 1620THY    CP340486   7.268   3.011   9.514  0.3367 -0.0294 -0.3071
 1620THY    HP540487   7.276   2.926   9.582 -0.6423  0.2076  0.1193
 1620THY    HP640488   7.188   2.996   9.441  2.1349 -0.0829 -2.3509
 1620THY    HP740489   7.361   3.023   9.458 -0.1844  0.7083 -1.0318
 1620THY    CA340490   7.182   3.280   9.394 -0.3236  0.9248  0.1877
 1620THY    HA340491   7.113   3.203   9.361 -0.6653  0.8679  0.9930
 1620THY    CA440492   7.200   3.402   9.322  0.3313  0.1403 -0.6989
 1620THY    HA440493   7.142   3.421   9.232 -0.1989 -0.4889 -0.5008
 1620THY    CA540494   7.282   3.501   9.369 -0.4863  0.2771  0.2435
 1620THY    CM140495   7.321   3.613   9.273 -0.1774  0.4942 -0.1723
 1620THY    HM140496   7.393   3.683   9.317  2.1307 -1.0113 -1.3881
 1620THY    HM240497   7.368   3.574   9.182 -0.0705  1.6253 -0.6193
 1620THY    HM340498   7.234   3.677   9.255 -0.7541 -0.5512 -1.2582
 1620THY    CA640499   7.358   3.483   9.482 -0.1442  0.4770  0.1490
 1620THY    HA640500   7.439   3.552   9.504  1.5304 -1.3832  0.1093
 1621THY      O40501   2.826   2.920   0.970  0.2440 -0.0010  0.2790
 1621THY     HO40502   2.820   2.943   1.064 -1.9474 -1.2632  0.4937
 1621THY    CA140503   2.712   2.864   0.926 -0.3002 -0.2811  0.3084
 1621THY    CA240504   2.704   2.804   0.800  0.0434 -0.3508  0.1763
 1621THY    CP140505   2.807   2.816   0.692  0.0574  0.1800 -0.4663
 1621THY    HP140506   2.898   2.870   0.722  1.7496 -2.8919  0.3925
 1621THY    CP240507   2.874   2.687   0.645  0.1549 -0.1813 -0.7343
 1621THY    HP240508   2.920   2.640   0.732 -0.2868  0.3229 -0.2218
 1621THY    HP340509   2.795   2.626   0.599 -0.7083 -0.1940  0.7000
 1621THY    HP440510   2.958   2.702   0.577  1.8138 -0.7503  1.1239
 1621THY    CP340511   2.750   2.884   0.567  0.7879  0.4402  0.3836
 1621THY    HP540512   2.683   2.968   0.590  0.2924  1.2235 -3.2660
 1621THY    HP640513   2.829   2.930   0.506  1.4841 -1.4941 -0.2462
 1621THY    HP740514   2.699   2.804   0.512  1.7792 -1.4726  2.1172
 1621THY    CA340515   2.588   2.731   0.778  0.4529 -0.5813 -0.5362
 1621THY    HA340516   2.577   2.684   0.680  0.4217 -1.5967 -0.0562
 1621THY    CA440517   2.482   2.722   0.863 -0.0399 -0.0040  0.5323
 1621THY    HA440518   2.402   2.648   0.856 -0.6642  0.5955  1.1723
 1621THY    CA540519   2.495   2.788   0.994  0.4216 -0.2418  0.6584
 1621THY    CM140520   2.385   2.778   1.100 -0.0412  0.6384 -0.6673
 1621THY    HM140521   2.379   2.859   1.174 -4.1320  0.9832 -1.1513
 1621THY    HM240522   2.292   2.777   1.043  0.1247  1.8359 -0.9881
 1621THY    HM340523   2.404   2.683   1.152  0.5478  1.7420  1.2337
 1621THY    CA640524   2.611   2.858   1.022 -0.3590  0.7924 -0.1101
 1621THY    HA640525   2.627   2.896   1.122 -1.5876 -1.3937  0.9865
 1622THY      O40526   3.180   7.827   2.151 -0.6790 -0.5399 -0.1036
 1622THY     HO40527   3.120   7.900   2.128  0.8214  0.3896 -1.1496
 1622THY    CA140528   3.265   7.813   2.058 -0.3976  0.7449  0.3039
 1622THY    CA240529   3.388   7.741   2.074  0.1414 -0.1195  0.0439
 1622THY    CP140530   3.444   7.686   2.205 -0.1022  0.0955 -0.1170
 1622THY    HP140531   3.366   7.696   2.281 -0.4094 -0.1480 -0.3977
 1622THY    CP240532   3.478   7.539   2.194 -0.2110  0.0098 -0.4077
 1622THY    HP240533   3.578   7.515   2.154  1.1037  1.3961  1.8608
 1622THY    HP340534   3.482   7.505   2.298  0.6549 -2.1282 -1.0821
 1622THY    HP440535   3.393   7.489   2.147 -0.3140 -0.3361  0.1426
 1622THY    CP340536   3.561   7.770   2.255 -0.6019  0.2447  0.8240
 1622THY    HP540537   3.637   7.779   2.177 -1.1513 -0.0308  0.2487
 1622THY    HP640538   3.519   7.871   2.260  1.6507  1.2558  0.4238
 1622THY    HP740539   3.598   7.729   2.350  1.5409 -1.5710 -0.6921
 1622THY    CA340540   3.476   7.728   1.963  0.0189  0.2130  0.2355
 1622THY    HA340541   3.573   7.680   1.975  0.0340 -0.2252 -1.4298
 1622THY    CA440542   3.436   7.773   1.840 -0.3451 -0.9963  0.6950
 1622THY    HA440543   3.496   7.759   1.750 -0.6413  0.5788  0.2291
 1622THY    CA540544   3.308   7.829   1.820 -0.2921 -0.0832  0.0389
 1622THY    CM140545   3.259   7.870   1.679 -0.1516 -0.3410 -0.2778
 1622THY    HM140546   3.305   7.967   1.657  1.9612 -0.6350  2.3551
 1622THY    HM240547   3.284   7.797   1.601  1.3504  0.5766 -0.6891
 1622THY    HM340548   3.152   7.890   1.673  0.0476  0.5435 -1.1121
 1622THY    CA640549   3.227   7.851   1.933  0.2766  0.0765  0.4907
 1622THY    HA640550   3.126   7.887   1.919 -0.1220 -0.9860  0.5865
 1623THY      O40551   3.848   4.451   7.814  0.0950 -0.2844 -0.2849
 1623THY     HO40552   3.912   4.383   7.788 -0.3303 -0.1420 -1.7776
 1623THY    CA140553   3.744   4.434   7.719  0.4465  0.7426  0.3897
 1623THY    CA240554   3.628   4.520   7.715 -0.0189  0.5584  0.6376
 1623THY    CP140555   3.615   4.632   7.815 -0.0617  0.1806 -0.5600
 1623THY    HP140556   3.703   4.628   7.880 -0.3793  0.5432 -0.1053
 1623THY    CP240557   3.636   4.761   7.739  0.6190 -0.5633 -0.2724
 1623THY    HP240558   3.737   4.776   7.698  0.6570  2.3664  0.6696
 1623THY    HP340559   3.562   4.759   7.658  0.5552 -1.4267 -0.2014
 1623THY    HP440560   3.624   4.846   7.806 -0.8092 -0.0918 -1.0652
 1623THY    CP340561   3.487   4.633   7.900  0.5590 -0.0278 -0.2483
 1623THY    HP540562   3.492   4.541   7.960 -0.9242  1.0868  1.6760
 1623THY    HP640563   3.492   4.724   7.960 -1.3809 -1.3311  2.0690
 1623THY    HP740564   3.392   4.629   7.846  0.8772  0.0949 -0.8287
 1623THY    CA340565   3.519   4.486   7.636 -0.8811  0.2654 -0.9855
 1623THY    HA340566   3.429   4.545   7.644 -1.2266 -0.5524  2.3013
 1623THY    CA440567   3.523   4.369   7.567  0.1482 -0.0798 -0.5174
 1623THY    HA440568   3.438   4.330   7.513  1.1433 -1.8213 -0.9095
 1623THY    CA540569   3.632   4.275   7.577 -0.3648  0.4237  0.2190
 1623THY    CM140570   3.624   4.136   7.508 -0.0242 -0.2265 -0.2456
 1623THY    HM140571   3.516   4.124   7.493 -0.1126  1.0265 -0.7027
 1623THY    HM240572   3.678   4.141   7.413  1.0821  1.3006  0.4318
 1623THY    HM340573   3.655   4.058   7.579 -0.8395  0.9909  1.5487
 1623THY    CA640574   3.738   4.308   7.660 -0.4304  0.3581 -0.0584
 1623THY    HA640575   3.809   4.231   7.689 -2.3334 -1.5361 -0.1576
 1624THY      O40576   8.231   1.897   8.680  0.7905 -0.0399 -0.1566
 1624THY     HO40577   8.209   1.820   8.625 -0.0098 -0.9571  1.3784
 1624THY    CA140578   8.358   1.909   8.660 -0.5872 -0.3200  0.5308
 1624THY    CA240579   8.449   1.939   8.765  0.7676  0.3559  0.1223
 1624THY    CP140580   8.402   1.962   8.912  0.5629  0.0278 -0.7920
 1624THY    HP140581   8.298   1.931   8.925  1.1084 -0.5792  3.9352
 1624THY    CP240582   8.487   1.880   9.006  0.3189  0.0203 -0.9037
 1624THY    HP240583   8.518   1.787   8.958  0.6753 -0.3961  0.1147
 1624THY    HP340584   8.581   1.929   9.035 -0.4406  0.1389  1.5776
 1624THY    HP440585   8.434   1.862   9.100  1.5541 -1.0107 -0.3814
 1624THY    CP340586   8.423   2.111   8.936 -0.7100 -0.3464 -0.1536
 1624THY    HP540587   8.528   2.142   8.936 -0.8868  0.5772  2.9582
 1624THY    HP640588   8.391   2.172   8.851 -1.5663  1.7316  1.5845
 1624THY    HP740589   8.375   2.155   9.024 -0.1093 -0.6448  0.3281
 1624THY    CA340590   8.588   1.945   8.730  0.6575  0.6305 -0.1459
 1624THY    HA340591   8.657   1.968   8.810 -0.6881 -0.9963  1.5493
 1624THY    CA440592   8.631   1.926   8.598  0.1329  0.3312 -0.0624
 1624THY    HA440593   8.736   1.948   8.581  0.2802 -0.3863 -0.1199
 1624THY    CA540594   8.537   1.891   8.498 -0.2501  0.2073  0.2145
 1624THY    CM140595   8.574   1.883   8.347  0.5065  0.0065 -0.5902
 1624THY    HM140596   8.486   1.867   8.284  1.2349 -1.3623 -1.3062
 1624THY    HM240597   8.632   1.968   8.312 -0.6799  0.9842 -0.2424
 1624THY    HM340598   8.648   1.803   8.335 -0.3946 -1.1366  0.9867
 1624THY    CA640599   8.404   1.890   8.527  0.1224  0.1302 -0.9482
 1624THY    HA640600   8.332   1.862   8.450 -1.0829  0.5327  0.0027
 1625THY      O40601   2.213   6.989   3.297  0.1938  0.4197 -0.2562
 1625THY     HO40602   2.295   7.020   3.340 -0.0538  1.2571 -0.3724
 1625THY    CA140603   2.248   6.938   3.178  0.1589 -0.3902  0.0403
 1625THY    CA240604   2.186   6.987   3.053  0.1022 -0.0776  0.0323
 1625THY    CP140605   2.075   7.090   3.065  1.0948 -0.0656 -0.1752
 1625THY    HP140606   2.010   7.057   3.146  1.5554  1.0913  0.6894
 1625THY    CP240607   2.129   7.234   3.103 -0.1984  0.8765  0.1060
 1625THY    HP240608   2.194   7.263   3.020  0.2130 -1.1991 -0.3450
 1625THY    HP340609   2.047   7.304   3.123  1.7958  3.0696  1.0725
 1625THY    HP440610   2.196   7.235   3.190  0.3452 -0.0700 -0.2836
 1625THY    CP340611   1.987   7.112   2.939  0.0965 -0.4731 -0.4049
 1625THY    HP540612   1.895   7.161   2.972 -0.4938 -0.1394 -2.4313
 1625THY    HP640613   2.036   7.163   2.855  0.4261  1.4632  0.8932
 1625THY    HP740614   1.953   7.013   2.907 -1.2477  0.0967 -0.7795
 1625THY    CA340615   2.241   6.951   2.926 -0.2290 -0.1019 -0.1399
 1625THY    HA340616   2.205   6.981   2.828 -0.0519 -0.0721 -0.1962
 1625THY    CA440617   2.343   6.857   2.927 -0.1581  0.2541 -0.4581
 1625THY    HA440618   2.387   6.832   2.831  0.9623  0.7389 -0.0940
 1625THY    CA540619   2.407   6.815   3.047 -0.2503 -0.0429 -0.4391
 1625THY    CM140620   2.521   6.715   3.048 -0.1915 -0.5095  0.6041
 1625THY    HM140621   2.608   6.766   3.091 -0.5459  0.7364 -0.1112
 1625THY    HM240622   2.494   6.617   3.091  1.3956 -1.1649  0.1630
 1625THY    HM340623   2.539   6.679   2.947 -1.3809  0.3856  0.0509
 1625THY    CA640624   2.351   6.850   3.170  0.3028 -0.4989  0.2216
 1625THY    HA640625   2.388   6.803   3.261  2.2292 -0.0289 -0.2777
 1626THY      O40626   2.786   7.890   7.656 -0.2057 -0.3921 -0.3753
 1626THY     HO40627   2.775   7.806   7.705 -0.5617  1.2375  2.5962
 1626THY    CA140628   2.658   7.924   7.628 -0.7753 -1.0332  0.6184
 1626THY    CA240629   2.615   8.036   7.557  1.0706 -0.5286  0.0371
 1626THY    CP140630   2.721   8.126   7.491 -0.0459 -0.1447  0.1255
 1626THY    HP140631   2.824   8.101   7.517  0.1214  2.6460  2.7606
 1626THY    CP240632   2.713   8.119   7.337  0.1687  0.1065 -0.1758
 1626THY    HP240633   2.759   8.025   7.306 -2.4480 -1.6372  0.8669
 1626THY    HP340634   2.613   8.107   7.293  0.6983  0.2341 -1.4531
 1626THY    HP440635   2.762   8.198   7.279  1.4775 -1.7124 -1.6523
 1626THY    CP340636   2.702   8.274   7.531 -0.2901  0.1441  0.3499
 1626THY    HP540637   2.652   8.291   7.626 -1.0493 -0.9288  0.1728
 1626THY    HP640638   2.797   8.324   7.509 -0.1926 -0.0440  0.3341
 1626THY    HP740639   2.631   8.315   7.458  0.4584  0.0343 -0.4641
 1626THY    CA340640   2.480   8.064   7.549 -0.1438 -0.0742  0.9966
 1626THY    HA340641   2.443   8.153   7.498  1.9222  1.2421  1.6798
 1626THY    CA440642   2.387   7.963   7.590 -0.0522 -0.1306 -0.2425
 1626THY    HA440643   2.280   7.973   7.572 -0.1122  1.1829  0.6678
 1626THY    CA540644   2.432   7.852   7.654 -0.1480  0.3587 -0.1694
 1626THY    CM140645   2.333   7.744   7.700 -0.9194  0.6201 -0.2265
 1626THY    HM140646   2.332   7.665   7.624  2.9546 -1.6243  1.6977
 1626THY    HM240647   2.362   7.691   7.792 -1.2531  0.2104 -0.3511
 1626THY    HM340648   2.236   7.789   7.725 -0.6404  0.6186  0.9413
 1626THY    CA640649   2.566   7.831   7.670 -0.2418  0.3903 -0.7495
 1626THY    HA640650   2.591   7.739   7.723  0.1359  0.7970 -0.2067
 1627THY      O40651   6.032   3.040   2.950  0.5251  0.1540  0.2135
 1627THY     HO40652   5.949   3.072   2.990  0.4496  0.7770 -0.4218
 1627THY    CA140653   6.103   3.002   3.057  0.2641  0.7301 -0.2403
 1627THY    CA240654   6.236   2.947   3.045  0.9844 -0.0590  0.0649
 1627THY    CP140655   6.296   2.914   2.907  0.7037  0.1625  0.5618
 1627THY    HP140656   6.249   2.989   2.842  0.2425  1.0819  1.9269
 1627THY    CP240657   6.441   2.923   2.880  1.0182  0.0517  0.0112
 1627THY    HP240658   6.461   2.921   2.772  0.1699 -0.4524 -0.1441
 1627THY    HP340659   6.471   3.021   2.918 -2.8474  1.7648 -0.7995
 1627THY    HP440660   6.498   2.839   2.921  1.1211  0.0811 -0.0721
 1627THY    CP340661   6.254   2.773   2.860  0.5013  0.3111  0.1892
 1627THY    HP540662   6.282   2.685   2.919  0.8682 -0.1336 -0.6352
 1627THY    HP640663   6.146   2.775   2.841  0.0095 -0.6605  2.5704
 1627THY    HP740664   6.293   2.748   2.761  0.1971  1.8591 -0.3502
 1627THY    CA340665   6.307   2.913   3.163 -0.3561 -0.2603  0.1010
 1627THY    HA340666   6.402   2.861   3.160 -0.1177  0.1964 -0.8139
 1627THY    CA440667   6.242   2.926   3.285  0.1676  0.2805 -0.3830
 1627THY    HA440668   6.295   2.919   3.380 -3.1751  2.0164  1.8294
 1627THY    CA540669   6.101   2.959   3.295 -0.4911 -0.2166 -0.4761
 1627THY    CM140670   6.041   2.980   3.426 -0.2230 -0.0127 -0.5863
 1627THY    HM140671   5.931   2.972   3.419 -0.3241  2.2786 -3.3032
 1627THY    HM240672   6.079   2.899   3.489  0.8537  1.9809  1.4597
 1627THY    HM340673   6.068   3.078   3.466 -0.8048 -0.2634  0.4585
 1627THY    CA640674   6.038   3.011   3.182 -0.1787  0.5169  0.3001
 1627THY    HA640675   5.933   3.039   3.178 -1.8134 -4.7267 -0.3914
 1628THY      O40676   2.708   7.129   1.266  0.1787 -0.2421 -0.2748
 1628THY     HO40677   2.799   7.098   1.257 -0.1510 -1.2143 -0.3736
 1628THY    CA140678   2.664   7.136   1.141  0.4243  0.3416  0.9611
 1628THY    CA240679   2.529   7.156   1.120  0.1503  0.2009 -0.1625
 1628THY    CP140680   2.438   7.122   1.236 -0.8271 -0.3551  0.1083
 1628THY    HP140681   2.468   7.028   1.285  1.8304  1.4593  2.2607
 1628THY    CP240682   2.432   7.241   1.342  0.3172 -0.5307 -0.7161
 1628THY    HP240683   2.514   7.312   1.356 -1.5600  1.3342  1.8875
 1628THY    HP340684   2.346   7.305   1.317  0.9878  0.8419  0.3588
 1628THY    HP440685   2.395   7.196   1.435  0.0026 -2.2028 -1.6053
 1628THY    CP340686   2.296   7.083   1.189  0.3107 -0.4309  0.7765
 1628THY    HP540687   2.247   7.173   1.148 -0.8180 -1.5189 -0.3311
 1628THY    HP640688   2.303   7.014   1.105  0.6596  1.0656 -0.4811
 1628THY    HP740689   2.233   7.054   1.274  2.7395 -0.2996  2.7387
 1628THY    CA340690   2.485   7.189   0.992  0.1080 -1.0547  0.2627
 1628THY    HA340691   2.379   7.205   0.973  0.2390 -0.8931 -0.3512
 1628THY    CA440692   2.574   7.207   0.883  0.2224  0.2575 -0.4873
 1628THY    HA440693   2.538   7.213   0.781 -0.3445 -1.1076 -0.3810
 1628THY    CA540694   2.711   7.196   0.910  0.0189  0.5080  0.6577
 1628THY    CM140695   2.802   7.202   0.794  0.8555 -0.2723 -0.3913
 1628THY    HM140696   2.759   7.185   0.694  0.3540  1.4074 -0.4786
 1628THY    HM240697   2.847   7.300   0.780  0.4118 -0.1400 -0.9354
 1628THY    HM340698   2.878   7.123   0.800 -0.2535 -1.3346 -0.0057
 1628THY    CA640699   2.756   7.167   1.040  0.1459 -0.2833 -0.0176
 1628THY    HA640700   2.863   7.150   1.039  0.1412 -0.3588 -1.3876
 1629THY      O40701   3.307   0.946   0.888  0.3990  0.6206 -0.9049
 1629THY     HO40702   3.215   0.937   0.920  0.2706 -0.2468 -1.4807
 1629THY    CA140703   3.353   0.818   0.897 -0.3894  1.0655  0.0463
 1629THY    CA240704   3.475   0.785   0.836  0.2913  0.2792 -1.1464
 1629THY    CP140705   3.560   0.892   0.765  0.2368  0.1232 -0.2430
 1629THY    HP140706   3.488   0.962   0.719 -0.2528  0.5469  1.1233
 1629THY    CP240707   3.643   0.971   0.875  0.8915 -0.0435  0.1998
 1629THY    HP240708   3.723   0.910   0.920  0.8650 -2.6700 -2.9467
 1629THY    HP340709   3.688   1.054   0.820  0.4115 -0.5387 -0.9671
 1629THY    HP440710   3.578   1.019   0.949  1.0229  0.4858 -0.0243
 1629THY    CP340711   3.653   0.849   0.653  0.4493  0.7356  0.7557
 1629THY    HP540712   3.703   0.938   0.613 -0.1221  1.1105  0.8726
 1629THY    HP640713   3.712   0.759   0.677 -0.5221  0.2171  1.2719
 1629THY    HP740714   3.588   0.812   0.573  1.9632 -0.0693 -0.1596
 1629THY    CA340715   3.509   0.649   0.844  0.2930 -0.4000  0.5712
 1629THY    HA340716   3.602   0.618   0.798 -1.4256 -0.5978 -3.1091
 1629THY    CA440717   3.445   0.556   0.930  0.8937 -0.4196 -0.0858
 1629THY    HA440718   3.488   0.456   0.933 -0.6893 -1.2217 -1.9434
 1629THY    CA540719   3.324   0.592   0.991 -0.1598 -0.3259 -0.6396
 1629THY    CM140720   3.244   0.487   1.071 -0.4149  0.5557 -0.2168
 1629THY    HM140721   3.288   0.387   1.067  0.1215  0.7828 -0.0745
 1629THY    HM240722   3.220   0.517   1.174 -1.8325  0.1701 -0.4064
 1629THY    HM340723   3.150   0.469   1.016 -1.6438 -1.7224  2.3700
 1629THY    CA640724   3.282   0.724   0.972  0.0842  1.3251 -0.5337
 1629THY    HA640725   3.196   0.758   1.028 -1.1040 -1.0969 -0.7742
 1630THY      O40726   2.199   5.224   0.597 -0.4068 -0.2886  0.5432
 1630THY     HO40727   2.119   5.195   0.551 -0.3849 -0.9299  0.8962
 1630THY    CA140728   2.272   5.311   0.511 -0.5564  0.2336 -0.0592
 1630THY    CA240729   2.383   5.383   0.565  1.0347  0.8355 -0.0544
 1630THY    CP140730   2.400   5.394   0.715 -0.1593  0.4022 -0.3882
 1630THY    HP140731   2.301   5.395   0.762 -0.2261 -1.1839 -0.4151
 1630THY    CP240732   2.477   5.269   0.764  0.5907  0.0583 -0.0259
 1630THY    HP240733   2.446   5.248   0.867 -0.8256  1.9691 -0.0050
 1630THY    HP340734   2.466   5.177   0.706  0.1242  0.2297 -0.2198
 1630THY    HP440735   2.584   5.288   0.754  0.5891 -0.4146 -1.0374
 1630THY    CP340736   2.475   5.521   0.752 -0.2199  0.1565 -0.0721
 1630THY    HP540737   2.443   5.612   0.699  3.2292  1.2195 -0.5514
 1630THY    HP640738   2.464   5.538   0.860  0.5668  0.8335 -0.0953
 1630THY    HP740739   2.580   5.507   0.726  0.0491 -0.5207  1.2906
 1630THY    CA340740   2.477   5.443   0.479 -0.4257 -0.0041  0.8475
 1630THY    HA340741   2.570   5.489   0.512  0.9371  0.1027 -2.6829
 1630THY    CA440742   2.459   5.451   0.344 -0.2376  0.5993 -0.4074
 1630THY    HA440743   2.535   5.503   0.288 -0.9716 -0.4378 -2.4955
 1630THY    CA540744   2.349   5.373   0.288 -0.3957 -0.3729 -0.1516
 1630THY    CM140745   2.335   5.376   0.139 -0.2938 -0.0440  0.4116
 1630THY    HM140746   2.293   5.470   0.104  1.1214  0.3552 -0.2527
 1630THY    HM240747   2.434   5.362   0.093 -1.7114 -0.8406 -2.6523
 1630THY    HM340748   2.272   5.299   0.093  0.6320  0.2333 -1.3919
 1630THY    CA640749   2.260   5.301   0.370 -0.2414 -0.9839  0.0058
 1630THY    HA640750   2.199   5.225   0.323 -1.1490 -0.7321  0.7624
 1631THY      O40751   7.447   8.932   9.313 -0.4657  0.5670  0.4530
 1631THY     HO40752   7.462   9.025   9.288 -1.0540  0.4158 -0.5326
 1631THY    CA140753   7.514   8.855   9.220  0.6550 -1.1744  0.4173
 1631THY    CA240754   7.541   8.718   9.241 -0.0939  0.0142  0.2154
 1631THY    CP140755   7.471   8.650   9.359 -0.2229  0.4504  0.5574
 1631THY    HP140756   7.373   8.694   9.383 -0.2013  0.9427 -0.2373
 1631THY    CP240757   7.461   8.499   9.331 -0.0102 -0.8311 -0.0994
 1631THY    HP240758   7.427   8.441   9.417 -0.9810 -0.5132 -0.2560
 1631THY    HP340759   7.385   8.485   9.253  2.1402 -1.5015 -2.1861
 1631THY    HP440760   7.553   8.457   9.289  0.5571  1.6736 -1.5896
 1631THY    CP340761   7.547   8.682   9.490 -0.4583 -0.2807  0.4495
 1631THY    HP540762   7.651   8.646   9.487 -0.8633 -1.6441  1.4237
 1631THY    HP640763   7.536   8.789   9.509 -0.7065 -0.4233  1.1200
 1631THY    HP740764   7.496   8.623   9.567 -1.1402  0.3157  0.4542
 1631THY    CA340765   7.638   8.656   9.151  0.2772  0.0730 -0.2532
 1631THY    HA340766   7.684   8.560   9.175  2.3027  0.6998 -1.4532
 1631THY    CA440767   7.690   8.722   9.043  0.0552  0.0038 -0.0897
 1631THY    HA440768   7.770   8.680   8.984  3.5057  3.5333  1.5862
 1631THY    CA540769   7.654   8.850   9.022  0.8327 -0.5848  0.1479
 1631THY    CM140770   7.718   8.917   8.907  0.2142 -0.1427 -0.1626
 1631THY    HM140771   7.663   9.008   8.880 -3.1570 -1.5645  1.3558
 1631THY    HM240772   7.824   8.935   8.929  1.0231 -1.0722 -2.9079
 1631THY    HM340773   7.718   8.849   8.822  1.1789 -2.2478  1.4197
 1631THY    CA640774   7.574   8.919   9.108  1.2567 -0.1992  0.1560
 1631THY    HA640775   7.561   9.026   9.103 -0.4800 -0.2134  2.3878
 1632THY      O40776   1.429   9.049   7.699  0.7042 -0.0641  0.0703
 1632THY     HO40777   1.339   9.017   7.719 -0.6285  3.0650 -0.2984
 1632THY    CA140778   1.508   9.015   7.802  0.2296 -0.6757 -0.9523
 1632THY    CA240779   1.644   9.059   7.817 -0.6734 -0.1217 -0.4829
 1632THY    CP140780   1.706   9.148   7.707 -0.2034 -0.7546  1.0123
 1632THY    HP140781   1.635   9.225   7.675  0.8400 -1.0200 -2.2504
 1632THY    CP240782   1.838   9.225   7.737  0.5165  0.1693  0.1870
 1632THY    HP240783   1.812   9.276   7.830 -0.7457  1.0436 -0.6048
 1632THY    HP340784   1.928   9.167   7.760 -0.1400 -1.2977 -0.7954
 1632THY    HP440785   1.862   9.302   7.662  1.8032  0.5469  0.9575
 1632THY    CP340786   1.740   9.063   7.584  0.3972 -0.4528 -0.0239
 1632THY    HP540787   1.677   8.974   7.572  1.3595 -1.0958 -0.4625
 1632THY    HP640788   1.754   9.115   7.488  0.5101  0.5815  0.5446
 1632THY    HP740789   1.840   9.019   7.599  1.1512 -0.0481 -3.1285
 1632THY    CA340790   1.713   9.025   7.933 -0.6637 -0.1979  0.3770
 1632THY    HA340791   1.809   9.070   7.957  0.3684 -1.7315 -0.6474
 1632THY    CA440792   1.648   8.948   8.027  0.1752  0.2038 -0.6881
 1632THY    HA440793   1.696   8.923   8.121 -0.7963  0.9464  0.0285
 1632THY    CA540794   1.522   8.903   8.015  0.6268  0.0008 -0.6020
 1632THY    CM140795   1.463   8.826   8.127  0.0482  0.8587 -0.1480
 1632THY    HM140796   1.432   8.894   8.207  1.2472  1.2491  0.0091
 1632THY    HM240797   1.381   8.762   8.092 -1.9281  1.9377  2.2397
 1632THY    HM340798   1.532   8.753   8.171 -1.2352 -1.0877 -1.2159
 1632THY    CA640799   1.450   8.936   7.904 -0.3079  0.2902 -0.0984
 1632THY    HA640800   1.346   8.908   7.894  0.3175 -2.7173  1.0589
 1633THY      O40801   0.121   8.111   5.811  0.1962  0.3891  0.2595
 1633THY     HO40802   0.049   8.123   5.875 -2.1158 -0.5141 -1.9567
 1633THY    CA140803   0.095   7.987   5.764 -0.5445 -0.6604 -0.5948
 1633THY    CA240804   0.161   7.924   5.655  0.5923  0.5655 -0.4312
 1633THY    CP140805   0.272   7.995   5.581  1.0339 -0.4246  0.4037
 1633THY    HP140806   0.259   8.101   5.606 -0.6795 -0.8187  1.3940
 1633THY    CP240807   0.411   7.950   5.626 -0.2267  0.5337 -0.8706
 1633THY    HP240808   0.486   8.028   5.605  1.4324 -0.9335 -0.6654
 1633THY    HP340809   0.404   7.931   5.733  0.1331  1.5791 -0.6536
 1633THY    HP440810   0.436   7.859   5.570 -0.6310 -0.8772  1.1513
 1633THY    CP340811   0.260   7.994   5.426  0.5562 -0.9660  0.1722
 1633THY    HP540812   0.177   8.057   5.391  0.7062 -1.6123 -1.4122
 1633THY    HP640813   0.348   8.046   5.385 -0.5895  0.4612 -0.5670
 1633THY    HP740814   0.249   7.896   5.380 -1.1744 -1.1666  0.9326
 1633THY    CA340815   0.113   7.792   5.615 -0.1676 -0.8841 -0.4962
 1633THY    HA340816   0.153   7.738   5.530 -0.7534  3.5151 -3.9376
 1633THY    CA440817   0.007   7.735   5.684 -0.2132  0.4555 -0.4229
 1633THY    HA440818  -0.032   7.644   5.638  4.7999 -2.3253  0.1462
 1633THY    CA540819  -0.055   7.800   5.792  0.4924  0.9308 -0.8792
 1633THY    CM140820  -0.170   7.731   5.866 -0.2584  0.0403 -0.4858
 1633THY    HM140821  -0.265   7.737   5.811 -1.0770 -1.6889  0.6444
 1633THY    HM240822  -0.140   7.626   5.868 -0.2742 -0.1340 -3.4883
 1633THY    HM340823  -0.179   7.769   5.968  0.7962 -1.7339  0.2975
 1633THY    CA640824  -0.013   7.930   5.829 -0.3186  0.9262  0.2214
 1633THY    HA640825  -0.067   7.981   5.909 -2.6417 -1.9401  0.6801
 1634THY      O40826   0.679   9.815   7.761  0.1005  0.0810  0.2887
 1634THY     HO40827   0.741   9.881   7.796 -0.1709  0.9687 -0.8443
 1634THY    CA140828   0.727   9.734   7.664  0.4857 -0.1248  0.1056
 1634THY    CA240829   0.657   9.623   7.618  0.4509  0.0108 -0.3129
 1634THY    CP140830   0.526   9.586   7.685 -0.8331 -0.3676 -0.9165
 1634THY    HP140831   0.530   9.641   7.780  2.6524  1.6899 -2.0949
 1634THY    CP240832   0.406   9.649   7.609 -0.2506  0.4868  0.3315
 1634THY    HP240833   0.402   9.757   7.624  1.1925  0.5972  0.0597
 1634THY    HP340834   0.413   9.626   7.502  0.5213  0.9785  0.2725
 1634THY    HP440835   0.312   9.601   7.639 -0.2502  1.4599  1.9646
 1634THY    CP340836   0.504   9.432   7.725 -0.0112 -0.0809 -0.1959
 1634THY    HP540837   0.595   9.388   7.765  0.3003 -1.2439 -2.0615
 1634THY    HP640838   0.433   9.426   7.809  1.1212  2.7317  1.0620
 1634THY    HP740839   0.475   9.375   7.636 -2.9900 -0.9917  1.2211
 1634THY    CA340840   0.707   9.555   7.507 -0.6535 -0.1409  0.3974
 1634THY    HA340841   0.653   9.467   7.473 -1.4950  0.4922  0.0215
 1634THY    CA440842   0.823   9.600   7.439 -0.8770  0.0679 -0.0297
 1634THY    HA440843   0.879   9.544   7.364  0.0297  0.8273  0.0513
 1634THY    CA540844   0.900   9.712   7.484  1.2947 -0.1701 -0.2677
 1634THY    CM140845   1.020   9.763   7.416 -0.2934 -0.1268  0.6344
 1634THY    HM140846   1.053   9.715   7.324 -0.0576 -0.0035  0.6545
 1634THY    HM240847   1.009   9.872   7.405  0.8869 -0.0506  0.0391
 1634THY    HM340848   1.103   9.763   7.488  0.2759 -0.5161 -0.0165
 1634THY    CA640849   0.847   9.777   7.599  0.7335  0.1290  0.4294
 1634THY    HA640850   0.897   9.864   7.639 -0.7101  1.3895 -0.4045
 1635THY      O40851   3.203   4.135   5.458  0.4791  0.8385  0.1541
 1635THY     HO40852   3.254   4.084   5.524  0.4546  0.5280 -0.0638
 1635THY    CA140853   3.115   4.219   5.521  0.2237 -0.6049  0.1704
 1635THY    CA240854   3.048   4.329   5.461 -0.1261 -0.1172  0.5044
 1635THY    CP140855   3.080   4.359   5.316 -0.0725 -0.0215 -0.1057
 1635THY    HP140856   3.092   4.268   5.257  2.9975 -0.2524  0.7248
 1635THY    CP240857   2.975   4.445   5.245  0.2572 -0.2182  0.3894
 1635THY    HP240858   2.873   4.405   5.247 -1.0219  2.7689  1.7223
 1635THY    HP340859   2.977   4.547   5.285 -1.7142 -0.4433  1.1638
 1635THY    HP440860   3.000   4.464   5.140  0.2967  0.3136  0.4883
 1635THY    CP340861   3.220   4.433   5.293 -0.1916  0.0552  0.0742
 1635THY    HP540862   3.221   4.527   5.350  1.6038  1.6695 -2.4479
 1635THY    HP640863   3.303   4.366   5.316  0.6478  1.1503  0.3110
 1635THY    HP740864   3.224   4.460   5.187 -0.7973 -0.1467 -0.0040
 1635THY    CA340865   2.962   4.406   5.538  0.1870  0.2220  0.0832
 1635THY    HA340866   2.911   4.492   5.496  2.7508  2.5351  1.4163
 1635THY    CA440867   2.938   4.373   5.669  0.3257  0.6493 -0.0804
 1635THY    HA440868   2.867   4.428   5.730  0.3060  0.0393  0.4523
 1635THY    CA540869   3.004   4.270   5.735  0.3672  0.2627  0.2764
 1635THY    CM140870   2.990   4.241   5.883  0.3220 -0.0245 -0.3180
 1635THY    HM140871   2.972   4.319   5.958 -0.2064 -1.5909  1.2698
 1635THY    HM240872   2.915   4.163   5.900  1.5221 -0.8103  1.7682
 1635THY    HM340873   3.081   4.189   5.916  0.4370 -0.3127 -1.0635
 1635THY    CA640874   3.089   4.197   5.656 -0.0415 -0.1946  0.2078
 1635THY    HA640875   3.136   4.110   5.702 -0.1480  1.1078  3.0035
 1636THY      O40876   8.211   7.386   1.584  0.6521  0.2951  0.3175
 1636THY     HO40877   8.166   7.443   1.649 -2.9774 -1.5012 -0.3321
 1636THY    CA140878   8.125   7.398   1.484 -0.5485  0.2220 -0.1644
 1636THY    CA240879   8.123   7.315   1.375 -0.5987  0.3346  0.1187
 1636THY    CP140880   8.224   7.212   1.338 -0.0825 -0.1670 -0.1896
 1636THY    HP140881   8.284   7.202   1.429  0.1597  0.8893 -0.2276
 1636THY    CP240882   8.162   7.074   1.307  0.7975 -0.1780 -0.3843
 1636THY    HP240883   8.085   7.075   1.228 -0.5663 -0.3499  0.8986
 1636THY    HP340884   8.244   7.009   1.274  1.1196  0.5798 -1.1050
 1636THY    HP440885   8.115   7.040   1.400  1.5285  0.4941  0.2360
 1636THY    CP340886   8.328   7.253   1.224  0.5922  0.3141 -0.0325
 1636THY    HP540887   8.326   7.358   1.193 -0.7359  0.7060  1.2307
 1636THY    HP640888   8.422   7.199   1.239 -0.0834 -0.4829  1.6084
 1636THY    HP740889   8.290   7.209   1.132 -0.8380 -0.1161  0.7334
 1636THY    CA340890   8.027   7.334   1.273  0.0400  0.5933  0.1617
 1636THY    HA340891   8.017   7.279   1.180 -1.4267 -0.2224  0.7812
 1636THY    CA440892   7.939   7.440   1.288 -0.2243  0.0707  0.3515
 1636THY    HA440893   7.866   7.460   1.210 -0.9270  0.1756  1.0211
 1636THY    CA540894   7.936   7.523   1.399  0.0871  0.0314 -0.4531
 1636THY    CM140895   7.841   7.633   1.421 -0.0657  0.1508 -0.0153
 1636THY    HM140896   7.792   7.655   1.326 -2.3537  0.7176  1.2309
 1636THY    HM240897   7.775   7.598   1.501  1.5881 -0.6690  1.0389
 1636THY    HM340898   7.889   7.724   1.461 -0.9865 -0.2053  2.0312
 1636THY    CA640899   8.036   7.504   1.498 -0.0666  0.1325 -0.7209
 1636THY    HA640900   8.019   7.559   1.590 -1.5477  2.2281 -2.1535
 1637THY      O40901   8.146   6.979   2.617  0.5663 -0.2837  0.1523
 1637THY     HO40902   8.188   6.893   2.636 -1.5881 -1.5361 -0.4838
 1637THY    CA140903   8.039   6.942   2.536  0.3497 -0.0779 -0.4278
 1637THY    CA240904   7.915   7.003   2.553 -0.5454  0.9295  0.2916
 1637THY    CP140905   7.892   7.102   2.665 -0.2668  0.1282 -0.4347
 1637THY    HP140906   7.969   7.082   2.740 -0.9033  3.0722  1.1047
 1637THY    CP240907   7.887   7.251   2.631 -0.5111 -0.6483 -0.2110
 1637THY    HP240908   7.788   7.295   2.612  0.0664  0.6212 -0.3636
 1637THY    HP340909   7.927   7.300   2.721 -1.0964 -1.7387  0.6586
 1637THY    HP440910   7.965   7.290   2.564  1.1314  1.6117  2.7448
 1637THY    CP340911   7.759   7.080   2.745  0.0936 -0.9137 -0.0516
 1637THY    HP540912   7.748   7.152   2.827  2.1685 -0.5801 -0.0059
 1637THY    HP640913   7.681   7.083   2.668 -1.0446  0.0184  1.0975
 1637THY    HP740914   7.749   6.979   2.784 -1.2172 -2.1162 -3.1432
 1637THY    CA340915   7.820   6.976   2.448 -0.4881 -0.5017 -0.3034
 1637THY    HA340916   7.728   7.031   2.431 -1.4763 -2.5717 -2.0775
 1637THY    CA440917   7.847   6.887   2.339 -0.0212  0.3303  0.9310
 1637THY    HA440918   7.772   6.878   2.261 -0.1603  0.2370  1.0745
 1637THY    CA540919   7.975   6.834   2.329 -0.0005 -0.1985 -0.1244
 1637THY    CM140920   8.027   6.772   2.197 -0.6468  0.0299  0.2315
 1637THY    HM140921   8.016   6.846   2.117 -0.9670  0.1703  0.4023
 1637THY    HM240922   8.129   6.732   2.206 -1.6632 -2.6830  0.5841
 1637THY    HM340923   7.975   6.677   2.182 -1.8264  0.4377  1.5823
 1637THY    CA640924   8.069   6.862   2.428  0.6440  0.0643  0.3687
 1637THY    HA640925   8.173   6.834   2.415  1.3020  2.0071  1.0242
 1638THY      O40926   4.666   4.907   1.554 -0.5939 -0.2323  0.3416
 1638THY     HO40927   4.752   4.938   1.522  0.2935 -1.2718  1.6036
 1638THY    CA140928   4.639   4.968   1.671  0.2554 -0.2491 -0.1659
 1638THY    CA240929   4.530   4.923   1.753  0.5734  0.5551 -0.5917
 1638THY    CP140930   4.456   4.795   1.727  0.4259  0.0342 -0.1215
 1638THY    HP140931   4.492   4.752   1.633 -0.5074  2.2690 -1.5866
 1638THY    CP240932   4.483   4.694   1.839 -0.2803  0.2074  1.1932
 1638THY    HP240933   4.436   4.731   1.931  0.2420  1.4356  0.9834
 1638THY    HP340934   4.446   4.601   1.793 -1.9198  1.3092  0.1679
 1638THY    HP440935   4.586   4.693   1.876  0.1001  2.4212  0.3317
 1638THY    CP340936   4.305   4.824   1.715  0.2801 -0.1232  0.0445
 1638THY    HP540937   4.302   4.903   1.639 -1.1839  1.5611  1.7439
 1638THY    HP640938   4.253   4.733   1.684  0.6752 -1.0819  2.0504
 1638THY    HP740939   4.260   4.861   1.808 -0.2855 -0.2019 -0.1965
 1638THY    CA340940   4.506   4.991   1.874  0.4145  0.2578 -0.3074
 1638THY    HA340941   4.439   4.954   1.952  1.8237  0.2508  0.9475
 1638THY    CA440942   4.577   5.109   1.902 -0.7156  0.3331  0.8286
 1638THY    HA440943   4.550   5.168   1.990  0.2882  1.1320  0.6307
 1638THY    CA540944   4.668   5.163   1.809  0.7171 -0.4118 -0.5307
 1638THY    CM140945   4.739   5.293   1.844 -0.7250 -0.5707 -0.1754
 1638THY    HM140946   4.831   5.258   1.893 -1.2800 -1.6268  0.1334
 1638THY    HM240947   4.771   5.349   1.755 -3.0744  1.5856  0.2306
 1638THY    HM340948   4.681   5.355   1.914  0.3332 -0.2521  0.4462
 1638THY    CA640949   4.710   5.083   1.698  0.1627  0.0731 -0.5499
 1638THY    HA640950   4.775   5.122   1.620 -0.3570 -1.0562 -1.5724
 1639THY      O40951   3.197   2.137   7.430  0.3797 -0.1110  0.1204
 1639THY     HO40952   3.119   2.194   7.439  0.6110  0.2270  0.0064
 1639THY    CA140953   3.221   2.092   7.558  0.0184  0.2107  0.4763
 1639THY    CA240954   3.332   2.016   7.591 -0.5116 -0.2667 -0.0515
 1639THY    CP140955   3.432   1.984   7.482  0.2558 -0.3485 -0.2114
 1639THY    HP140956   3.371   1.966   7.393 -0.5883  2.3634 -0.2641
 1639THY    CP240957   3.529   2.108   7.466 -0.7255 -0.2554  0.0893
 1639THY    HP240958   3.604   2.073   7.394 -0.5204  0.8681 -0.2462
 1639THY    HP340959   3.477   2.196   7.427 -0.5266 -0.7613 -1.3621
 1639THY    HP440960   3.571   2.137   7.563  2.9782  0.2560 -1.5239
 1639THY    CP340961   3.511   1.854   7.508 -0.0691 -0.2484 -1.2346
 1639THY    HP540962   3.452   1.781   7.564  2.1354 -1.1880  0.0010
 1639THY    HP640963   3.538   1.811   7.410 -2.4714 -1.2131 -1.5370
 1639THY    HP740964   3.593   1.876   7.577 -1.6455 -0.9423  0.9504
 1639THY    CA340965   3.356   1.989   7.724  0.7224  0.7569 -0.1319
 1639THY    HA340966   3.453   1.952   7.756  0.2576 -0.7309 -0.3303
 1639THY    CA440967   3.267   2.036   7.819  0.1968 -0.3834 -0.2991
 1639THY    HA440968   3.286   2.017   7.924 -1.6959  1.5586  0.4674
 1639THY    CA540969   3.144   2.094   7.781 -0.9893 -0.3161  0.0675
 1639THY    CM140970   3.039   2.111   7.889 -0.0944 -0.3057  0.6196
 1639THY    HM140971   2.999   2.013   7.919 -1.3611  0.4426  1.4996
 1639THY    HM240972   3.068   2.164   7.980  1.0145 -2.3021  1.4906
 1639THY    HM340973   2.955   2.161   7.840 -0.0189  0.2227  1.0204
 1639THY    CA640974   3.126   2.123   7.649 -0.0769 -0.0084  0.2576
 1639THY    HA640975   3.030   2.157   7.612 -0.5020 -1.9510 -0.5407
 1640THY      O40976   9.386   2.640   2.831 -0.0992  0.1042 -0.2509
 1640THY     HO40977   9.384   2.543   2.841  1.0255  0.1227  0.3440
 1640THY    CA140978   9.457   2.663   2.717 -0.1670  0.0635 -0.3484
 1640THY    CA240979   9.517   2.786   2.687  0.3875 -0.3581 -0.3809
 1640THY    CP140980   9.518   2.902   2.784  0.3056 -0.4685 -0.0184
 1640THY    HP140981   9.474   2.862   2.876  1.8816 -1.7953  0.2233
 1640THY    CP240982   9.660   2.940   2.837 -0.1315  1.0830 -0.4708
 1640THY    HP240983   9.676   2.873   2.922 -4.1128  0.6451  0.0967
 1640THY    HP340984   9.745   2.922   2.770  0.5154  1.4137  0.2365
 1640THY    HP440985   9.664   3.042   2.878  0.5067  0.3755  1.3265
 1640THY    CP340986   9.452   3.022   2.731 -0.1799 -0.3905 -0.7271
 1640THY    HP540987   9.494   3.067   2.640 -0.6046  3.7592  0.9114
 1640THY    HP640988   9.349   3.000   2.702 -0.4672  1.2254 -1.0473
 1640THY    HP740989   9.452   3.108   2.800 -0.1710 -0.0492 -1.1450
 1640THY    CA340990   9.587   2.794   2.562 -0.8073  0.5876 -1.0307
 1640THY    HA340991   9.638   2.883   2.526  0.4006 -0.3384 -1.6757
 1640THY    CA440992   9.592   2.684   2.475 -0.7586 -0.0580  0.2025
 1640THY    HA440993   9.659   2.689   2.389 -1.1572  0.3348 -0.0879
 1640THY    CA540994   9.542   2.556   2.511  0.1723 -0.4348  0.0528
 1640THY    CM140995   9.556   2.447   2.420  0.1124 -0.2045  0.1726
 1640THY    HM140996   9.485   2.462   2.338  1.4323  3.2327 -0.4955
 1640THY    HM240997   9.661   2.438   2.393  1.1811  0.6568  3.5002
 1640THY    HM340998   9.526   2.357   2.476  1.0829  0.1916  1.3632
 1640THY    CA640999   9.480   2.548   2.631 -0.3089 -0.2072  0.2354
 1640THY    HA641000   9.442   2.452   2.662 -0.0755 -0.3192  0.1744
 1641THY      O41001   1.422   6.196   9.832 -0.0039  0.2570  0.4123
 1641THY     HO41002   1.453   6.176   9.922 -1.6682  1.4344  1.2871
 1641THY    CA141003   1.499   6.141   9.742 -0.3831  1.3697 -0.2229
 1641THY    CA241004   1.468   6.131   9.605 -0.1249  0.3158 -0.0074
 1641THY    CP141005   1.338   6.192   9.553  0.3802 -0.3337 -0.5542
 1641THY    HP141006   1.259   6.169   9.625  1.4820  0.3128  0.9379
 1641THY    CP241007   1.350   6.347   9.537 -0.6428  0.6799 -0.8715
 1641THY    HP241008   1.266   6.383   9.477 -1.7062  1.5501  1.0421
 1641THY    HP341009   1.336   6.394   9.635 -1.1794 -0.4713 -0.3751
 1641THY    HP441010   1.438   6.376   9.479 -1.3935 -0.6711 -2.7750
 1641THY    CP341011   1.288   6.135   9.418  0.0380  0.1440 -1.0603
 1641THY    HP541012   1.367   6.153   9.344 -0.1573  0.6491 -1.1494
 1641THY    HP641013   1.272   6.026   9.418  0.3225  0.1005 -0.7524
 1641THY    HP741014   1.200   6.184   9.374 -0.4782 -0.9415 -1.2719
 1641THY    CA341015   1.564   6.063   9.516 -0.2903  1.0349  0.1995
 1641THY    HA341016   1.531   6.041   9.415 -0.0053 -0.5297  0.4218
 1641THY    CA441017   1.679   6.006   9.568  0.4652  0.3135 -0.7955
 1641THY    HA441018   1.738   5.940   9.505  1.9036  1.4731 -0.7234
 1641THY    CA541019   1.707   6.032   9.697 -0.1348  0.0082  0.6226
 1641THY    CM141020   1.837   5.988   9.755  0.3044  0.4116  0.0894
 1641THY    HM141021   1.924   5.991   9.689 -0.9920 -1.0119 -1.8060
 1641THY    HM241022   1.857   6.052   9.841  0.5340  2.8945 -1.7016
 1641THY    HM341023   1.833   5.884   9.788  1.3675  0.2977 -0.1137
 1641THY    CA641024   1.624   6.101   9.782 -0.2533 -0.7179 -0.3787
 1641THY    HA641025   1.646   6.118   9.887  0.7755 -0.6662 -0.5949
 1642THY      O41026   4.765   6.995   9.117 -0.0421  0.4801 -0.3024
 1642THY     HO41027   4.799   6.909   9.088 -0.5673  0.1689 -0.0016
 1642THY    CA141028   4.874   7.084   9.121  0.1959  0.1027 -0.0816
 1642THY    CA241029   4.852   7.229   9.133  0.4255  0.3318 -0.6194
 1642THY    CP141030   4.718   7.285   9.152  0.0037 -0.3175 -0.8155
 1642THY    HP141031   4.642   7.206   9.144  0.2509 -0.4133 -2.6574
 1642THY    CP241032   4.700   7.341   9.297  1.1459  0.1128 -1.0707
 1642THY    HP241033   4.594   7.346   9.322  1.0313 -1.5863 -1.0560
 1642THY    HP341034   4.759   7.280   9.367 -0.8837 -0.1870  0.4480
 1642THY    HP441035   4.729   7.446   9.303  0.8742  0.2384 -1.8543
 1642THY    CP341036   4.674   7.395   9.048  0.3736  0.1345  0.2362
 1642THY    HP541037   4.686   7.359   8.945 -2.0363 -0.6161  0.1435
 1642THY    HP641038   4.581   7.452   9.062 -0.5314 -0.4740 -2.6054
 1642THY    HP741039   4.740   7.482   9.049  0.1774  0.3652 -1.7705
 1642THY    CA341040   4.970   7.309   9.143 -0.6035  0.2723 -0.5666
 1642THY    HA341041   4.964   7.417   9.152  0.8009  0.4317 -1.2859
 1642THY    CA441042   5.096   7.250   9.140  0.5882  0.2205  0.2608
 1642THY    HA441043   5.184   7.313   9.140 -0.2947  1.7209 -3.2561
 1642THY    CA541044   5.115   7.115   9.114 -0.3911 -0.7302  0.4904
 1642THY    CM141045   5.248   7.061   9.109 -0.2392  0.6783 -0.3036
 1642THY    HM141046   5.257   7.005   9.203 -0.9899  0.1560 -0.5294
 1642THY    HM241047   5.269   6.995   9.025  0.3363  0.8539 -0.2990
 1642THY    HM341048   5.325   7.139   9.104 -2.0352  2.5827  0.0860
 1642THY    CA641049   5.005   7.029   9.108 -0.1513 -0.3265 -0.2161
 1642THY    HA641050   5.018   6.922   9.096 -0.4057 -0.6439  1.9545
 1643THY      O41051   6.197   4.192   2.137  0.1743 -0.2971  0.0971
 1643THY     HO41052   6.115   4.141   2.147  0.5282 -1.2326 -1.3300
 1643THY    CA141053   6.221   4.196   2.003  0.1743 -0.0494 -1.1008
 1643THY    CA241054   6.308   4.276   1.941 -0.3848  0.0668 -0.1864
 1643THY    CP141055   6.383   4.376   2.028 -0.3680  0.0459 -0.5721
 1643THY    HP141056   6.374   4.364   2.136 -0.6050  0.2589 -0.5663
 1643THY    CP241057   6.536   4.379   1.988 -0.1394  0.4715 -0.4088
 1643THY    HP241058   6.545   4.416   1.886 -2.3996 -2.0354 -1.6495
 1643THY    HP341059   6.592   4.454   2.044  0.1859  2.1559 -2.8489
 1643THY    HP441060   6.587   4.282   1.986 -0.2435  0.4306 -1.5563
 1643THY    CP341061   6.315   4.509   2.006  0.0859  0.1670 -0.2241
 1643THY    HP541062   6.358   4.586   2.071 -0.4263 -0.2586  0.6399
 1643THY    HP641063   6.326   4.539   1.901 -0.4263  0.6950 -0.1333
 1643THY    HP741064   6.209   4.500   2.033  0.8264  0.0653  3.0427
 1643THY    CA341065   6.313   4.274   1.802 -0.7668  0.6123  0.4936
 1643THY    HA341066   6.381   4.340   1.750  1.6786 -2.7543 -0.9923
 1643THY    CA441067   6.243   4.182   1.722 -0.4987  0.0160 -0.2547
 1643THY    HA441068   6.244   4.196   1.614  2.9310  0.7861 -0.2596
 1643THY    CA541069   6.153   4.100   1.795 -0.7285  0.4927  0.4932
 1643THY    CM141070   6.065   4.006   1.727  0.1135  0.2613  0.0762
 1643THY    HM141071   6.070   3.900   1.754 -0.1955 -0.6045 -2.9939
 1643THY    HM241072   5.963   4.029   1.759 -0.1178 -0.2556 -0.2874
 1643THY    HM341073   6.078   3.996   1.619 -0.9204  2.3996 -0.3082
 1643THY    CA641074   6.145   4.110   1.935  0.6761  0.5391  0.2419
 1643THY    HA641075   6.068   4.050   1.982  0.2726  0.3320 -0.6738
 1644THY      O41076   2.845   3.285   5.940 -0.2399 -0.7079 -0.4623
 1644THY     HO41077   2.808   3.324   6.022 -4.0411  1.2623 -2.8347
 1644THY    CA141078   2.975   3.262   5.973 -0.0798 -0.3877  0.2059
 1644THY    CA241079   3.061   3.169   5.902 -0.0035  0.2256 -0.0278
 1644THY    CP141080   2.989   3.097   5.788  0.0206  0.0432  0.0295
 1644THY    HP141081   2.882   3.091   5.808  0.1689 -0.1084  0.8450
 1644THY    CP241082   2.997   3.177   5.656  0.3642 -0.6079  0.4895
 1644THY    HP241083   2.933   3.264   5.671 -0.7034 -1.5121  1.3613
 1644THY    HP341084   3.095   3.211   5.620  0.2999  2.6061  2.8676
 1644THY    HP441085   2.962   3.110   5.577 -0.9487  0.3898  0.1955
 1644THY    CP341086   3.038   2.951   5.760  0.2104  0.1487 -0.2144
 1644THY    HP541087   3.136   2.952   5.710 -0.4982  0.4869 -1.6453
 1644THY    HP641088   3.041   2.889   5.850 -0.6342  0.2209 -0.1342
 1644THY    HP741089   2.973   2.901   5.688 -0.6848  0.2355  0.5261
 1644THY    CA341090   3.196   3.143   5.940  0.2799 -0.4568  0.1623
 1644THY    HA341091   3.250   3.063   5.891  0.1396 -0.8475  0.6386
 1644THY    CA441092   3.249   3.217   6.046  0.6592  0.4816 -0.7725
 1644THY    HA441093   3.350   3.199   6.083  0.6844 -0.8370 -1.4674
 1644THY    CA541094   3.161   3.302   6.123 -0.0965  0.1680 -0.5009
 1644THY    CM141095   3.199   3.374   6.243  0.0590 -0.1163 -0.0462
 1644THY    HM141096   3.173   3.325   6.337  0.3720  0.7319  0.4892
 1644THY    HM241097   3.308   3.386   6.254  0.1889 -1.6281  0.5778
 1644THY    HM341098   3.159   3.476   6.247 -1.5705 -0.6805 -0.8645
 1644THY    CA641099   3.027   3.316   6.089 -0.5885  0.2550 -0.4224
 1644THY    HA641100   2.968   3.382   6.153 -1.8321 -0.5724 -0.6901
 1645THY      O41101   2.116   1.737   4.188  0.2706  0.0978  0.6919
 1645THY     HO41102   2.145   1.657   4.234 -1.3746 -1.6915 -1.2009
 1645THY    CA141103   1.988   1.754   4.225  0.6381  0.1203  0.2755
 1645THY    CA241104   1.912   1.850   4.152 -0.0282  0.4031  0.0909
 1645THY    CP141105   1.969   1.925   4.030  0.3110 -0.0293  0.1837
 1645THY    HP141106   2.075   1.952   4.035  0.7113 -1.7011  2.3079
 1645THY    CP241107   1.956   1.833   3.910 -0.2265  0.3510  0.7164
 1645THY    HP241108   2.019   1.744   3.923 -1.2040 -0.3706  0.6005
 1645THY    HP341109   1.852   1.800   3.905 -0.4501  1.2340 -1.4101
 1645THY    HP441110   1.977   1.881   3.814 -1.1591 -0.1897  0.2210
 1645THY    CP341111   1.904   2.054   3.986  0.0983  0.9586 -1.0072
 1645THY    HP541112   1.802   2.046   3.945 -0.6794  1.1725  0.7920
 1645THY    HP641113   1.905   2.120   4.073  0.3125 -0.2236 -0.1037
 1645THY    HP741114   1.966   2.103   3.909 -0.0641 -0.3900 -2.0316
 1645THY    CA341115   1.774   1.866   4.185  0.0474 -0.0185 -0.3937
 1645THY    HA341116   1.714   1.939   4.130 -1.2636  0.0271  1.0356
 1645THY    CA441117   1.717   1.788   4.284  0.0367 -0.3040  0.8788
 1645THY    HA441118   1.613   1.797   4.313 -0.2724 -1.6901  0.2859
 1645THY    CA541119   1.791   1.696   4.346 -0.3589 -0.0653 -0.4014
 1645THY    CM141120   1.737   1.611   4.456  0.1943  0.5880  0.0571
 1645THY    HM141121   1.645   1.566   4.420  0.0436 -0.1479  1.3090
 1645THY    HM241122   1.804   1.530   4.485 -0.9749 -0.9450 -1.3869
 1645THY    HM341123   1.715   1.666   4.549  2.4338  1.2068  0.2898
 1645THY    CA641124   1.927   1.673   4.317  0.0233  0.1142  0.7139
 1645THY    HA641125   1.977   1.590   4.366  0.2076 -0.0898  0.1765
 1646THY      O41126   7.228   4.958   9.171  0.0297  0.0708 -0.3828
 1646THY     HO41127   7.300   4.898   9.197 -0.7737 -1.1867 -0.9944
 1646THY    CA141128   7.195   5.027   9.286  0.1533  0.7553 -0.0024
 1646THY    CA241129   7.116   5.143   9.292  0.8010  0.2070  0.5671
 1646THY    CP141130   7.059   5.207   9.158 -0.2755  0.1550  0.3465
 1646THY    HP141131   7.104   5.159   9.070 -2.0607  2.1759 -1.8167
 1646THY    CP241132   6.909   5.181   9.152  0.7009  0.3152  0.0262
 1646THY    HP241133   6.855   5.261   9.099  0.4948  0.5549  0.5872
 1646THY    HP341134   6.882   5.078   9.125 -0.9826  0.3210  1.4594
 1646THY    HP441135   6.876   5.205   9.253  0.5425 -0.1637  0.0897
 1646THY    CP341136   7.081   5.358   9.155 -0.5668 -0.0495  1.1293
 1646THY    HP541137   7.190   5.366   9.161 -0.5916 -0.4574  2.2889
 1646THY    HP641138   7.055   5.397   9.056  2.6569 -1.2800 -0.3322
 1646THY    HP741139   7.027   5.415   9.230 -0.6989  0.8433  0.3742
 1646THY    CA341140   7.103   5.211   9.413 -0.3072 -0.1155  0.0371
 1646THY    HA341141   7.040   5.299   9.420 -1.6569 -0.4496 -4.6238
 1646THY    CA441142   7.155   5.151   9.533 -0.2912  0.4226  0.4759
 1646THY    HA441143   7.138   5.193   9.632  1.0622  0.1287  0.8447
 1646THY    CA541144   7.227   5.037   9.523 -0.7699 -0.2294 -0.3737
 1646THY    CM141145   7.270   4.972   9.659 -0.9430 -0.3212  0.1304
 1646THY    HM141146   7.312   4.874   9.634 -0.5689  0.3989 -2.3313
 1646THY    HM241147   7.346   5.038   9.703  2.7346 -2.0273 -3.0792
 1646THY    HM341148   7.187   4.980   9.730 -0.9298  0.0686  0.1062
 1646THY    CA641149   7.252   4.979   9.398  0.0459 -0.4818 -0.2453
 1646THY    HA641150   7.303   4.883   9.395  0.1894 -0.4028 -0.3447
 1647THY      O41151   8.570   5.915   9.560 -0.7394 -0.2465 -0.6328
 1647THY     HO41152   8.559   5.893   9.466 -0.0763  0.0976 -0.7927
 1647THY    CA141153   8.479   5.839   9.630 -0.3502  0.0270  0.2823
 1647THY    CA241154   8.485   5.828   9.767  0.1480  0.1888  0.3915
 1647THY    CP141155   8.598   5.893   9.841 -0.1706  0.2534 -0.4062
 1647THY    HP141156   8.643   5.976   9.785 -1.6195  1.1248 -0.3205
 1647THY    CP241157   8.547   5.968   9.971 -0.1459 -0.2010  0.6602
 1647THY    HP241158   8.455   6.027   9.971 -0.0109  0.0068  1.1804
 1647THY    HP341159   8.545   5.903  10.059  1.8950 -2.4341 -0.8000
 1647THY    HP441160   8.623   6.042   9.999 -0.5707  0.6908 -0.4404
 1647THY    CP341161   8.705   5.785   9.879 -0.3181 -0.3171 -0.9518
 1647THY    HP541162   8.736   5.724   9.793 -0.2709 -2.3256  0.4085
 1647THY    HP641163   8.801   5.833   9.899 -0.4277 -0.4105 -0.1722
 1647THY    HP741164   8.673   5.725   9.965 -0.1387  1.8630  0.7137
 1647THY    CA341165   8.389   5.759   9.843 -0.0291  0.6119 -0.5049
 1647THY    HA341166   8.384   5.751   9.951  1.3894 -1.9852 -0.5330
 1647THY    CA441167   8.289   5.692   9.772  0.2228 -0.4601  0.0114
 1647THY    HA441168   8.209   5.641   9.826  0.4319  0.8635  1.6579
 1647THY    CA541169   8.288   5.694   9.626 -0.2730 -0.2519 -1.1406
 1647THY    CM141170   8.179   5.630   9.554  0.3620 -0.8863  0.1804
 1647THY    HM141171   8.112   5.586   9.628 -0.7501  0.8406  0.2712
 1647THY    HM241172   8.144   5.706   9.483 -0.7911 -0.2420  1.3943
 1647THY    HM341173   8.216   5.554   9.485  0.2918 -0.1312 -0.7097
 1647THY    CA641174   8.384   5.773   9.560  0.5796  0.6386 -0.0250
 1647THY    HA641175   8.384   5.778   9.452  0.1894  0.8326 -0.0162
 1648THY      O41176   7.394   2.569   7.115 -0.0754  0.3988  0.4652
 1648THY     HO41177   7.393   2.533   7.025 -2.5127  1.7269 -0.0996
 1648THY    CA141178   7.319   2.469   7.175 -0.0080 -0.0449  0.6845
 1648THY    CA241179   7.312   2.463   7.314  0.1682 -0.4738 -0.0683
 1648THY    CP141180   7.376   2.574   7.401 -0.2346  0.3077 -0.0078
 1648THY    HP141181   7.438   2.638   7.338  0.9965 -2.2578 -1.5940
 1648THY    CP241182   7.274   2.671   7.467  0.0509 -0.1478  0.1310
 1648THY    HP241183   7.193   2.703   7.400  0.6328  0.6847 -0.1984
 1648THY    HP341184   7.235   2.633   7.562 -0.2249 -0.7490 -0.2175
 1648THY    HP441185   7.319   2.768   7.492  1.7097 -0.8050 -0.2309
 1648THY    CP341186   7.467   2.517   7.506 -0.6662 -0.0323  0.2802
 1648THY    HP541187   7.542   2.588   7.545  1.6762 -2.3079  0.1994
 1648THY    HP641188   7.423   2.458   7.587  2.7768 -1.1826  1.5091
 1648THY    HP741189   7.528   2.438   7.462 -1.2095  0.2165 -0.9654
 1648THY    CA341190   7.230   2.362   7.373 -0.6284 -0.2550  0.4303
 1648THY    HA341191   7.219   2.366   7.481 -2.1875 -1.3537  0.3447
 1648THY    CA441192   7.147   2.281   7.294 -0.5259 -0.1951  0.6257
 1648THY    HA441193   7.079   2.215   7.346  0.9394 -1.0305  1.5640
 1648THY    CA541194   7.164   2.282   7.149  0.3300  0.3037  0.4274
 1648THY    CM141195   7.083   2.196   7.056 -0.8923 -0.3540 -0.1913
 1648THY    HM141196   6.997   2.146   7.101 -0.0993 -0.6446  1.0561
 1648THY    HM241197   7.034   2.254   6.978  0.5143  0.5644 -0.4348
 1648THY    HM341198   7.149   2.126   7.003 -2.0704 -0.5296 -1.4849
 1648THY    CA641199   7.247   2.382   7.093 -0.4691 -0.9130  0.3648
 1648THY    HA641200   7.244   2.396   6.986  1.9707 -0.8933  0.2556
 1649THY      O41201   8.031   4.911   6.769 -0.3855 -0.6904  0.6998
 1649THY     HO41202   7.967   4.919   6.842 -2.2587 -1.3238 -0.8065
 1649THY    CA141203   8.132   4.853   6.832  0.1927  0.0832 -0.3959
 1649THY    CA241204   8.260   4.840   6.775  0.3134 -0.0793  0.0271
 1649THY    CP141205   8.293   4.917   6.644 -0.8943 -0.3467  0.2545
 1649THY    HP141206   8.223   4.998   6.620 -1.8644 -1.1966  0.1112
 1649THY    CP241207   8.426   5.000   6.665 -1.0428  0.0383 -0.5054
 1649THY    HP241208   8.461   4.992   6.768 -2.9332  0.9488  0.2457
 1649THY    HP341209   8.510   4.975   6.599 -1.0584  1.4193 -1.0885
 1649THY    HP441210   8.411   5.108   6.656  0.2639  0.1541 -1.7511
 1649THY    CP341211   8.295   4.834   6.510  0.3230  0.2381 -0.3792
 1649THY    HP541212   8.360   4.746   6.519  1.5741  1.1277 -0.5313
 1649THY    HP641213   8.194   4.793   6.498  0.9808 -1.3120 -0.8924
 1649THY    HP741214   8.321   4.896   6.423 -1.8028  0.6526 -0.7689
 1649THY    CA341215   8.347   4.754   6.840 -0.0712  0.1824  0.1854
 1649THY    HA341216   8.450   4.750   6.807 -0.1410  0.0258 -0.0159
 1649THY    CA441217   8.314   4.698   6.967  0.3240  0.5305  0.3491
 1649THY    HA441218   8.376   4.623   7.016  1.0822 -0.6179 -2.2315
 1649THY    CA541219   8.189   4.715   7.022  0.5070 -0.9157 -0.5009
 1649THY    CM141220   8.161   4.654   7.157 -0.0134  0.5881 -0.0426
 1649THY    HM141221   8.103   4.728   7.214  0.3163  0.1752  0.8344
 1649THY    HM241222   8.113   4.557   7.143 -0.3461  0.8211 -0.5847
 1649THY    HM341223   8.259   4.645   7.206 -0.7964  0.1047  1.4858
 1649THY    CA641224   8.100   4.791   6.956 -0.0410 -0.4684  0.1145
 1649THY    HA641225   7.997   4.794   6.990 -0.2604 -0.7095 -0.5080
 1650THY      O41226   4.920   7.266   0.870  0.1324 -0.1940 -0.1487
 1650THY     HO41227   4.966   7.342   0.830  1.3387 -1.6503 -1.7145
 1650THY    CA141228   4.811   7.241   0.797  0.5681 -0.4027  0.9101
 1650THY    CA241229   4.721   7.141   0.838 -0.2625 -0.0326  0.5599
 1650THY    CP141230   4.735   7.081   0.979 -0.6594  0.2174  0.3089
 1650THY    HP141231   4.814   7.132   1.035 -0.3012 -0.4513  0.4176
 1650THY    CP241232   4.615   7.085   1.065 -0.0290 -0.4219 -0.1886
 1650THY    HP241233   4.601   7.188   1.102  0.9529 -0.8496  1.4769
 1650THY    HP341234   4.522   7.053   1.017 -0.3185 -0.2830  0.2697
 1650THY    HP441235   4.624   7.023   1.155  1.9586 -0.8126 -0.6142
 1650THY    CP341236   4.782   6.933   0.961  0.0820 -0.1879  0.4772
 1650THY    HP541237   4.704   6.877   0.908 -1.4935 -0.3243  2.7858
 1650THY    HP641238   4.872   6.944   0.899 -0.9760 -1.0945 -1.2829
 1650THY    HP741239   4.803   6.881   1.056 -0.3370 -0.7961  0.2459
 1650THY    CA341240   4.619   7.089   0.747 -0.4750 -0.2972 -0.1823
 1650THY    HA341241   4.549   7.010   0.771 -0.2029 -0.3971  0.2994
 1650THY    CA441242   4.618   7.145   0.624  0.0426  0.3307  0.0459
 1650THY    HA441243   4.554   7.104   0.547  0.5037 -0.7159  0.1987
 1650THY    CA541244   4.699   7.259   0.589  0.6098 -0.1378  0.0151
 1650THY    CM141245   4.695   7.315   0.453  0.5930  0.6965  0.2963
 1650THY    HM141246   4.653   7.240   0.385  0.6033 -0.1186  1.1726
 1650THY    HM241247   4.646   7.413   0.449  0.7362  0.7851  0.7325
 1650THY    HM341248   4.797   7.335   0.418  0.6726  0.6304  0.4949
 1650THY    CA641249   4.789   7.314   0.678 -0.6295  0.1090  0.7398
 1650THY    HA641250   4.850   7.398   0.645 -2.2500  1.1301  0.2354
 1651THY      O41251   9.116   9.751   7.160  0.4493 -0.6975 -0.0643
 1651THY     HO41252   9.025   9.719   7.150 -0.8702  1.8584  2.3086
 1651THY    CA141253   9.202   9.663   7.103  0.4118 -0.8370 -0.3663
 1651THY    CA241254   9.315   9.715   7.032 -0.0761 -0.0761 -0.1754
 1651THY    CP141255   9.338   9.867   7.040  1.1855  0.6784  0.0673
 1651THY    HP141256   9.278   9.918   7.117  1.0385 -0.0623  0.4481
 1651THY    CP241257   9.479   9.912   7.084  0.4773 -0.7295  0.1817
 1651THY    HP241258   9.488  10.021   7.077  0.2632 -0.8268 -2.6889
 1651THY    HP341259   9.497   9.881   7.188  0.9425 -1.4052 -0.0921
 1651THY    HP441260   9.560   9.871   7.023  3.2784  3.0304  0.9242
 1651THY    CP341261   9.303   9.922   6.897  0.0952 -0.1979  0.7450
 1651THY    HP541262   9.357   9.866   6.820 -0.7482  1.4546 -1.1293
 1651THY    HP641263   9.196   9.909   6.877  0.1951 -1.3961  0.9221
 1651THY    HP741264   9.344  10.024   6.895  1.5283 -0.7667 -0.3066
 1651THY    CA341265   9.415   9.631   6.980  0.2042  0.1955 -0.0500
 1651THY    HA341266   9.501   9.673   6.929 -0.7844  1.3437 -0.8532
 1651THY    CA441267   9.400   9.494   7.003  0.1070 -0.2108 -0.1233
 1651THY    HA441268   9.478   9.427   6.968 -0.5797 -1.7705  1.1803
 1651THY    CA541269   9.283   9.442   7.063  0.2573 -0.3993 -0.3880
 1651THY    CM141270   9.271   9.296   7.073  0.1253 -0.2856 -0.1701
 1651THY    HM141271   9.358   9.251   7.124  0.5563  1.1207  0.3625
 1651THY    HM241272   9.183   9.265   7.129 -0.4716 -1.1437 -1.5106
 1651THY    HM341273   9.256   9.242   6.978 -2.3591 -0.6333  0.3503
 1651THY    CA641274   9.185   9.526   7.117 -0.3102  0.5611 -0.3607
 1651THY    HA641275   9.100   9.479   7.166 -0.8801  0.4266 -1.4383
 1652THY      O41276   4.230   2.096   7.403  0.0917 -1.0043  0.7720
 1652THY     HO41277   4.240   1.999   7.405 -0.7005 -1.0843  1.2642
 1652THY    CA141278   4.117   2.119   7.333  0.8097  0.1898 -0.4222
 1652THY    CA241279   4.053   2.242   7.342 -0.0036 -0.2748 -0.4532
 1652THY    CP141280   4.116   2.361   7.414 -0.4597 -0.0329 -0.1835
 1652THY    HP141281   4.161   2.316   7.503 -0.6240 -0.7699 -0.4615
 1652THY    CP241282   4.225   2.426   7.339 -1.0283 -0.0025  0.2647
 1652THY    HP241283   4.198   2.453   7.237 -1.2262  2.1064  0.8196
 1652THY    HP341284   4.273   2.511   7.389  0.9564 -1.3758  0.8694
 1652THY    HP441285   4.302   2.349   7.327 -0.9346 -0.0286  0.9486
 1652THY    CP341286   4.019   2.465   7.466 -0.4561  0.1280 -0.0951
 1652THY    HP541287   3.966   2.525   7.391 -1.3213 -0.0885  0.3411
 1652THY    HP641288   3.943   2.412   7.524  1.2116 -1.8710  0.3840
 1652THY    HP741289   4.079   2.533   7.528 -1.6969  1.0160  0.1561
 1652THY    CA341290   3.934   2.256   7.265  0.0187 -0.0143  0.2847
 1652THY    HA341291   3.883   2.352   7.265 -1.3160 -0.6796 -0.8127
 1652THY    CA441292   3.897   2.154   7.176  0.1560  0.4945 -0.0947
 1652THY    HA441293   3.817   2.162   7.103  2.0702  1.1122 -2.2491
 1652THY    CA541294   3.959   2.029   7.166  0.5716 -0.7523 -0.1985
 1652THY    CM141295   3.908   1.924   7.072  0.4779  0.0952 -0.7108
 1652THY    HM141296   3.802   1.901   7.085  0.3397  1.0194 -0.1223
 1652THY    HM241297   3.916   1.971   6.973  0.7551  1.5332 -0.0381
 1652THY    HM341298   3.968   1.832   7.070  0.4815  0.0961 -0.6624
 1652THY    CA641299   4.067   2.017   7.250 -0.0521 -0.3919 -0.6461
 1652THY    HA641300   4.116   1.920   7.249  1.5178  0.3656 -0.0651
 1653THY      O41301   9.095   9.912   7.409 -0.3532  0.5034  0.5033
 1653THY     HO41302   9.119   9.846   7.342 -0.0873  0.0630  1.0135
 1653THY    CA141303   9.205   9.911   7.490 -0.1341 -0.1258 -0.6213
 1653THY    CA241304   9.208   9.993   7.605 -0.4516 -0.1764 -0.5777
 1653THY    CP141305   9.106  10.097   7.636  0.4245  0.1431  0.4884
 1653THY    HP141306   9.012  10.049   7.605  0.1067  1.6686 -1.0537
 1653THY    CP241307   9.100  10.146   7.785  0.3367  0.3258  0.4401
 1653THY    HP241308   9.088  10.054   7.843  2.8590  0.4026  1.1510
 1653THY    HP341309   9.194  10.189   7.821 -0.6279  0.9111  2.4237
 1653THY    HP441310   9.011  10.210   7.799 -0.2343 -0.5494  0.9165
 1653THY    CP341311   9.129  10.223   7.544  0.1415  0.8172 -0.5313
 1653THY    HP541312   9.144  10.189   7.440  0.3463  0.9244 -0.5367
 1653THY    HP641313   9.047  10.296   7.544 -1.4467 -0.8318  1.7737
 1653THY    HP741314   9.215  10.279   7.582  0.4730 -0.9223  1.4370
 1653THY    CA341315   9.329   9.992   7.676  0.4916 -0.1052 -0.2142
 1653THY    HA341316   9.349  10.068   7.751 -0.2895 -0.3074  0.2033
 1653THY    CA441317   9.435   9.905   7.643 -0.3436  0.4707  0.3042
 1653THY    HA441318   9.536   9.914   7.682  0.1784  1.5398 -1.2317
 1653THY    CA541319   9.420   9.826   7.529  0.1027 -0.4504  0.1219
 1653THY    CM141320   9.534   9.748   7.482  0.0764 -0.1689  0.6535
 1653THY    HM141321   9.596   9.793   7.404  0.3399  1.2337  1.6307
 1653THY    HM241322   9.608   9.713   7.555  0.8858 -3.3464 -1.4574
 1653THY    HM341323   9.494   9.651   7.449  0.3049  0.1124 -0.4831
 1653THY    CA641324   9.307   9.825   7.449  0.0781 -0.0503  0.0523
 1653THY    HA641325   9.297   9.770   7.356 -0.9152 -0.3292  0.3104
 1654THY      O41326   1.117   8.460   5.833 -0.1891 -0.2526  0.2276
 1654THY     HO41327   1.135   8.433   5.925 -2.0874 -0.4025  0.5987
 1654THY    CA141328   1.236   8.497   5.775 -0.7132 -0.1234  0.0802
 1654THY    CA241329   1.267   8.456   5.648  0.3906  0.6962  0.2400
 1654THY    CP141330   1.154   8.383   5.570 -0.7934 -0.1310  0.3432
 1654THY    HP141331   1.053   8.406   5.606 -0.3152  1.7675  0.5772
 1654THY    CP241332   1.164   8.406   5.421 -0.2643  0.2622  0.2270
 1654THY    HP241333   1.083   8.361   5.361 -0.6547  3.6244 -2.0312
 1654THY    HP341334   1.159   8.513   5.398  1.7176  1.1436  3.2257
 1654THY    HP441335   1.258   8.364   5.383 -0.4625  0.7062 -0.7963
 1654THY    CP341336   1.169   8.222   5.587 -1.1865  0.3453  0.4278
 1654THY    HP541337   1.141   8.202   5.691 -0.8905  2.5935  0.9794
 1654THY    HP641338   1.098   8.168   5.522  0.1917 -0.2854 -0.5958
 1654THY    HP741339   1.271   8.191   5.561  0.3651  2.3810  3.5482
 1654THY    CA341340   1.395   8.476   5.597  0.0954  0.1722  0.0901
 1654THY    HA341341   1.408   8.441   5.495 -2.3894 -1.0195  0.0886
 1654THY    CA441342   1.486   8.543   5.670 -0.2634 -0.5691 -0.4968
 1654THY    HA441343   1.588   8.552   5.633  0.3943  0.1945  1.3552
 1654THY    CA541344   1.457   8.595   5.801 -0.4737 -0.2422  0.6522
 1654THY    CM141345   1.564   8.654   5.886 -0.3669  0.8593  0.1417
 1654THY    HM141346   1.611   8.574   5.944  0.2071  1.5873  0.7025
 1654THY    HM241347   1.639   8.705   5.824  0.7282 -2.5724 -1.5875
 1654THY    HM341348   1.512   8.726   5.950  0.4308  1.0484  0.5947
 1654THY    CA641349   1.332   8.569   5.852  0.8431  0.1253  0.2234
 1654THY    HA641350   1.307   8.588   5.956  0.3665  0.1348  0.1097
 1655THY      O41351   0.827   1.391   4.732 -0.7626  0.0214 -0.2468
 1655THY     HO41352   0.735   1.409   4.707 -1.3829  0.4083  2.0391
 1655THY    CA141353   0.815   1.267   4.787  0.5716  0.4816  0.2666
 1655THY    CA241354   0.928   1.193   4.817 -0.0999 -0.5319 -0.2044
 1655THY    CP141355   1.063   1.245   4.773 -0.1206  0.4134  0.1139
 1655THY    HP141356   1.067   1.354   4.759  0.2855  0.0478 -3.8116
 1655THY    CP241357   1.174   1.189   4.862 -0.2922  0.5736  0.0396
 1655THY    HP241358   1.191   1.083   4.843 -1.6890  0.4455 -0.5849
 1655THY    HP341359   1.268   1.246   4.858  0.4706 -0.0731  4.2097
 1655THY    HP441360   1.135   1.202   4.963  0.2105  1.4580  0.1327
 1655THY    CP341361   1.089   1.181   4.637  0.5721 -0.3670  0.2076
 1655THY    HP541362   1.065   1.074   4.642  0.3698 -0.3571 -0.4395
 1655THY    HP641363   1.042   1.232   4.552  1.4080  0.5887  0.3062
 1655THY    HP741364   1.196   1.189   4.617  0.5926 -1.5767 -0.2460
 1655THY    CA341365   0.912   1.064   4.865  0.2782  0.1400  0.1744
 1655THY    HA341366   0.989   0.992   4.888 -0.1489 -0.1152  0.8342
 1655THY    CA441367   0.782   1.013   4.891 -0.6226 -0.3272  0.0407
 1655THY    HA441368   0.763   0.912   4.925 -0.4940 -1.0968 -2.0354
 1655THY    CA541369   0.673   1.100   4.888 -0.2409 -0.4165  0.9253
 1655THY    CM141370   0.548   1.059   4.948  1.0943  0.1842 -0.7730
 1655THY    HM141371   0.544   0.988   5.032 -1.5997  2.2462  1.0128
 1655THY    HM241372   0.505   1.148   4.995  2.5052  1.4857 -1.8539
 1655THY    HM341373   0.476   1.024   4.874  1.6631  1.1312 -1.7965
 1655THY    CA641374   0.689   1.228   4.830 -0.3489  0.4270  0.5332
 1655THY    HA641375   0.605   1.297   4.830 -1.8672 -1.3125 -0.4988
 1656THY      O41376   9.822   7.264   5.151 -0.2025  0.2455  0.1543
 1656THY     HO41377   9.894   7.199   5.145  0.4827  0.8910  1.0734
 1656THY    CA141378   9.809   7.303   5.284 -0.5699 -0.3969  0.1435
 1656THY    CA241379   9.697   7.370   5.319  0.6154  0.0506  0.5817
 1656THY    CP141380   9.574   7.359   5.233 -0.3858 -0.7575 -0.4019
 1656THY    HP141381   9.582   7.321   5.131 -0.7272  1.1353 -1.1684
 1656THY    CP241382   9.467   7.273   5.301  0.2377  0.3827  0.2138
 1656THY    HP241383   9.496   7.181   5.355 -1.2351  1.2630  2.6875
 1656THY    HP341384   9.417   7.335   5.377 -0.4570 -1.0504  0.9758
 1656THY    HP441385   9.396   7.252   5.220 -0.4435  4.0364 -0.2834
 1656THY    CP341386   9.517   7.506   5.218 -0.0772 -0.1492  0.0182
 1656THY    HP541387   9.436   7.508   5.144  0.5259 -2.9861 -0.8408
 1656THY    HP641388   9.480   7.550   5.312 -1.3258  0.9359 -0.9516
 1656THY    HP741389   9.594   7.576   5.184 -0.5572 -0.6264 -2.1670
 1656THY    CA341390   9.689   7.427   5.448 -0.1274  0.4362 -0.2737
 1656THY    HA341391   9.602   7.475   5.493  0.5468 -0.1194  1.7195
 1656THY    CA441392   9.794   7.398   5.536  0.1660 -0.5987 -0.3088
 1656THY    HA441393   9.792   7.426   5.641  3.8657  0.6728 -0.4155
 1656THY    CA541394   9.909   7.331   5.496 -0.5522 -0.6553  0.1249
 1656THY    CM141395  10.020   7.309   5.594  0.3258 -1.2618 -0.7704
 1656THY    HM141396   9.993   7.226   5.660 -0.9805  0.3869  0.8757
 1656THY    HM241397  10.109   7.277   5.538 -1.2107 -2.1606 -2.8132
 1656THY    HM341398  10.054   7.400   5.644 -1.2205 -1.3038  0.4192
 1656THY    CA641399   9.919   7.297   5.360  0.2702 -0.1824 -0.8922
 1656THY    HA641400  10.011   7.249   5.328  0.8589  0.3665 -0.0621
 1657THY      O41401   4.379   5.565   7.840 -0.2624  0.3360  0.3128
 1657THY     HO41402   4.289   5.589   7.868  0.4849  1.2075  2.1649
 1657THY    CA141403   4.416   5.662   7.753 -0.2712  0.6363  0.0220
 1657THY    CA241404   4.527   5.648   7.665  0.1537 -0.1005  0.5352
 1657THY    CP141405   4.598   5.512   7.659 -0.4139  0.5102  0.4855
 1657THY    HP141406   4.600   5.458   7.755  0.8926  0.7261  0.6032
 1657THY    CP241407   4.540   5.414   7.553  0.0994 -0.2661 -0.0569
 1657THY    HP241408   4.565   5.435   7.448  2.4869  2.0263  0.8434
 1657THY    HP341409   4.571   5.311   7.574  2.2969  0.0934 -1.2438
 1657THY    HP441410   4.433   5.423   7.573  0.1369 -0.2139  0.1296
 1657THY    CP341411   4.750   5.530   7.624 -0.4529 -0.0072  0.3582
 1657THY    HP541412   4.764   5.583   7.529  1.4358  0.5362  0.8965
 1657THY    HP641413   4.794   5.594   7.702  0.7380  0.6875 -0.8401
 1657THY    HP741414   4.803   5.434   7.619 -1.0492 -0.4005  1.3396
 1657THY    CA341415   4.542   5.757   7.572 -0.3575  0.5744  0.0936
 1657THY    HA341416   4.620   5.755   7.497  0.1797 -0.7325  0.6628
 1657THY    CA441417   4.440   5.857   7.566 -0.0581  0.6491  0.4579
 1657THY    HA441418   4.444   5.942   7.498  0.6969 -1.6126 -2.5265
 1657THY    CA541419   4.338   5.872   7.662  0.1839 -0.4717  0.3004
 1657THY    CM141420   4.236   5.985   7.647 -0.0972 -0.1382 -0.7253
 1657THY    HM141421   4.285   6.083   7.642  2.1483 -1.2154 -1.0772
 1657THY    HM241422   4.197   5.967   7.546 -2.2296 -1.3742  0.2373
 1657THY    HM341423   4.156   5.972   7.720 -1.9163  1.2268 -2.3566
 1657THY    CA641424   4.331   5.769   7.753  0.0994  0.2314  0.1358
 1657THY    HA641425   4.250   5.778   7.824 -1.7712 -1.3522 -1.6547
 1658THY      O41426   0.221   4.365   3.926 -0.1523  0.2939 -0.0310
 1658THY     HO41427   0.314   4.361   3.953 -0.5132 -1.3067  1.0972
 1658THY    CA141428   0.171   4.478   3.979  0.6138  0.3037  0.0820
 1658THY    CA241429   0.046   4.530   3.937  0.4274 -0.6335 -0.3290
 1658THY    CP141430  -0.042   4.469   3.830  0.3050  0.1439  0.3281
 1658THY    HP141431   0.015   4.392   3.778  0.4791  0.0312  0.6836
 1658THY    CP241432  -0.166   4.406   3.903 -0.2573 -0.7109  0.0520
 1658THY    HP241433  -0.219   4.473   3.972 -1.7927 -2.1086  0.2907
 1658THY    HP341434  -0.235   4.378   3.823  1.1631 -1.4060 -0.9753
 1658THY    HP441435  -0.144   4.314   3.958 -2.2004 -0.7172  0.8950
 1658THY    CP341436  -0.093   4.567   3.723  0.8685 -0.3488 -0.0074
 1658THY    HP541437  -0.184   4.621   3.752  1.1958  1.1107 -1.5709
 1658THY    HP641438  -0.008   4.634   3.705  1.5564 -0.8319  1.3138
 1658THY    HP741439  -0.124   4.508   3.636  1.0991  1.5253 -1.4111
 1658THY    CA341440   0.001   4.649   3.994 -0.2574 -0.0189  0.6305
 1658THY    HA341441  -0.087   4.702   3.958  1.4514  1.3268 -1.8190
 1658THY    CA441442   0.071   4.701   4.099  0.1945  0.2033 -0.7039
 1658THY    HA441443   0.038   4.797   4.138  0.6698 -0.0323  0.2979
 1658THY    CA541444   0.188   4.641   4.139 -0.5751 -0.5592  0.0437
 1658THY    CM141445   0.263   4.689   4.256 -0.2325  0.5373  0.7721
 1658THY    HM141446   0.267   4.615   4.337  0.9074 -2.6240 -1.9875
 1658THY    HM241447   0.364   4.702   4.217 -1.3161  1.3513 -1.9979
 1658THY    HM341448   0.222   4.786   4.290  0.2707  0.8051  0.6275
 1658THY    CA641449   0.240   4.530   4.078 -0.6445 -0.1637  0.2029
 1658THY    HA641450   0.337   4.486   4.100 -0.5933 -0.1953 -0.0785
 1659THY      O41451   2.344   8.939   3.908  0.2769  0.1655 -0.0487
 1659THY     HO41452   2.388   9.019   3.939 -0.8330  0.7445  0.0748
 1659THY    CA141453   2.379   8.934   3.776 -0.1851 -0.1673  0.1709
 1659THY    CA241454   2.349   8.825   3.699 -0.3887  0.6544  0.3730
 1659THY    CP141455   2.262   8.711   3.753 -0.0878 -0.0672  0.1083
 1659THY    HP141456   2.290   8.696   3.858  1.1711  0.8635 -0.0644
 1659THY    CP241457   2.112   8.749   3.754  0.0149 -0.6155  0.4353
 1659THY    HP241458   2.061   8.757   3.657  0.4843  1.3294  0.2996
 1659THY    HP341459   2.055   8.678   3.814 -1.2294 -0.7279 -0.8292
 1659THY    HP441460   2.105   8.849   3.799 -1.6672  0.1832 -1.4117
 1659THY    CP341461   2.276   8.578   3.679 -0.3897 -0.2485 -0.5608
 1659THY    HP541462   2.205   8.511   3.730 -1.8645  2.3771  1.0690
 1659THY    HP641463   2.243   8.580   3.574 -1.5052  1.7702 -0.2257
 1659THY    HP741464   2.382   8.551   3.683 -0.2850  0.2359  2.3760
 1659THY    CA341465   2.399   8.822   3.565  0.4460  0.8382 -0.5242
 1659THY    HA341466   2.387   8.735   3.502 -1.1969  1.6824 -1.4324
 1659THY    CA441467   2.476   8.925   3.522 -0.4549 -0.4691  0.0642
 1659THY    HA441468   2.518   8.925   3.422 -2.0177 -0.9345 -0.6305
 1659THY    CA541469   2.494   9.041   3.597  0.4191 -0.3081  0.5081
 1659THY    CM141470   2.575   9.150   3.534 -0.1970 -0.0276 -0.2542
 1659THY    HM141471   2.525   9.194   3.447  0.9398  1.8880 -0.0016
 1659THY    HM241472   2.588   9.236   3.600  0.5471 -0.1619 -0.2246
 1659THY    HM341473   2.668   9.109   3.494 -1.1972 -2.0371 -0.6521
 1659THY    CA641474   2.455   9.036   3.732 -0.0814 -0.0018 -0.5108
 1659THY    HA641475   2.464   9.130   3.786 -3.5014  1.0394 -1.4657
 1660THY      O41476   1.620   6.483   0.529 -0.3782 -0.2057 -0.0975
 1660THY     HO41477   1.692   6.548   0.525  1.2855 -1.8872  1.2395
 1660THY    CA141478   1.579   6.487   0.405  0.2017  0.9551  0.8063
 1660THY    CA241479   1.449   6.462   0.361 -0.1379 -0.1484 -0.1564
 1660THY    CP141480   1.333   6.444   0.472 -0.6868 -0.1258 -0.3761
 1660THY    HP141481   1.363   6.486   0.569  1.3390 -3.0770  0.4145
 1660THY    CP241482   1.206   6.518   0.426  0.1834  0.2318 -0.2644
 1660THY    HP241483   1.129   6.513   0.504 -1.6843  0.0091 -2.0532
 1660THY    HP341484   1.232   6.623   0.410  1.2189  0.3095  1.6428
 1660THY    HP441485   1.168   6.474   0.334  0.0703 -0.2411  0.0060
 1660THY    CP341486   1.295   6.297   0.497 -0.4849  0.0796 -0.1775
 1660THY    HP541487   1.225   6.258   0.422  0.9151 -0.1141 -1.4451
 1660THY    HP641488   1.390   6.244   0.505  2.4780  4.6036 -1.4194
 1660THY    HP741489   1.251   6.282   0.596  0.7447 -0.5300  0.3028
 1660THY    CA341490   1.414   6.466   0.223 -0.6034  0.1759 -0.0439
 1660THY    HA341491   1.315   6.442   0.185 -2.0246  1.0277  2.8292
 1660THY    CA441492   1.516   6.491   0.130  0.5965 -0.0179  0.1474
 1660THY    HA441493   1.501   6.480   0.023 -0.8703 -1.8396  0.4855
 1660THY    CA541494   1.647   6.522   0.171  0.1607 -0.2205 -0.1074
 1660THY    CM141495   1.753   6.563   0.081 -0.2581  0.6533 -0.3563
 1660THY    HM141496   1.762   6.672   0.087 -2.7319  0.9859 -1.4568
 1660THY    HM241497   1.849   6.523   0.115 -0.6635 -0.6729 -0.7396
 1660THY    HM341498   1.747   6.534  -0.024  4.1436 -0.5437 -0.4863
 1660THY    CA641499   1.672   6.514   0.312 -0.1933 -0.5153  0.0403
 1660THY    HA641500   1.773   6.529   0.349 -0.3417 -2.7443  1.5948
 1661THY      O41501   5.791   8.255   4.482 -0.3426 -0.6999 -0.2885
 1661THY     HO41502   5.825   8.284   4.568 -1.4278  0.2438 -0.1519
 1661THY    CA141503   5.882   8.314   4.402 -0.1590 -0.5090 -0.7047
 1661THY    CA241504   5.855   8.345   4.268 -0.5189  0.3822  0.2261
 1661THY    CP141505   5.717   8.316   4.209  0.3176 -0.0006  0.0820
 1661THY    HP141506   5.646   8.263   4.273  0.5210 -0.6618 -0.2331
 1661THY    CP241507   5.653   8.453   4.192 -0.3727  0.5839  0.1156
 1661THY    HP241508   5.623   8.497   4.288  1.7089  1.0255  0.6120
 1661THY    HP341509   5.719   8.515   4.130 -1.2092  2.9276  1.4384
 1661THY    HP441510   5.567   8.426   4.128 -0.2369 -3.0098  1.2447
 1661THY    CP341511   5.722   8.214   4.083  0.2541  0.3567  0.6201
 1661THY    HP541512   5.710   8.110   4.115 -0.5577  0.8797  2.1286
 1661THY    HP641513   5.652   8.241   4.003  0.3086 -1.2259  0.0100
 1661THY    HP741514   5.816   8.223   4.029 -1.6163  0.2460 -2.9199
 1661THY    CA341515   5.958   8.394   4.192 -0.3471  0.0172 -0.2192
 1661THY    HA341516   5.947   8.434   4.092  0.0483  1.5605  0.3293
 1661THY    CA441517   6.086   8.412   4.246 -0.0878  0.2297  0.3629
 1661THY    HA441518   6.168   8.458   4.190 -1.5032  4.5937  1.5213
 1661THY    CA541519   6.117   8.381   4.376 -0.6468  0.4318  0.1575
 1661THY    CM141520   6.259   8.379   4.429  0.0964 -0.7235 -0.1287
 1661THY    HM141521   6.272   8.326   4.524  2.2863 -0.6177 -0.3233
 1661THY    HM241522   6.321   8.320   4.361  0.7021 -0.4406  0.1688
 1661THY    HM341523   6.296   8.481   4.440  0.1821 -0.8549  0.9159
 1661THY    CA641524   6.011   8.329   4.452  0.3139  0.1401 -0.0956
 1661THY    HA641525   6.035   8.295   4.552  1.6341  1.8600  0.2309
 1662THY      O41526   0.975   8.573   6.143 -0.1070 -0.3420  0.1864
 1662THY     HO41527   0.993   8.594   6.050  1.7702  0.4463  0.6947
 1662THY    CA141528   1.049   8.658   6.218  0.6078  0.2755  0.5014
 1662THY    CA241529   1.019   8.667   6.360 -0.1447  0.2444  1.0025
 1662THY    CP141530   0.911   8.589   6.424  0.3472  0.4222  0.0100
 1662THY    HP141531   0.893   8.496   6.368  1.1674  0.6785 -0.7025
 1662THY    CP241532   0.950   8.541   6.567 -0.5864 -0.5010 -0.6177
 1662THY    HP241533   0.872   8.469   6.594 -1.4489  1.2206  1.8559
 1662THY    HP341534   1.049   8.495   6.558  0.8837  2.7125 -3.8309
 1662THY    HP441535   0.946   8.620   6.643 -3.4410 -1.5561  0.4620
 1662THY    CP341536   0.784   8.676   6.437 -0.6059 -0.0816 -0.4862
 1662THY    HP541537   0.717   8.603   6.484  1.0628 -0.8755  0.7890
 1662THY    HP641538   0.789   8.767   6.498  0.3948  0.2375 -1.0214
 1662THY    HP741539   0.747   8.711   6.341  0.6452  0.7781 -0.6761
 1662THY    CA341540   1.101   8.759   6.431  0.9172 -0.0460  0.6982
 1662THY    HA341541   1.082   8.775   6.537 -1.6755 -0.8779  0.4255
 1662THY    CA441542   1.183   8.848   6.360 -0.3534  0.2267 -0.3790
 1662THY    HA441543   1.240   8.915   6.424 -0.6332 -0.2713  0.4122
 1662THY    CA541544   1.210   8.835   6.229 -0.0081 -0.1396  0.8319
 1662THY    CM141545   1.315   8.922   6.162  0.1836  0.4669 -0.2678
 1662THY    HM141546   1.262   8.971   6.080 -0.0224  2.0784  0.7923
 1662THY    HM241547   1.334   9.013   6.220  4.0420 -1.0541  1.1819
 1662THY    HM341548   1.400   8.861   6.129  0.5781  0.4477  0.7279
 1662THY    CA641549   1.145   8.739   6.154  0.2411 -0.6874 -0.4198
 1662THY    HA641550   1.177   8.726   6.051 -0.5960  2.2584 -1.1351
 1663THY      O41551   3.882   4.901   0.433 -0.2257 -0.0581 -0.6958
 1663THY     HO41552   3.796   4.945   0.426 -1.1644 -1.6446  0.3448
 1663THY    CA141553   3.944   4.913   0.309  0.4617 -0.3782 -0.1068
 1663THY    CA241554   4.055   4.838   0.271  0.0216 -0.1330  0.0592
 1663THY    CP141555   4.128   4.757   0.380  0.3219  0.3406  0.4269
 1663THY    HP141556   4.077   4.749   0.477  1.8827 -1.9194  1.1363
 1663THY    CP241557   4.157   4.622   0.334 -0.1242  0.6986  0.1171
 1663THY    HP241558   4.066   4.568   0.307 -0.4684  1.0326  0.5791
 1663THY    HP341559   4.232   4.625   0.254  0.5669 -0.9358  0.6575
 1663THY    HP441560   4.202   4.562   0.415 -0.0866  2.3003  1.3525
 1663THY    CP341561   4.253   4.832   0.418  0.0564 -0.2506 -0.1246
 1663THY    HP541562   4.316   4.847   0.330 -0.4041 -0.4661 -0.4949
 1663THY    HP641563   4.220   4.929   0.457  1.3557 -0.1779  0.8437
 1663THY    HP741564   4.315   4.787   0.496  2.7101  0.1400 -1.8784
 1663THY    CA341565   4.096   4.841   0.135 -0.4842  0.0307  0.3609
 1663THY    HA341566   4.179   4.778   0.104  1.2012  2.1108  0.3970
 1663THY    CA441567   4.033   4.925   0.048  0.4997  0.3470 -0.0537
 1663THY    HA441568   4.070   4.950  -0.051 -0.7049  1.3695 -0.2693
 1663THY    CA541569   3.910   4.990   0.088 -0.0909 -0.0924 -0.8114
 1663THY    CM141570   3.832   5.078  -0.008  0.1972 -0.6494 -0.0666
 1663THY    HM141571   3.832   5.180   0.031  3.5456  0.4595 -2.4900
 1663THY    HM241572   3.880   5.077  -0.107 -1.2231  0.1411 -0.7990
 1663THY    HM341573   3.729   5.042  -0.024  0.4662 -1.1070 -0.8510
 1663THY    CA641574   3.871   4.980   0.220  0.3971 -0.8298 -0.2967
 1663THY    HA641575   3.780   5.031   0.248  1.7826  1.2447  0.7324
 1664THY      O41576   4.008   9.750   6.693  0.2174  1.0521  0.2584
 1664THY     HO41577   3.999   9.669   6.640 -2.4400  0.6323  1.1960
 1664THY    CA141578   4.138   9.760   6.725 -0.0997 -0.3917 -0.0791
 1664THY    CA241579   4.204   9.881   6.738  0.3306 -0.2614 -1.1844
 1664THY    CP141580   4.128  10.015   6.728  0.0328  0.0029  0.4998
 1664THY    HP141581   4.021  10.004   6.708 -0.5366  2.4196  1.9079
 1664THY    CP241582   4.133  10.085   6.862 -0.6519 -0.0533  0.5740
 1664THY    HP241583   4.078  10.179   6.852  3.7615  2.7333 -0.2376
 1664THY    HP341584   4.090  10.015   6.935 -2.2347  0.4164  0.1308
 1664THY    HP441585   4.238  10.112   6.877 -1.2886  3.5296 -0.5654
 1664THY    CP341586   4.180  10.114   6.629 -0.0816 -0.4091 -0.0621
 1664THY    HP541587   4.289  10.121   6.632 -0.1160  0.2428 -0.1960
 1664THY    HP641588   4.157  10.086   6.526  0.9226  2.0079 -1.0247
 1664THY    HP741589   4.148  10.216   6.654  0.7595  0.1403 -1.1381
 1664THY    CA341590   4.348   9.869   6.758  0.0918 -0.0183  0.5158
 1664THY    HA341591   4.402   9.961   6.776 -1.4542  1.2406 -0.9552
 1664THY    CA441592   4.413   9.745   6.764 -0.3460 -0.0431 -0.0615
 1664THY    HA441593   4.520   9.739   6.784 -0.4175  0.0415  0.3655
 1664THY    CA541594   4.343   9.626   6.747  0.1785  0.2763  0.0319
 1664THY    CM141595   4.415   9.489   6.775 -0.7577 -0.6749 -0.5243
 1664THY    HM141596   4.351   9.402   6.756 -0.8657 -0.5455 -0.7610
 1664THY    HM241597   4.509   9.474   6.721 -0.4144 -1.4819  0.2614
 1664THY    HM341598   4.454   9.488   6.877 -1.7374  0.2820 -0.1193
 1664THY    CA641599   4.207   9.631   6.725  0.0303 -0.2196  0.8901
 1664THY    HA641600   4.151   9.539   6.721 -0.3311 -0.0185  1.1880
 1665THY      O41601   1.918   0.279   5.421 -0.4268  0.0669 -0.5271
 1665THY     HO41602   1.862   0.258   5.497 -0.5119  0.3100 -0.5214
 1665THY    CA141603   1.844   0.344   5.330  0.0161 -0.2111 -0.5701
 1665THY    CA241604   1.864   0.479   5.304  0.6845  0.0096  0.3758
 1665THY    CP141605   1.965   0.568   5.382  0.5419 -0.6721 -0.6086
 1665THY    HP141606   2.038   0.501   5.430  0.7476 -1.4188 -1.9216
 1665THY    CP241607   2.047   0.655   5.292  0.0513  0.3730  0.1105
 1665THY    HP241608   1.988   0.737   5.251 -0.5432  0.4962  1.1945
 1665THY    HP341609   2.117   0.707   5.358  0.2249 -0.0081  0.2335
 1665THY    HP441610   2.105   0.595   5.220 -0.6219 -0.3582  0.1650
 1665THY    CP341611   1.898   0.652   5.493 -0.2000 -0.2932  0.3007
 1665THY    HP541612   1.836   0.595   5.563 -1.4203  1.3328  0.6205
 1665THY    HP641613   1.972   0.710   5.549 -0.6698  1.6589 -0.9664
 1665THY    HP741614   1.837   0.732   5.448 -0.6867 -1.6630 -1.6187
 1665THY    CA341615   1.779   0.543   5.206 -0.2660  0.2800 -1.2256
 1665THY    HA341616   1.788   0.646   5.172 -1.1656  0.4343 -1.0382
 1665THY    CA441617   1.679   0.466   5.146 -0.5333 -0.0334 -0.5732
 1665THY    HA441618   1.618   0.507   5.066  0.0603 -2.0683 -2.1417
 1665THY    CA541619   1.662   0.337   5.177 -0.6879  0.5619 -0.0803
 1665THY    CM141620   1.558   0.257   5.090  0.2271  0.1463 -0.5322
 1665THY    HM141621   1.569   0.150   5.113  0.5259  0.2509 -0.1773
 1665THY    HM241622   1.458   0.294   5.115 -0.6462 -0.5919 -2.7091
 1665THY    HM341623   1.561   0.286   4.985 -2.1987  0.7724 -0.4788
 1665THY    CA641624   1.746   0.265   5.263 -0.5903  0.0543 -0.4624
 1665THY    HA641625   1.724   0.164   5.295  3.4612 -1.1152 -0.9170
 1666THY      O41626   9.301   9.233   1.807  0.4425 -0.0097 -0.3648
 1666THY     HO41627   9.259   9.284   1.735  0.6228 -0.7009 -0.9789
 1666THY    CA141628   9.353   9.332   1.890 -0.7157  0.6600  0.3087
 1666THY    CA241629   9.299   9.358   2.016 -0.1353 -0.3927  0.0364
 1666THY    CP141630   9.191   9.259   2.076 -1.0994 -0.3107 -0.0222
 1666THY    HP141631   9.217   9.160   2.037 -0.3035 -1.1351  2.3703
 1666THY    CP241632   9.189   9.238   2.230 -0.0319  0.1505  0.6833
 1666THY    HP241633   9.294   9.244   2.260  0.9037  3.0729 -2.5351
 1666THY    HP341634   9.151   9.322   2.291  2.0911  2.3636 -0.8627
 1666THY    HP441635   9.137   9.145   2.255 -0.8957  0.3997 -0.1225
 1666THY    CP341636   9.054   9.297   2.029  0.6083 -0.2967  0.3676
 1666THY    HP541637   9.048   9.333   1.926  0.1758  0.6234  0.7022
 1666THY    HP641638   9.001   9.202   2.029 -1.6130  0.8567 -1.1496
 1666THY    HP741639   8.997   9.359   2.099  0.4947 -0.0763  0.0827
 1666THY    CA341640   9.361   9.454   2.096  0.0832  0.6311  0.5927
 1666THY    HA341641   9.325   9.483   2.194 -0.5769 -0.6782  0.7499
 1666THY    CA441642   9.481   9.511   2.056  0.2581 -0.5505  0.2506
 1666THY    HA441643   9.527   9.586   2.119 -0.1024 -0.3557  0.2809
 1666THY    CA541644   9.535   9.480   1.930  0.0033  0.7456  0.3284
 1666THY    CM141645   9.675   9.520   1.890  0.0883 -0.4640 -0.6597
 1666THY    HM141646   9.717   9.460   1.809 -2.2017 -0.9984 -1.5076
 1666THY    HM241647   9.672   9.626   1.863  0.1538  0.4166  2.3466
 1666THY    HM341648   9.738   9.517   1.980  0.1344 -0.0683 -0.6744
 1666THY    CA641649   9.468   9.392   1.855 -0.0910  0.2800 -0.7109
 1666THY    HA641650   9.520   9.372   1.761  1.7667  1.5795 -0.0203
 1667THY      O41651   5.301   6.000   7.223 -0.5882  0.2612 -0.1687
 1667THY     HO41652   5.291   6.097   7.222  1.4751  0.5824  2.2667
 1667THY    CA141653   5.333   5.952   7.346 -0.7229  0.3988 -0.1427
 1667THY    CA241654   5.305   5.820   7.390 -0.2732 -0.1700  0.1139
 1667THY    CP141655   5.238   5.723   7.289 -0.5156  0.5015  0.0715
 1667THY    HP141656   5.217   5.770   7.192  1.5237  2.3498  0.4524
 1667THY    CP241657   5.335   5.608   7.268 -0.1361 -0.5233 -0.0687
 1667THY    HP241658   5.437   5.637   7.241 -0.4235 -0.4985 -1.1642
 1667THY    HP341659   5.331   5.544   7.357 -3.5257 -0.4652 -0.0368
 1667THY    HP441660   5.285   5.548   7.191  2.2798 -0.3518 -1.8853
 1667THY    CP341661   5.101   5.675   7.339 -0.4484 -0.9758  0.0207
 1667THY    HP541662   5.027   5.754   7.321  0.5206 -0.6733 -3.2267
 1667THY    HP641663   5.079   5.584   7.283 -2.8785  1.6322 -3.7116
 1667THY    HP741664   5.103   5.657   7.447 -1.0920  0.5364  0.3186
 1667THY    CA341665   5.345   5.781   7.520 -0.8584 -0.4292  0.2191
 1667THY    HA341666   5.323   5.683   7.562 -0.9140 -0.0191  1.1820
 1667THY    CA441667   5.406   5.875   7.603  0.2051 -0.4263 -0.0211
 1667THY    HA441668   5.424   5.851   7.707 -1.0296 -1.1439  0.0388
 1667THY    CA541669   5.415   6.010   7.560  0.6857  0.4683 -0.4342
 1667THY    CM141670   5.473   6.113   7.642  0.3604 -0.3764 -0.1972
 1667THY    HM141671   5.578   6.114   7.611  0.5018  1.5355  0.2416
 1667THY    HM241672   5.424   6.210   7.625 -0.3566 -0.1689  2.5157
 1667THY    HM341673   5.477   6.107   7.751 -1.4258 -0.2941 -0.0993
 1667THY    CA641674   5.383   6.047   7.433 -0.4986 -0.9683  0.3763
 1667THY    HA641675   5.403   6.149   7.401 -0.0483 -1.1261  0.1450
 1668THY      O41676   1.423   6.678   2.656  0.2203  0.0184  0.3454
 1668THY     HO41677   1.507   6.689   2.609  1.0315 -1.5767  1.3111
 1668THY    CA141678   1.447   6.711   2.786 -0.4884 -0.3741 -0.5489
 1668THY    CA241679   1.353   6.788   2.873  0.2092  0.2283  0.6463
 1668THY    CP141680   1.212   6.824   2.822 -0.1831  0.2459 -0.2748
 1668THY    HP141681   1.230   6.870   2.724 -1.6415  0.1591 -0.6031
 1668THY    CP241682   1.128   6.695   2.791 -0.0770 -0.4606  0.3295
 1668THY    HP241683   1.196   6.627   2.738 -0.7205 -0.7666 -0.1198
 1668THY    HP341684   1.088   6.654   2.885  0.4195 -0.3282  0.6033
 1668THY    HP441685   1.044   6.727   2.729  0.4567  0.7915  0.2329
 1668THY    CP341686   1.127   6.912   2.921 -0.7591 -0.5859  0.6359
 1668THY    HP541687   1.031   6.920   2.867 -0.5153 -0.3462  0.2334
 1668THY    HP641688   1.105   6.868   3.019 -2.5331 -1.2207 -0.0038
 1668THY    HP741689   1.167   7.014   2.928  0.5925 -0.9297 -1.3651
 1668THY    CA341690   1.400   6.834   2.988  0.0079  0.0074 -1.2345
 1668THY    HA341691   1.330   6.878   3.059 -0.3661 -4.8558  1.9206
 1668THY    CA441692   1.532   6.805   3.035  0.3003  0.0837  0.8534
 1668THY    HA441693   1.561   6.847   3.131  0.0435 -0.6715  1.2648
 1668THY    CA541694   1.616   6.723   2.959  0.6051 -0.1451 -0.4398
 1668THY    CM141695   1.755   6.692   3.011 -0.0392  0.3406 -0.2307
 1668THY    HM141696   1.747   6.660   3.116 -0.4747  1.1700 -0.0041
 1668THY    HM241697   1.797   6.601   2.966  0.0920 -0.2794  1.0924
 1668THY    HM341698   1.826   6.773   2.993  0.1357  0.1749 -0.2840
 1668THY    CA641699   1.571   6.677   2.835 -0.6248 -0.1503 -0.2588
 1668THY    HA641700   1.647   6.625   2.778  0.3131  0.3807  0.4908
 1669THY      O41701   3.299   2.442   3.673  0.5797 -0.0387  0.1699
 1669THY     HO41702   3.242   2.507   3.717 -2.6355 -2.7466  0.3822
 1669THY    CA141703   3.421   2.468   3.719 -0.0177  0.4154  0.5481
 1669THY    CA241704   3.513   2.371   3.752 -0.0825  0.6788 -0.1472
 1669THY    CP141705   3.474   2.226   3.736  0.0942  0.1934  1.4322
 1669THY    HP141706   3.370   2.205   3.708  0.5283 -0.7284  0.4416
 1669THY    CP241707   3.548   2.149   3.619 -0.1027 -0.8649 -0.2162
 1669THY    HP241708   3.525   2.043   3.604  2.0207 -1.3370 -0.4800
 1669THY    HP341709   3.524   2.194   3.521 -1.9471  0.9607  0.9983
 1669THY    HP441710   3.656   2.167   3.627 -0.4256  0.2045  2.9657
 1669THY    CP341711   3.492   2.149   3.867 -0.6932 -0.2483 -0.2875
 1669THY    HP541712   3.424   2.177   3.949 -0.0189 -1.1157  0.5895
 1669THY    HP641713   3.471   2.043   3.852  0.3582 -0.3117 -1.3719
 1669THY    HP741714   3.593   2.159   3.906 -1.2823  0.2828  1.1693
 1669THY    CA341715   3.646   2.411   3.782  0.8238  0.4184  0.3384
 1669THY    HA341716   3.716   2.330   3.800 -1.8517 -2.5114 -1.3848
 1669THY    CA441717   3.681   2.544   3.794  0.0806  0.4893  0.3998
 1669THY    HA441718   3.779   2.569   3.833 -0.5227  0.0699  2.2809
 1669THY    CA541719   3.585   2.643   3.765  0.5553  0.2162  0.0683
 1669THY    CM141720   3.611   2.788   3.801  0.3742  0.2748 -0.0363
 1669THY    HM141721   3.589   2.805   3.907  0.6500 -0.6091  0.1676
 1669THY    HM241722   3.714   2.825   3.796 -0.8027  4.2165  0.6340
 1669THY    HM341723   3.542   2.846   3.739 -0.2739  1.4416  1.6682
 1669THY    CA641724   3.458   2.608   3.720  0.0165 -0.1895  0.0549
 1669THY    HA641725   3.394   2.693   3.696  1.5615  1.2599  0.8456
 1670THY      O41726   1.226   1.995   8.441  0.4225 -0.1817 -0.2618
 1670THY     HO41727   1.240   2.050   8.521 -1.5144  0.6027 -0.4198
 1670THY    CA141728   1.343   1.978   8.382  0.1755  0.1305  0.0149
 1670THY    CA241729   1.361   1.898   8.264  0.6561  0.4323  0.1778
 1670THY    CP141730   1.249   1.804   8.213 -0.5677 -0.4953  0.5211
 1670THY    HP141731   1.161   1.815   8.279 -0.2753  0.2524  0.8011
 1670THY    CP241732   1.209   1.843   8.065 -0.3551  0.4586 -1.0268
 1670THY    HP241733   1.119   1.784   8.041  0.2539 -0.4557 -1.1074
 1670THY    HP341734   1.195   1.950   8.045  0.0149  0.3805 -1.7073
 1670THY    HP441735   1.291   1.811   8.001  1.6327  0.4529  1.3699
 1670THY    CP341736   1.293   1.660   8.227  0.1720 -0.1607 -0.1826
 1670THY    HP541737   1.375   1.642   8.157  1.1122 -2.5252  1.3895
 1670THY    HP641738   1.337   1.632   8.324  2.6687 -0.5146 -1.3415
 1670THY    HP741739   1.224   1.579   8.202  1.2778 -1.2900  0.2775
 1670THY    CA341740   1.482   1.903   8.194 -0.1615 -0.2699  0.1227
 1670THY    HA341741   1.495   1.837   8.109  0.0203  1.7781 -1.5233
 1670THY    CA441742   1.585   1.983   8.236  0.3201 -0.9507 -0.1057
 1670THY    HA441743   1.677   1.986   8.178 -2.1831  0.6702 -4.5195
 1670THY    CA541744   1.561   2.062   8.348 -0.5129 -0.2882  0.5560
 1670THY    CM141745   1.672   2.147   8.397 -0.0108 -0.4269  0.6139
 1670THY    HM141746   1.766   2.133   8.343  1.2390 -0.1394  2.5840
 1670THY    HM241747   1.659   2.255   8.386  3.9251 -0.0205 -1.8430
 1670THY    HM341748   1.690   2.121   8.503 -2.5242 -1.3359  0.8840
 1670THY    CA641749   1.439   2.069   8.422 -0.1271  0.4917 -0.6716
 1670THY    HA641750   1.429   2.147   8.496  4.2942 -0.1756  0.9708
 1671THY      O41751   5.150   4.359   5.411 -0.1798  0.4392 -0.3672
 1671THY     HO41752   5.207   4.369   5.490  0.8843 -1.5928 -0.8157
 1671THY    CA141753   5.200   4.247   5.352 -0.7425 -0.0766 -0.5088
 1671THY    CA241754   5.117   4.136   5.319 -0.1391  0.6962 -0.3228
 1671THY    CP141755   4.981   4.137   5.387  0.0131 -0.8174  1.0887
 1671THY    HP141756   4.983   4.205   5.474  2.6095  1.1972 -0.3911
 1671THY    CP241757   4.872   4.191   5.290  0.2707 -0.1270 -0.6595
 1671THY    HP241758   4.782   4.203   5.352 -0.8128  0.8529 -2.3608
 1671THY    HP341759   4.898   4.294   5.263 -0.8072 -0.1494 -1.8482
 1671THY    HP441760   4.855   4.134   5.198 -1.1964  1.3771 -1.3688
 1671THY    CP341761   4.934   4.005   5.433  0.0245  0.5868  0.2828
 1671THY    HP541762   4.924   3.933   5.351 -0.0991 -0.8685  1.5093
 1671THY    HP641763   4.993   3.957   5.513  2.3511 -0.6426 -2.0081
 1671THY    HP741764   4.834   4.022   5.474 -1.3503 -3.0864 -1.1386
 1671THY    CA341765   5.170   4.022   5.258  0.0657 -0.0425  0.6518
 1671THY    HA341766   5.115   3.930   5.239  0.8542 -0.5810  0.9448
 1671THY    CA441767   5.308   4.022   5.233 -0.0673 -0.4032 -0.4771
 1671THY    HA441768   5.358   3.935   5.193 -0.1780 -1.4243  1.4852
 1671THY    CA541769   5.390   4.127   5.270  0.4265 -0.3648  0.5405
 1671THY    CM141770   5.532   4.114   5.231 -0.1478 -0.1650 -0.3898
 1671THY    HM141771   5.565   4.198   5.169 -1.2203 -0.0598 -0.8331
 1671THY    HM241772   5.584   4.128   5.326  0.6125  0.2051 -0.8490
 1671THY    HM341773   5.564   4.020   5.185 -0.5941  0.5409 -2.2352
 1671THY    CA641774   5.341   4.244   5.333  0.6570  0.2424  0.1546
 1671THY    HA641775   5.412   4.324   5.355  0.2021  0.4840  0.7909
 1672THY      O41776   5.491   3.167   3.972  0.2110  0.2616 -0.2736
 1672THY     HO41777   5.437   3.247   3.953 -0.3848 -0.5084 -2.0806
 1672THY    CA141778   5.618   3.213   3.978 -0.0852 -0.9948  0.1803
 1672THY    CA241779   5.693   3.212   4.096 -0.1026 -0.1223 -0.1236
 1672THY    CP141780   5.646   3.146   4.226  0.0860  0.5105  0.6446
 1672THY    HP141781   5.544   3.108   4.211 -1.0616  2.9817  1.6757
 1672THY    CP241782   5.738   3.026   4.268 -0.2273  0.3857  0.5900
 1672THY    HP241783   5.836   3.058   4.303  0.2568 -0.3517 -0.0478
 1672THY    HP341784   5.690   2.968   4.348 -3.0606  2.2742  0.4402
 1672THY    HP441785   5.757   2.963   4.181  1.4663 -1.0635  1.9298
 1672THY    CP341786   5.627   3.240   4.346 -0.0777  0.1250 -0.0222
 1672THY    HP541787   5.727   3.272   4.377 -1.0090  2.6099  0.6176
 1672THY    HP641788   5.563   3.325   4.323 -1.1527 -0.3953  0.9514
 1672THY    HP741789   5.580   3.183   4.427  0.9581 -1.2542 -0.3415
 1672THY    CA341790   5.822   3.259   4.095  0.5804 -0.1105 -1.0148
 1672THY    HA341791   5.882   3.256   4.186 -2.0999  0.2177  0.8909
 1672THY    CA441792   5.881   3.297   3.970  0.5705  0.2317 -0.3560
 1672THY    HA441793   5.983   3.333   3.975 -0.0741  1.9708  2.8092
 1672THY    CA541794   5.810   3.299   3.852 -0.0247  0.2881  0.0886
 1672THY    CM141795   5.872   3.332   3.722  0.7107  0.9195 -0.6964
 1672THY    HM141796   5.903   3.241   3.671 -2.5808 -0.5158 -0.3867
 1672THY    HM241797   5.795   3.386   3.666  0.2239 -0.6368 -1.5654
 1672THY    HM341798   5.966   3.389   3.729  0.6881  1.1129 -1.8451
 1672THY    CA641799   5.672   3.268   3.861  0.1262 -0.2320 -0.0861
 1672THY    HA641800   5.610   3.267   3.772  0.6912  0.4093 -0.4963
 1673THY      O41801   8.031   6.832   4.359  0.3597  0.0254  0.3206
 1673THY     HO41802   8.071   6.750   4.324  1.4881  0.2737  0.9802
 1673THY    CA141803   8.098   6.840   4.476  0.5273 -0.2145  0.4246
 1673THY    CA241804   8.092   6.946   4.557 -0.9961 -0.0892 -0.0156
 1673THY    CP141805   7.994   7.056   4.523 -0.3118 -0.2496  0.9837
 1673THY    HP141806   7.909   7.022   4.462  0.1276  1.1070 -0.4458
 1673THY    CP241807   7.940   7.129   4.645  0.3524 -0.0714 -0.1765
 1673THY    HP241808   7.916   7.058   4.726 -0.0723 -0.2385 -0.4457
 1673THY    HP341809   8.011   7.205   4.679  0.2187  1.1740 -2.4817
 1673THY    HP441810   7.847   7.171   4.607  0.7833 -0.0641 -1.2570
 1673THY    CP341811   8.063   7.159   4.429  0.5884 -0.5349  0.2039
 1673THY    HP541812   8.096   7.100   4.342 -1.4468 -1.7184  0.1571
 1673THY    HP641813   7.996   7.238   4.392  1.0102 -1.3549 -2.5661
 1673THY    HP741814   8.149   7.200   4.483 -0.6339 -0.9891  2.6317
 1673THY    CA341815   8.181   6.964   4.664  0.1513  0.1405 -0.0392
 1673THY    HA341816   8.167   7.051   4.727 -1.6069  2.7849 -3.7019
 1673THY    CA441817   8.261   6.849   4.694 -0.4423 -0.5830  0.0838
 1673THY    HA441818   8.324   6.847   4.783  2.0012 -0.6979 -1.5640
 1673THY    CA541819   8.265   6.731   4.612  0.1883  0.2640 -0.2384
 1673THY    CM141820   8.350   6.605   4.637 -0.2257  0.0591  0.4254
 1673THY    HM141821   8.340   6.532   4.556  1.8486  1.3399 -1.0729
 1673THY    HM241822   8.459   6.622   4.636  0.5267 -3.9157  0.3137
 1673THY    HM341823   8.322   6.552   4.729  0.0932  0.3142  0.6772
 1673THY    CA641824   8.186   6.732   4.494 -0.1158  0.2752  0.4657
 1673THY    HA641825   8.185   6.645   4.429  0.9432 -0.2703  1.1528
 1674THY      O41826   9.127   0.468   0.865 -0.5449  0.5193  0.6579
 1674THY     HO41827   9.076   0.438   0.788 -2.1330 -1.2542  2.2816
 1674THY    CA141828   9.060   0.414   0.968  0.3261 -0.0358 -0.2667
 1674THY    CA241829   9.036   0.483   1.089 -0.1711 -0.3664  0.3669
 1674THY    CP141830   9.091   0.626   1.100  0.4362  0.0352 -0.1027
 1674THY    HP141831   9.181   0.648   1.040  0.1728 -0.6662 -0.7699
 1674THY    CP241832   8.965   0.710   1.076  0.1938  0.0315  0.9144
 1674THY    HP241833   9.001   0.813   1.086  0.6420 -0.1299  0.9913
 1674THY    HP341834   8.923   0.686   0.977  1.2249  0.5595  0.3343
 1674THY    HP441835   8.891   0.681   1.152  0.0557  0.8608  1.0993
 1674THY    CP341836   9.158   0.664   1.234  0.1892 -0.6561 -0.2723
 1674THY    HP541837   9.079   0.683   1.307  0.2078 -0.8379 -0.2039
 1674THY    HP641838   9.215   0.585   1.284  1.5467  0.5611  0.1324
 1674THY    HP741839   9.233   0.742   1.215  0.6627 -1.9805 -5.5381
 1674THY    CA341840   8.995   0.410   1.200 -1.0234  0.0958  0.6799
 1674THY    HA341841   8.987   0.463   1.295  0.5356 -1.0887  1.5229
 1674THY    CA441842   8.964   0.271   1.181  0.0088 -1.1578  0.3076
 1674THY    HA441843   8.937   0.210   1.267 -0.3195 -0.9652  0.3459
 1674THY    CA541844   8.977   0.208   1.055  0.4064  0.1661 -1.0185
 1674THY    CM141845   8.942   0.063   1.041 -0.4884 -0.5280  0.4697
 1674THY    HM141846   8.837   0.054   1.012 -0.1441  0.7310 -1.2919
 1674THY    HM241847   9.000   0.020   0.958  1.0817 -1.1014  1.7984
 1674THY    HM341848   8.956  -0.000   1.130 -0.8259 -0.0582  0.8642
 1674THY    CA641849   9.031   0.281   0.950 -0.5811  0.0550 -0.2914
 1674THY    HA641850   9.055   0.229   0.858  2.6262 -0.2880  0.6152
 1675THY      O41851   1.499   1.217   5.423 -0.4744 -0.5728  0.4339
 1675THY     HO41852   1.474   1.190   5.333  1.1791 -1.2915  0.1516
 1675THY    CA141853   1.542   1.113   5.492  0.3362  0.5204  0.0967
 1675THY    CA241854   1.606   1.115   5.618 -0.5616 -0.9691  0.2069
 1675THY    CP141855   1.637   1.243   5.693  0.2715  0.3748 -0.4894
 1675THY    HP141856   1.616   1.331   5.631 -0.9648 -1.9653 -3.6501
 1675THY    CP241857   1.554   1.238   5.825  0.6261  0.3615 -0.1546
 1675THY    HP241858   1.582   1.166   5.903 -2.9280 -0.9082  0.1358
 1675THY    HP341859   1.542   1.336   5.872 -0.4625 -1.0433  2.7167
 1675THY    HP441860   1.452   1.204   5.803  0.4804  0.8399 -0.2280
 1675THY    CP341861   1.787   1.255   5.725 -0.0198  0.1202  0.4971
 1675THY    HP541862   1.856   1.225   5.646 -0.5523  0.1605  0.0136
 1675THY    HP641863   1.810   1.361   5.742 -2.1420  0.6145  0.6368
 1675THY    HP741864   1.811   1.198   5.816 -0.2273 -0.3157  0.2806
 1675THY    CA341865   1.640   0.991   5.674  0.0292  0.4076 -0.2107
 1675THY    HA341866   1.698   0.981   5.766 -1.1521  0.6437  0.5803
 1675THY    CA441867   1.607   0.865   5.613 -0.2009 -0.0721 -0.2305
 1675THY    HA441868   1.632   0.770   5.659  3.4445  0.4768 -0.7467
 1675THY    CA541869   1.542   0.869   5.489 -0.6900 -0.2706  0.7451
 1675THY    CM141870   1.505   0.749   5.421  0.6510  0.8610  0.3047
 1675THY    HM141871   1.421   0.762   5.352  0.6247  0.4805  0.2603
 1675THY    HM241872   1.585   0.712   5.356 -0.6225  0.7223 -1.2218
 1675THY    HM341873   1.479   0.674   5.496 -2.7379 -0.1273 -1.6375
 1675THY    CA641874   1.516   0.991   5.426 -0.3822 -0.0723  0.8513
 1675THY    HA641875   1.456   0.984   5.336  0.5139 -1.8940  0.3587
 1676THY      O41876   9.689   5.615   0.893  0.1896 -0.0457  0.0566
 1676THY     HO41877   9.693   5.636   0.987  0.5804 -1.2864  0.3443
 1676THY    CA141878   9.776   5.518   0.879  0.3010  0.5905  0.3225
 1676THY    CA241879   9.809   5.453   0.760 -0.3153  0.4754 -0.2580
 1676THY    CP141880   9.740   5.491   0.626 -0.0192 -0.2432 -0.1122
 1676THY    HP141881   9.657   5.561   0.641 -0.1351 -0.1927 -0.9333
 1676THY    CP241882   9.839   5.563   0.530 -0.8373 -0.5533  0.1833
 1676THY    HP241883   9.811   5.569   0.424  0.1427  1.9983  0.0049
 1676THY    HP341884   9.866   5.664   0.563  1.8516  0.1273 -3.3881
 1676THY    HP441885   9.932   5.505   0.536 -2.5628 -4.1351 -2.9783
 1676THY    CP341886   9.679   5.368   0.554 -0.3683 -0.8178  0.5146
 1676THY    HP541887   9.616   5.299   0.611  0.0128 -0.0529  1.9013
 1676THY    HP641888   9.614   5.404   0.473  0.8190  0.3182  0.0193
 1676THY    HP741889   9.764   5.313   0.514  1.0358  1.5591  0.0307
 1676THY    CA341890   9.907   5.352   0.755 -0.0682  0.4640 -0.6259
 1676THY    HA341891   9.943   5.316   0.659 -0.9987 -0.9579 -0.4703
 1676THY    CA441892   9.973   5.320   0.878 -0.2069 -0.1397 -0.2242
 1676THY    HA441893  10.051   5.246   0.884  1.1038  1.2568  0.7907
 1676THY    CA541894   9.924   5.373   0.998 -0.2028  0.3008 -0.2722
 1676THY    CM141895   9.998   5.351   1.124  0.3701  0.1413 -0.4362
 1676THY    HM141896  10.062   5.438   1.141 -0.3627  0.4709  0.7593
 1676THY    HM241897   9.945   5.325   1.216 -0.9539  0.0888 -1.1788
 1676THY    HM341898  10.064   5.264   1.111 -2.1524 -1.7532 -1.7461
 1676THY    CA641899   9.830   5.469   0.995 -0.7240 -0.4686  0.4065
 1676THY    HA641900   9.802   5.509   1.092  1.5210 -0.2481  1.0238
 1677THY      O41901   4.150   5.525   2.074 -0.3264  0.9290 -0.0044
 1677THY     HO41902   4.055   5.507   2.073 -0.5089  0.9489  3.5579
 1677THY    CA141903   4.213   5.409   2.100  0.4972  0.2016  0.5255
 1677THY    CA241904   4.332   5.411   2.176  0.1137  0.3888  0.1322
 1677THY    CP141905   4.402   5.538   2.208  0.0916 -0.3318  0.6291
 1677THY    HP141906   4.339   5.627   2.197 -1.9254 -1.6701  0.8140
 1677THY    CP241907   4.450   5.547   2.357 -0.0562 -0.5785 -0.0119
 1677THY    HP241908   4.515   5.634   2.372  2.1411 -1.6259 -2.6696
 1677THY    HP341909   4.361   5.562   2.418 -1.3081 -1.0076 -1.6679
 1677THY    HP441910   4.498   5.457   2.398 -0.8513 -0.4824  1.1911
 1677THY    CP341911   4.538   5.546   2.130  0.2066  0.2453 -0.3476
 1677THY    HP541912   4.624   5.481   2.150 -1.2070 -1.7302 -0.3989
 1677THY    HP641913   4.515   5.563   2.024 -0.8635  1.5415  0.0627
 1677THY    HP741914   4.571   5.649   2.151 -0.6234  0.4036  0.2376
 1677THY    CA341915   4.382   5.288   2.222  0.2880 -0.1537 -0.2342
 1677THY    HA341916   4.474   5.281   2.280 -0.3352  1.7974  1.1139
 1677THY    CA441917   4.317   5.165   2.188  0.2998  0.1260  0.1558
 1677THY    HA441918   4.363   5.069   2.206  2.7337  0.6557 -2.5556
 1677THY    CA541919   4.196   5.169   2.113  0.1479  0.4954 -0.5871
 1677THY    CM141920   4.124   5.042   2.088  0.8542 -0.0898  0.3265
 1677THY    HM141921   4.017   5.062   2.094  0.6632 -0.6495 -0.8326
 1677THY    HM241922   4.122   5.010   1.983 -2.6253 -1.3913  0.6508
 1677THY    HM341923   4.162   4.955   2.143  3.0285  0.6531  0.1239
 1677THY    CA641924   4.140   5.290   2.073  0.3215 -0.0015 -0.0177
 1677THY    HA641925   4.051   5.288   2.011  0.2055 -2.5636  0.1295
 1678THY      O41926   3.437   8.786   0.177 -0.7320  0.5219  0.5019
 1678THY     HO41927   3.459   8.700   0.137  0.3398  0.5884  0.9088
 1678THY    CA141928   3.388   8.867   0.077  0.3566  0.4294 -0.3054
 1678THY    CA241929   3.361   9.001   0.102  0.1501 -0.1431 -0.6668
 1678THY    CP141930   3.380   9.066   0.241  0.2261  0.0520 -0.5208
 1678THY    HP141931   3.467   9.020   0.290 -0.0401  0.3501  0.2555
 1678THY    CP241932   3.415   9.216   0.238 -0.5974 -0.0849  0.0017
 1678THY    HP241933   3.322   9.273   0.226 -0.2930  0.3791 -0.2205
 1678THY    HP341934   3.464   9.234   0.334  0.1109  0.5487 -0.4710
 1678THY    HP441935   3.477   9.240   0.151  0.5141  0.9699  1.0489
 1678THY    CP341936   3.255   9.049   0.337 -0.0884 -0.7339  1.2492
 1678THY    HP541937   3.281   9.100   0.430  1.0774  1.7598 -0.3153
 1678THY    HP641938   3.178   9.101   0.280 -1.2136 -1.2830  2.2338
 1678THY    HP741939   3.227   8.943   0.346 -3.0292 -0.3720 -1.7774
 1678THY    CA341940   3.294   9.066  -0.000 -0.4641 -0.4478 -0.1063
 1678THY    HA341941   3.253   9.166   0.010  0.3957 -0.1311  0.2848
 1678THY    CA441942   3.271   9.006  -0.128 -0.1688  0.4848  0.2903
 1678THY    HA441943   3.219   9.060  -0.207 -0.0710  0.5052  0.2401
 1678THY    CA541944   3.312   8.871  -0.146 -0.2838  1.0503  0.4751
 1678THY    CM141945   3.286   8.790  -0.271  0.5245  0.2680  0.4410
 1678THY    HM141946   3.287   8.856  -0.358  0.0538  0.0357  0.2533
 1678THY    HM241947   3.361   8.710  -0.278 -0.5658 -0.7189 -0.2869
 1678THY    HM341948   3.182   8.756  -0.265  0.5412  0.2559  0.6675
 1678THY    CA641949   3.369   8.804  -0.045 -0.1870  0.5992 -0.3191
 1678THY    HA641950   3.383   8.698  -0.061 -0.4144 -0.0153  2.7854
 1679THY      O41951   6.954   1.736   8.884  0.1233  0.3043  0.2267
 1679THY     HO41952   6.904   1.653   8.891 -0.2234  0.3276 -1.4374
 1679THY    CA141953   7.071   1.725   8.947  0.9503  0.1159 -0.8382
 1679THY    CA241954   7.134   1.827   9.017  0.4340 -0.0333  0.0053
 1679THY    CP141955   7.074   1.970   9.011  0.4906 -0.0982  0.4071
 1679THY    HP141956   6.968   1.967   8.984  0.8497 -1.0054 -0.9794
 1679THY    CP241957   7.089   2.042   9.149  0.6399 -0.2498 -0.0571
 1679THY    HP241958   7.054   1.990   9.239  0.4879 -3.6933 -1.9319
 1679THY    HP341959   7.195   2.070   9.153  0.5247  0.1589  0.2077
 1679THY    HP441960   7.042   2.141   9.144  3.0287  1.1037  2.1089
 1679THY    CP341961   7.130   2.042   8.889 -0.0369 -0.3385 -0.0006
 1679THY    HP541962   7.091   1.997   8.797 -1.7043 -1.8801  1.3888
 1679THY    HP641963   7.101   2.148   8.892  1.2817  0.0286  2.3240
 1679THY    HP741964   7.240   2.046   8.892 -0.0260 -0.3525 -0.3546
 1679THY    CA341965   7.246   1.797   9.098 -0.1214 -0.0305 -0.4269
 1679THY    HA341966   7.299   1.875   9.152  0.6716 -1.4222  0.9122
 1679THY    CA441967   7.282   1.663   9.122 -0.4671  0.0869  0.1344
 1679THY    HA441968   7.364   1.635   9.187 -0.6057 -2.2386 -0.6049
 1679THY    CA541969   7.216   1.562   9.051  0.2982  0.9842 -0.1081
 1679THY    CM141970   7.247   1.414   9.075 -0.4164  0.5229 -0.3662
 1679THY    HM141971   7.354   1.395   9.095 -0.4619  2.1633  1.8373
 1679THY    HM241972   7.204   1.363   9.162  0.9317 -0.2576 -0.1267
 1679THY    HM341973   7.230   1.353   8.985  2.6519  2.3931 -2.4181
 1679THY    CA641974   7.116   1.594   8.964  0.9138  0.4623 -0.0831
 1679THY    HA641975   7.066   1.514   8.910  1.1030 -1.0694  1.9221
 1680THY      O41976   7.012   3.493   3.243 -0.2258 -0.0452  0.2293
 1680THY     HO41977   7.011   3.527   3.152 -1.1218  0.3734  0.3838
 1680THY    CA141978   7.085   3.580   3.316 -0.0012 -0.0129  0.4782
 1680THY    CA241979   7.164   3.537   3.421  0.1726  0.7286  0.7365
 1680THY    CP141980   7.169   3.390   3.450  0.0557 -0.0801 -0.5105
 1680THY    HP141981   7.079   3.337   3.416  0.9587 -1.1303 -1.3165
 1680THY    CP241982   7.284   3.329   3.379 -0.7480  0.1227 -0.2987
 1680THY    HP241983   7.378   3.362   3.425 -0.8549 -1.8168  1.4409
 1680THY    HP341984   7.279   3.220   3.389 -0.8114  0.3098  2.4262
 1680THY    HP441985   7.286   3.369   3.277 -1.4061 -1.1038 -0.8124
 1680THY    CP341986   7.188   3.357   3.598 -0.0288  0.2984 -0.5446
 1680THY    HP541987   7.105   3.395   3.659  0.2004  1.5082 -0.9697
 1680THY    HP641988   7.189   3.248   3.612 -0.5040  0.2938 -0.5294
 1680THY    HP741989   7.279   3.401   3.639  0.7515  0.0728 -1.9834
 1680THY    CA341990   7.250   3.634   3.481  0.6878  0.4394  0.2563
 1680THY    HA341991   7.324   3.601   3.554  2.4339  2.9289 -0.2654
 1680THY    CA441992   7.238   3.770   3.450  0.4681  0.7434  0.2099
 1680THY    HA441993   7.294   3.843   3.507  2.6922  0.2502 -1.2278
 1680THY    CA541994   7.139   3.806   3.356  0.1409 -0.3954 -0.2997
 1680THY    CM141995   7.103   3.950   3.341 -0.2168 -0.4426 -0.2011
 1680THY    HM141996   7.194   4.010   3.340  1.3584 -2.7010  0.0061
 1680THY    HM241997   7.032   3.959   3.257 -2.4359 -1.3602  1.4689
 1680THY    HM341998   7.046   3.984   3.428 -1.1174 -1.4547 -0.3825
 1680THY    CA641999   7.070   3.713   3.285 -0.7151 -0.3123  0.0069
 1680THY    HA642000   7.010   3.756   3.205 -0.7849  1.3210  0.8842
 1681THY      O42001   2.944   5.174   9.456  0.5104  0.2084  0.0489
 1681THY     HO42002   2.966   5.079   9.465  0.5185  0.2000 -0.0571
 1681THY    CA142003   2.938   5.229   9.582 -0.2222  0.5206  0.6734
 1681THY    CA242004   2.928   5.369   9.602  0.3465  0.3456  0.5407
 1681THY    CP142005   2.902   5.460   9.479 -0.0060 -0.3790 -0.5488
 1681THY    HP142006   2.859   5.400   9.398  0.9282 -2.1008  0.1771
 1681THY    CP242007   2.797   5.565   9.507  0.4384 -0.2504  0.0214
 1681THY    HP242008   2.700   5.518   9.531  0.3435 -2.2713 -3.6056
 1681THY    HP342009   2.825   5.647   9.574 -2.3718 -0.0511  1.0906
 1681THY    HP442010   2.771   5.611   9.411  0.4349  0.6101  0.4290
 1681THY    CP342011   3.031   5.523   9.421 -0.0981  0.7994 -0.4606
 1681THY    HP542012   3.106   5.448   9.394 -2.0210 -1.5618  0.4180
 1681THY    HP642013   3.005   5.586   9.336 -2.0604  0.3360 -0.2471
 1681THY    HP742014   3.076   5.582   9.502 -2.1400 -1.0264  2.1675
 1681THY    CA342015   2.935   5.415   9.730  0.6016 -0.4746 -0.5533
 1681THY    HA342016   2.919   5.521   9.743 -0.9080 -0.8281  0.6862
 1681THY    CA442017   2.951   5.325   9.842  0.3601 -0.2536  0.2192
 1681THY    HA442018   2.950   5.360   9.945 -0.4578 -1.0362  0.4880
 1681THY    CA542019   2.977   5.189   9.820  0.2286 -0.3465 -0.4642
 1681THY    CM142020   3.016   5.104   9.935 -0.2958 -0.7293  0.3727
 1681THY    HM142021   2.985   4.999   9.933  1.1176 -1.1870  1.1804
 1681THY    HM242022   3.126   5.106   9.931 -0.2928  2.6375 -1.5943
 1681THY    HM342023   2.971   5.146  10.025 -0.2905  1.1470 -0.4528
 1681THY    CA642024   2.975   5.143   9.692  0.1436  0.3679 -0.1251
 1681THY    HA642025   3.009   5.042   9.672  0.8021  0.7100 -0.7821
 1682THY      O42026   8.540   8.049   3.687  0.1513  0.3282  0.1623
 1682THY     HO42027   8.557   7.968   3.738 -4.3455 -0.4095  0.9365
 1682THY    CA142028   8.646   8.125   3.694  0.6442 -0.0705 -0.6100
 1682THY    CA242029   8.658   8.236   3.606 -0.4141  0.0059  0.6878
 1682THY    CP142030   8.544   8.273   3.508  1.1631 -0.6635 -0.0450
 1682THY    HP142031   8.492   8.181   3.479  1.5588 -1.1292  0.6949
 1682THY    CP242032   8.442   8.380   3.578 -0.5692 -0.3029  0.0996
 1682THY    HP242033   8.499   8.461   3.624 -0.0419 -0.6755  0.1149
 1682THY    HP342034   8.379   8.417   3.496  0.0556 -0.5959 -0.5299
 1682THY    HP442035   8.395   8.331   3.664  0.8208  2.2693  2.4817
 1682THY    CP342036   8.589   8.327   3.366  0.1064 -0.4362  0.4710
 1682THY    HP542037   8.502   8.347   3.302 -0.2092  1.4269  1.4135
 1682THY    HP642038   8.633   8.428   3.364 -2.1513  0.6147 -1.8030
 1682THY    HP742039   8.653   8.256   3.313 -1.2033  0.2844 -2.2602
 1682THY    CA342040   8.782   8.311   3.602  0.7368  0.1201  0.0410
 1682THY    HA342041   8.796   8.395   3.535  1.4568 -0.1387 -0.1327
 1682THY    CA442042   8.885   8.263   3.685 -0.3963 -0.9455  0.7674
 1682THY    HA442043   8.981   8.313   3.670 -1.5048  0.4169 -3.2603
 1682THY    CA542044   8.873   8.155   3.775 -0.7868 -0.5767 -0.0004
 1682THY    CM142045   8.993   8.100   3.840 -0.0847  0.4904 -0.6529
 1682THY    HM142046   9.061   8.069   3.759  0.5373 -0.6828  0.2917
 1682THY    HM242047   9.047   8.161   3.913  2.4390 -0.7115 -1.4034
 1682THY    HM342048   8.965   8.000   3.873 -3.0838  1.6848  0.7638
 1682THY    CA642049   8.753   8.078   3.769  0.4201  0.3435 -0.8718
 1682THY    HA642050   8.743   7.993   3.835 -0.9298 -0.2052 -1.7537
 1683THY      O42051   7.520   3.314   4.465  0.1150 -0.3947  0.6910
 1683THY     HO42052   7.536   3.357   4.378  0.8775  1.2814  1.6086
 1683THY    CA142053   7.494   3.184   4.443  0.0070 -0.1676  0.1053
 1683THY    CA242054   7.424   3.116   4.542  0.8496 -0.6039  0.0206
 1683THY    CP142055   7.359   3.188   4.665 -0.3662  0.0756 -0.7024
 1683THY    HP142056   7.407   3.283   4.693  2.4313 -1.8709  1.8397
 1683THY    CP242057   7.210   3.212   4.634 -0.4716  0.4266 -0.1192
 1683THY    HP242058   7.168   3.260   4.724  0.1782 -1.6571  1.3629
 1683THY    HP342059   7.210   3.277   4.546  1.3713 -0.2824 -0.6774
 1683THY    HP442060   7.146   3.123   4.628 -0.1658 -0.1766  3.2417
 1683THY    CP342061   7.371   3.098   4.797 -0.2799 -0.1258  0.1607
 1683THY    HP542062   7.291   3.023   4.803 -0.3572 -0.1352 -0.8838
 1683THY    HP642063   7.472   3.059   4.811  0.1219  0.6933 -0.3947
 1683THY    HP742064   7.353   3.155   4.889  1.2828  0.3328  0.2109
 1683THY    CA342065   7.392   2.978   4.522  0.1243 -0.1398  1.5457
 1683THY    HA342066   7.333   2.920   4.592  1.7040 -0.3707  2.7351
 1683THY    CA442067   7.439   2.910   4.404  0.4365  0.2433 -0.6735
 1683THY    HA442068   7.401   2.811   4.382  1.8887 -1.1245  2.3635
 1683THY    CA542069   7.513   2.982   4.308  0.4316  0.0612  0.4594
 1683THY    CM142070   7.566   2.915   4.184  0.0771 -0.3285 -0.2899
 1683THY    HM142071   7.497   2.958   4.110 -0.8104 -2.8957 -1.0694
 1683THY    HM242072   7.671   2.947   4.177 -0.4660  1.4707 -0.8440
 1683THY    HM342073   7.557   2.806   4.186 -1.6200 -0.2002  1.5082
 1683THY    CA642074   7.544   3.118   4.330  0.2064 -0.0081 -0.5573
 1683THY    HA642075   7.598   3.174   4.254 -0.0307  1.8230  0.5716
 1684THY      O42076   4.473   5.330   4.764 -0.4828 -0.1253  0.0747
 1684THY     HO42077   4.407   5.301   4.699  1.3411 -0.1025 -1.8982
 1684THY    CA142078   4.558   5.226   4.766  0.2185 -0.0495 -0.0778
 1684THY    CA242079   4.647   5.198   4.873  0.4565  1.0824  0.4764
 1684THY    CP142080   4.646   5.291   4.989 -0.7615 -0.2998 -0.7398
 1684THY    HP142081   4.603   5.389   4.967  0.7240  0.2125 -1.5211
 1684THY    CP242082   4.577   5.238   5.118 -0.7604 -0.2427 -0.3893
 1684THY    HP242083   4.595   5.133   5.145 -2.7425 -0.2123  1.3221
 1684THY    HP342084   4.601   5.297   5.207 -1.3117 -1.3829  0.5419
 1684THY    HP442085   4.469   5.252   5.104 -0.5771 -0.1498 -1.8084
 1684THY    CP342086   4.787   5.331   5.028 -0.9736 -0.2018 -0.0471
 1684THY    HP542087   4.863   5.252   5.039  2.0009  2.2815 -1.1855
 1684THY    HP642088   4.826   5.395   4.949  0.7773 -1.0976  0.0444
 1684THY    HP742089   4.790   5.389   5.121 -2.4697  0.7763 -0.5701
 1684THY    CA342090   4.715   5.076   4.866  0.4947  0.1822  0.4582
 1684THY    HA342091   4.773   5.045   4.953  1.4188 -0.6036 -0.4136
 1684THY    CA442092   4.718   4.993   4.751  0.1033 -0.2472  0.1338
 1684THY    HA442093   4.791   4.913   4.744  0.3051 -0.0437 -0.1157
 1684THY    CA542094   4.632   5.027   4.645 -0.3563 -0.2425 -0.6642
 1684THY    CM142095   4.630   4.957   4.514 -0.3877  0.0329  0.8810
 1684THY    HM142096   4.530   4.957   4.470  0.0962  1.4518 -0.3249
 1684THY    HM242097   4.692   5.000   4.435 -0.6616 -2.0493 -0.5353
 1684THY    HM342098   4.650   4.850   4.522  0.9057  0.2058  0.3073
 1684THY    CA642099   4.549   5.136   4.660  0.4414 -0.4884 -0.4261
 1684THY    HA642100   4.490   5.157   4.570  2.2451 -1.9245 -2.0267
 1685THY      O42101   9.338   0.244   0.979  0.3084 -0.4080 -0.4607
 1685THY     HO42102   9.248   0.276   0.999  1.0441  0.3735  1.9806
 1685THY    CA142103   9.352   0.125   1.047  0.2251  0.7214  0.0026
 1685THY    CA242104   9.444   0.027   0.999 -0.2776  0.1116 -0.0612
 1685THY    CP142105   9.528   0.058   0.873 -0.2601  0.0517 -0.4000
 1685THY    HP142106   9.476   0.129   0.808 -0.5054 -0.0333 -0.2947
 1685THY    CP242107   9.663   0.116   0.907 -0.1021 -0.6004 -0.0232
 1685THY    HP242108   9.653   0.218   0.945 -2.9496 -0.8161 -0.0213
 1685THY    HP342109   9.726   0.060   0.978  1.3235 -1.2300 -1.7037
 1685THY    HP442110   9.729   0.133   0.821 -1.5721  2.3716 -0.6880
 1685THY    CP342111   9.549  -0.071   0.785  0.6847 -0.3163 -0.1767
 1685THY    HP542112   9.621  -0.137   0.834 -3.4113 -3.8163  1.7914
 1685THY    HP642113   9.457  -0.130   0.777  1.7361 -2.0796  0.2045
 1685THY    HP742114   9.593  -0.046   0.688  0.8876  2.7558  0.5860
 1685THY    CA342115   9.459  -0.093   1.072  0.6047  0.3420 -0.1079
 1685THY    HA342116   9.523  -0.167   1.024 -2.9853 -3.0537 -0.2279
 1685THY    CA442117   9.380  -0.127   1.185 -0.0846 -0.0385  0.3037
 1685THY    HA442118   9.385  -0.221   1.238 -2.3406 -0.4121 -0.0453
 1685THY    CA542119   9.296  -0.020   1.232  1.1700  0.4142 -0.2420
 1685THY    CM142120   9.209  -0.035   1.363  0.0008  0.2651  0.1323
 1685THY    HM142121   9.195  -0.141   1.385  0.6494 -0.0991 -1.0952
 1685THY    HM242122   9.258   0.011   1.450  2.3162 -0.2630 -0.8129
 1685THY    HM342123   9.111   0.013   1.361 -0.7294 -1.2076 -1.4478
 1685THY    CA642124   9.290   0.099   1.167  0.3426  0.4411  0.0789
 1685THY    HA642125   9.233   0.182   1.209 -0.5329  0.3148 -0.8205
 1686THY      O42126   8.106   6.605   4.196  0.2802  0.4500  0.2218
 1686THY     HO42127   8.173   6.657   4.147 -0.1778  0.1068 -0.7920
 1686THY    CA142128   8.083   6.501   4.126  0.0695 -0.1238  0.0068
 1686THY    CA242129   8.003   6.399   4.170  0.9113 -0.5522 -0.1156
 1686THY    CP142130   7.926   6.417   4.302 -0.1482 -0.1291  0.0372
 1686THY    HP142131   7.922   6.524   4.325 -2.1222  0.1456 -1.2869
 1686THY    CP242132   7.782   6.377   4.294  0.4498 -0.3274  0.3144
 1686THY    HP242133   7.772   6.268   4.290  1.1435 -0.3923  0.1133
 1686THY    HP342134   7.731   6.404   4.387  0.5837  0.9456  0.0289
 1686THY    HP442135   7.746   6.423   4.201  0.4779 -0.5030  0.2156
 1686THY    CP342136   7.993   6.336   4.410 -0.2070 -0.0588  0.0931
 1686THY    HP542137   8.000   6.234   4.373 -0.5175 -0.1855  0.3823
 1686THY    HP642138   8.090   6.388   4.419 -1.8584  3.1290  1.1953
 1686THY    HP742139   7.951   6.357   4.509  0.6398  1.1913  0.2253
 1686THY    CA342140   7.977   6.284   4.094 -0.1441 -0.8678 -0.0738
 1686THY    HA342141   7.907   6.208   4.128  1.6544 -2.6288 -0.1779
 1686THY    CA442142   8.042   6.273   3.975 -0.8208 -0.4874  0.3743
 1686THY    HA442143   8.033   6.185   3.912  3.2183  0.1831 -1.4595
 1686THY    CA542144   8.126   6.376   3.928  0.2601  0.2691 -0.0767
 1686THY    CM142145   8.205   6.366   3.801 -0.7833 -0.4087  0.8769
 1686THY    HM142146   8.299   6.421   3.793 -1.7768  1.1179 -1.1285
 1686THY    HM242147   8.226   6.258   3.792 -0.1005 -0.2343  0.3055
 1686THY    HM342148   8.149   6.401   3.713 -0.7491 -1.6883  0.3211
 1686THY    CA642149   8.146   6.490   4.005 -0.6606  0.5113 -0.5152
 1686THY    HA642150   8.210   6.571   3.972  1.9555 -1.1985  0.1238
 1687THY      O42151   9.174   3.535   7.418 -1.0035  0.1090  0.2788
 1687THY     HO42152   9.149   3.538   7.512  0.5771  0.6342  0.7131
 1687THY    CA142153   9.308   3.555   7.410  0.4244 -0.1136 -0.2989
 1687THY    CA242154   9.376   3.564   7.289 -0.1244  0.1535  0.4233
 1687THY    CP142155   9.298   3.569   7.154  0.0173  0.2526  0.9228
 1687THY    HP142156   9.203   3.515   7.162  0.1180 -0.5292 -2.0768
 1687THY    CP242157   9.263   3.712   7.108 -0.2830  0.2542 -0.3776
 1687THY    HP242158   9.203   3.768   7.181 -2.1450 -1.2222 -0.6801
 1687THY    HP342159   9.353   3.770   7.086 -1.7988  2.0777 -2.2051
 1687THY    HP442160   9.205   3.700   7.016 -0.3147 -1.3087 -0.1727
 1687THY    CP342161   9.370   3.494   7.035  0.1393 -0.3341 -0.5544
 1687THY    HP542162   9.377   3.388   7.062 -1.3308 -0.6901 -1.4735
 1687THY    HP642163   9.305   3.495   6.947  1.4141 -1.9361 -1.5641
 1687THY    HP742164   9.469   3.536   7.016  0.4369 -0.9752 -0.4426
 1687THY    CA342165   9.513   3.571   7.287  0.4810 -0.2131 -0.0782
 1687THY    HA342166   9.571   3.570   7.196  1.4306 -2.1161  0.4826
 1687THY    CA442167   9.578   3.580   7.412 -0.2929 -0.8106 -0.4360
 1687THY    HA442168   9.686   3.587   7.415 -0.3940  0.6938  0.3923
 1687THY    CA542169   9.504   3.585   7.529 -0.0491  0.1836 -0.0176
 1687THY    CM142170   9.568   3.604   7.659  0.1162  0.7202 -0.4414
 1687THY    HM142171   9.493   3.590   7.738 -1.5127  0.2196 -1.9892
 1687THY    HM242172   9.645   3.527   7.670 -0.6678 -0.1092 -0.6466
 1687THY    HM342173   9.606   3.706   7.670  0.9313  0.1862  2.4653
 1687THY    CA642174   9.369   3.569   7.528 -0.0286 -0.7215  1.0708
 1687THY    HA642175   9.306   3.559   7.616  0.7649  3.6985  2.4118
 1688THY      O42176   6.668   6.886   9.181  0.3223  0.4946 -0.0273
 1688THY     HO42177   6.695   6.871   9.273 -0.1645  0.0216  0.0456
 1688THY    CA142178   6.660   7.021   9.160  0.3334  0.4044  0.6584
 1688THY    CA242179   6.644   7.070   9.026  0.4655 -0.6325  0.3510
 1688THY    CP142180   6.655   6.974   8.906 -0.5935  0.1426 -0.0079
 1688THY    HP142181   6.590   6.888   8.929 -0.7492  0.0018 -0.9321
 1688THY    CP242182   6.612   7.037   8.769 -1.0256 -0.0345 -0.4269
 1688THY    HP242183   6.685   7.115   8.745  1.1935 -0.8499  3.0179
 1688THY    HP342184   6.613   6.961   8.690 -1.8765 -0.0662 -0.4168
 1688THY    HP442185   6.511   7.078   8.785  0.9670  4.8806  1.7412
 1688THY    CP342186   6.797   6.913   8.892 -0.4761 -0.1362 -0.3298
 1688THY    HP542187   6.788   6.830   8.822 -0.3725  0.5178 -1.1317
 1688THY    HP642188   6.872   6.982   8.852 -0.6680 -0.1755 -0.7672
 1688THY    HP742189   6.852   6.871   8.977  1.0465 -2.1784 -2.2176
 1688THY    CA342190   6.619   7.215   9.008 -0.3243  0.6542  0.4577
 1688THY    HA342191   6.613   7.261   8.910 -2.0173 -1.2187 -0.3959
 1688THY    CA442192   6.617   7.298   9.119 -0.1017 -0.1182 -0.1754
 1688THY    HA442193   6.617   7.405   9.102  1.2789 -0.0762 -0.0097
 1688THY    CA542194   6.646   7.246   9.247  0.1163  0.5003 -0.1739
 1688THY    CM142195   6.653   7.356   9.355  0.2531 -0.1616 -0.0870
 1688THY    HM142196   6.696   7.450   9.320  2.9236 -1.2242  0.1580
 1688THY    HM242197   6.557   7.370   9.407 -0.2788  0.7151 -1.2710
 1688THY    HM342198   6.724   7.317   9.429  0.5225 -0.2754 -0.4083
 1688THY    CA642199   6.658   7.109   9.267 -0.3691 -0.1787 -1.1847
 1688THY    HA642200   6.662   7.080   9.371 -1.7587 -1.1642 -1.3791
 1689THY      O42201   3.190   5.908   4.304 -0.3940  0.3025  0.2177
 1689THY     HO42202   3.158   5.857   4.381  0.3803 -0.0008  0.3485
 1689THY    CA142203   3.097   5.997   4.268  0.2281  0.3229 -0.3254
 1689THY    CA242204   3.107   6.087   4.160  0.2079 -0.3315  0.1300
 1689THY    CP142205   3.242   6.084   4.084 -0.0461  0.0420 -0.1322
 1689THY    HP142206   3.308   6.004   4.119 -0.0244  0.5214  0.9780
 1689THY    CP242207   3.233   6.052   3.935 -0.1833 -0.5501 -0.0124
 1689THY    HP242208   3.185   5.953   3.924  0.1342 -0.9409  1.8461
 1689THY    HP342209   3.174   6.127   3.882  3.1103  1.9308 -0.4693
 1689THY    HP442210   3.334   6.063   3.895 -0.0485 -2.0495 -0.1477
 1689THY    CP342211   3.313   6.214   4.108  0.8335  0.2464 -0.4381
 1689THY    HP542212   3.253   6.292   4.059  0.7830  0.2036 -0.4441
 1689THY    HP642213   3.312   6.245   4.213  0.9648 -1.0976 -0.0296
 1689THY    HP742214   3.418   6.219   4.075  0.5929  0.5682 -1.1988
 1689THY    CA342215   3.000   6.178   4.122 -0.3295  0.2496 -0.0921
 1689THY    HA342216   3.007   6.247   4.039 -1.6239  0.3148 -0.1758
 1689THY    CA442217   2.888   6.178   4.202 -0.2640  0.4143 -0.8584
 1689THY    HA442218   2.801   6.236   4.173  0.2343  0.5633 -2.1037
 1689THY    CA542219   2.869   6.081   4.306 -0.5672  0.2535  0.1829
 1689THY    CM142220   2.730   6.068   4.376 -0.1175  0.0141 -0.0158
 1689THY    HM142221   2.694   5.970   4.343 -0.4806 -0.6351  2.1264
 1689THY    HM242222   2.734   6.062   4.486 -0.2594 -0.2626 -0.0250
 1689THY    HM342223   2.656   6.142   4.343 -0.3418 -0.6643 -1.0739
 1689THY    CA642224   2.979   5.999   4.340  0.3846  0.4353  0.5170
 1689THY    HA642225   2.957   5.924   4.416 -0.8555 -1.3936 -1.4966
 1690THY      O42226   3.910   4.192   8.131  0.3020  0.0068 -0.6710
 1690THY     HO42227   3.900   4.283   8.100 -1.2135  0.8930  2.0702
 1690THY    CA142228   3.779   4.143   8.134 -0.5971  0.1826  0.2505
 1690THY    CA242229   3.726   4.101   8.253 -0.2398  0.0299 -1.5384
 1690THY    CP142230   3.803   4.099   8.384 -0.2912 -0.2169  0.4891
 1690THY    HP142231   3.910   4.097   8.360 -0.5621 -2.0325 -0.7582
 1690THY    CP242232   3.785   4.233   8.453 -0.5294 -0.8305 -0.1019
 1690THY    HP242233   3.808   4.314   8.383  1.2161 -0.0321  1.3058
 1690THY    HP342234   3.682   4.243   8.489 -1.4199 -0.3216 -2.6008
 1690THY    HP442235   3.855   4.239   8.537 -2.0765 -1.0323  1.2413
 1690THY    CP342236   3.767   3.989   8.484 -0.2135 -0.5438  0.2829
 1690THY    HP542237   3.844   3.993   8.562  1.5894  3.1501 -1.4577
 1690THY    HP642238   3.662   3.998   8.515  0.0903  2.8380  0.7099
 1690THY    HP742239   3.785   3.892   8.435 -0.6079 -0.9275  0.8787
 1690THY    CA342240   3.588   4.061   8.248  0.3760  0.2633  0.1346
 1690THY    HA342241   3.534   4.023   8.335  1.4038  0.8699  1.0594
 1690THY    CA442242   3.518   4.066   8.128  0.9081  0.0832  0.6301
 1690THY    HA442243   3.415   4.031   8.129  1.1346 -0.6017  0.2808
 1690THY    CA542244   3.577   4.110   8.004 -0.8725 -1.3868 -0.5067
 1690THY    CM142245   3.495   4.134   7.883 -0.5046  0.4125 -0.2548
 1690THY    HM142246   3.395   4.091   7.896 -0.1723  0.0931  1.3469
 1690THY    HM242247   3.483   4.237   7.847 -0.7886  0.8169  0.9486
 1690THY    HM342248   3.528   4.072   7.799 -0.1851 -1.5909  1.2945
 1690THY    CA642249   3.711   4.151   8.012 -0.0682 -0.3104  0.2962
 1690THY    HA642250   3.773   4.179   7.927 -0.8840  0.2485 -0.1297
 1691THY      O42251   4.620   2.678   2.655 -0.2219 -0.1366  0.4758
 1691THY     HO42252   4.661   2.719   2.577 -2.2373  0.5607 -0.2919
 1691THY    CA142253   4.702   2.630   2.738 -0.3374 -0.4102  0.3318
 1691THY    CA242254   4.700   2.488   2.776  0.9246 -0.3893  0.1491
 1691THY    CP142255   4.597   2.387   2.726  0.1589  0.3457  0.2031
 1691THY    HP142256   4.503   2.440   2.703 -0.5331 -1.3978 -1.2266
 1691THY    CP242257   4.643   2.320   2.592  0.0532 -0.8756  0.3690
 1691THY    HP242258   4.568   2.245   2.564 -0.7699 -0.7254  2.0069
 1691THY    HP342259   4.644   2.400   2.517 -0.4194  0.8302  2.0916
 1691THY    HP442260   4.742   2.275   2.597  0.3367 -0.3640 -0.4965
 1691THY    CP342261   4.565   2.275   2.831  0.1063 -0.1207  0.0528
 1691THY    HP542262   4.569   2.312   2.934  0.9366  0.0374 -0.0270
 1691THY    HP642263   4.468   2.225   2.821  0.3321 -1.0445  2.0326
 1691THY    HP742264   4.648   2.204   2.822 -0.7336 -1.4188  2.0205
 1691THY    CA342265   4.805   2.446   2.860 -0.4715 -0.1717  0.1459
 1691THY    HA342266   4.833   2.344   2.882 -0.5483 -0.5198 -1.2456
 1691THY    CA442267   4.899   2.536   2.904  0.6726  0.3419 -0.4473
 1691THY    HA442268   4.973   2.500   2.975  1.6410  1.1291 -1.0368
 1691THY    CA542269   4.908   2.670   2.862  0.2749 -0.1025  0.0999
 1691THY    CM142270   5.016   2.768   2.909  0.1760 -0.5931  0.4446
 1691THY    HM142271   5.091   2.708   2.962 -0.4059  0.5668  2.6941
 1691THY    HM242272   5.066   2.816   2.824  1.7565  0.2337  1.7975
 1691THY    HM342273   4.976   2.855   2.963  1.2053  0.3590 -0.2986
 1691THY    CA642274   4.810   2.716   2.776  0.3849  0.3281 -0.4318
 1691THY    HA642275   4.805   2.822   2.751 -1.6337  0.6523  1.0377
 1692THY      O42276   6.812   9.515   0.079  0.2400  0.3844 -0.1172
 1692THY     HO42277   6.787   9.596   0.126 -1.6237 -0.2071 -0.0036
 1692THY    CA142278   6.855   9.427   0.178  0.3971 -1.4901  0.3792
 1692THY    CA242279   6.909   9.297   0.152 -0.6770 -0.0320  0.5240
 1692THY    CP142280   6.932   9.247   0.014  0.6326 -0.6096 -0.2957
 1692THY    HP142281   6.933   9.326  -0.062  1.1750  0.9204  1.2388
 1692THY    CP242282   7.070   9.181  -0.003 -0.1414 -0.6346 -0.1007
 1692THY    HP242283   7.147   9.259   0.003 -2.0522  1.3079  0.4905
 1692THY    HP342284   7.088   9.117   0.083 -1.7809  1.3258  1.8184
 1692THY    HP442285   7.070   9.131  -0.101 -1.9870  0.0767 -0.5050
 1692THY    CP342286   6.826   9.150  -0.023  0.3202 -0.3790  0.6750
 1692THY    HP542287   6.836   9.058   0.035  1.2638 -0.4779  0.3598
 1692THY    HP642288   6.722   9.184  -0.023  1.3077  3.1228 -1.0960
 1692THY    HP742289   6.845   9.129  -0.129 -0.3746 -0.1074  0.4853
 1692THY    CA342290   6.925   9.208   0.260 -1.5249 -0.3098 -0.4080
 1692THY    HA342291   6.956   9.104   0.250 -0.4879 -0.1277  0.6923
 1692THY    CA442292   6.912   9.259   0.390 -0.6658  0.0769 -0.1939
 1692THY    HA442293   6.929   9.198   0.478 -1.3900 -0.4720 -0.4284
 1692THY    CA542294   6.852   9.385   0.409 -0.8543 -0.4665 -0.2107
 1692THY    CM142295   6.822   9.443   0.538  0.2122 -0.3293 -0.5194
 1692THY    HM142296   6.886   9.526   0.569 -1.1796 -0.0267  1.8496
 1692THY    HM242297   6.716   9.467   0.552 -0.1341 -2.9955  2.7838
 1692THY    HM342298   6.841   9.363   0.611 -0.9985 -0.1370  0.0355
 1692THY    CA642299   6.827   9.476   0.303  0.1566  0.3678 -0.1570
 1692THY    HA642300   6.792   9.576   0.326  1.2369  0.4852  1.0221
 1693THY      O42301   1.881   4.832   8.361  0.5612  0.2113  0.3160
 1693THY     HO42302   1.790   4.820   8.393  0.1024  1.5722 -0.4126
 1693THY    CA142303   1.962   4.770   8.448  0.1076 -1.0233 -0.3417
 1693THY    CA242304   2.100   4.768   8.425  0.4420  0.0355  0.5948
 1693THY    CP142305   2.168   4.816   8.295  0.0689 -0.1447 -0.3046
 1693THY    HP142306   2.102   4.889   8.247  1.0257  1.0288  0.1219
 1693THY    CP242307   2.299   4.898   8.328  0.5120  0.7130 -0.8008
 1693THY    HP242308   2.380   4.829   8.354  0.0972 -0.1657 -1.7521
 1693THY    HP342309   2.329   4.940   8.231 -2.3596 -1.4316 -2.8196
 1693THY    HP442310   2.284   4.982   8.397  0.1173 -1.5299  2.0405
 1693THY    CP342311   2.202   4.694   8.198 -0.3950 -0.1072  0.1971
 1693THY    HP542312   2.244   4.733   8.104 -3.0344 -0.3479 -1.1706
 1693THY    HP642313   2.267   4.616   8.239  0.3449  0.0897 -0.5736
 1693THY    HP742314   2.114   4.638   8.164 -0.2923 -0.0403 -0.1876
 1693THY    CA342315   2.178   4.716   8.532 -0.9158  0.8379 -0.3101
 1693THY    HA342316   2.286   4.715   8.524 -0.9166  0.2179 -0.2856
 1693THY    CA442317   2.120   4.661   8.648 -0.4515 -0.5055 -0.5485
 1693THY    HA442318   2.184   4.619   8.726  3.5080  2.8115 -1.6835
 1693THY    CA542319   1.980   4.658   8.663 -0.6434  0.7008  0.2177
 1693THY    CM142320   1.914   4.595   8.786  0.2877 -0.2019 -0.2847
 1693THY    HM142321   1.847   4.512   8.761  0.2002 -0.6462  1.3192
 1693THY    HM242322   1.990   4.574   8.861  1.9781  4.1291 -0.4923
 1693THY    HM342323   1.849   4.674   8.826  0.2270  0.4101 -1.5350
 1693THY    CA642324   1.906   4.714   8.560 -0.4497 -0.2187  0.1111
 1693THY    HA642325   1.798   4.719   8.576 -0.3923  0.9127  0.1927
 1694THY      O42326   9.083   6.328   7.506  0.0235 -0.0412  0.0479
 1694THY     HO42327   9.062   6.393   7.437 -0.4060  0.8241  0.9643
 1694THY    CA142328   9.029   6.216   7.463 -0.1763 -0.4761  0.2764
 1694THY    CA242329   9.070   6.084   7.509  0.5464  0.4437 -0.4784
 1694THY    CP142330   9.181   6.057   7.616  0.3068 -1.2635 -0.3511
 1694THY    HP142331   9.234   6.150   7.643  1.0642 -2.0143  0.8226
 1694THY    CP242332   9.123   6.002   7.750 -0.4265  0.3600 -0.1554
 1694THY    HP242333   9.152   5.897   7.761  0.8699  0.6343 -0.7696
 1694THY    HP342334   9.172   6.051   7.835 -0.7889  0.7087 -0.1433
 1694THY    HP442335   9.014   6.007   7.743 -0.2943  1.6918 -1.7953
 1694THY    CP342336   9.296   5.964   7.578 -0.3086  0.5559  0.2918
 1694THY    HP542337   9.260   5.875   7.527 -1.4540 -0.1019  2.1422
 1694THY    HP642338   9.359   6.030   7.516  1.6676 -0.4896  1.0761
 1694THY    HP742339   9.362   5.945   7.664  0.6886 -1.4823 -0.8480
 1694THY    CA342340   9.006   5.975   7.458  0.4385  0.1994  0.6988
 1694THY    HA342341   9.026   5.876   7.499 -0.7222 -0.5764 -0.5075
 1694THY    CA442342   8.906   5.987   7.360 -0.1978 -0.5160 -0.4564
 1694THY    HA442343   8.865   5.894   7.322  0.8169 -0.7566 -1.0081
 1694THY    CA542344   8.860   6.106   7.318  0.6425 -0.8303  0.4647
 1694THY    CM142345   8.741   6.113   7.234  0.5490 -0.3557 -0.0012
 1694THY    HM142346   8.689   6.209   7.238  0.6277 -0.2029 -1.7815
 1694THY    HM242347   8.768   6.087   7.131 -0.0788 -0.2655 -0.1952
 1694THY    HM342348   8.671   6.033   7.263  2.1546 -1.9272 -0.2747
 1694THY    CA642349   8.930   6.224   7.363  0.0809 -0.5041  0.3832
 1694THY    HA642350   8.898   6.318   7.319 -0.2509 -0.6018  0.4193
 1695THY      O42351   5.420   2.101   7.147  0.6908 -0.7883  0.6292
 1695THY     HO42352   5.473   2.132   7.222 -0.1660 -0.3486  1.0713
 1695THY    CA142353   5.384   2.215   7.079  0.3762  0.0662  0.5836
 1695THY    CA242354   5.341   2.208   6.943  0.5296  0.1806 -0.0835
 1695THY    CP142355   5.337   2.071   6.870  0.0966  0.6958 -0.0742
 1695THY    HP142356   5.330   1.983   6.937 -1.3750 -0.8420 -2.1219
 1695THY    CP242357   5.214   2.054   6.783 -0.8546 -0.0869  0.1861
 1695THY    HP242358   5.202   1.963   6.722 -0.6419  1.1537 -1.7948
 1695THY    HP342359   5.127   2.066   6.849 -0.0681 -2.2230  1.7416
 1695THY    HP442360   5.227   2.134   6.709  1.7273  0.9270  1.5994
 1695THY    CP342361   5.464   2.048   6.792 -0.0730  0.1931  0.4623
 1695THY    HP542362   5.470   2.112   6.704  0.0119  0.5106  0.6948
 1695THY    HP642363   5.564   2.052   6.837 -0.1288  0.3120  0.5795
 1695THY    HP742364   5.449   1.949   6.749  0.6363  0.0795  0.4638
 1695THY    CA342365   5.306   2.332   6.879 -0.3633  0.0783  0.5062
 1695THY    HA342366   5.271   2.335   6.776 -0.3216 -0.8711  0.4563
 1695THY    CA442367   5.303   2.445   6.961 -0.3834 -0.1215 -0.1026
 1695THY    HA442368   5.283   2.540   6.913  0.2442 -1.1987 -2.6841
 1695THY    CA542369   5.361   2.457   7.087  0.6643  0.6501 -1.2034
 1695THY    CM142370   5.393   2.586   7.146  0.3238  0.2418 -0.1379
 1695THY    HM142371   5.375   2.669   7.076  1.0672 -1.0009 -1.8867
 1695THY    HM242372   5.327   2.612   7.229 -0.0522  1.0220 -0.6665
 1695THY    HM342373   5.498   2.575   7.175  0.0961 -0.9475  0.2820
 1695THY    CA642374   5.398   2.338   7.150  0.4308 -0.4807  1.1489
 1695THY    HA642375   5.441   2.331   7.249  0.1847 -1.3719  1.1957
 1696THY      O42376   2.040   4.458   8.372 -0.1076 -0.4397 -0.5834
 1696THY     HO42377   2.075   4.541   8.408  2.2866 -1.0893 -1.1898
 1696THY    CA142378   2.153   4.395   8.328 -0.5881 -0.2545 -0.5805
 1696THY    CA242379   2.155   4.339   8.200  1.0955  0.3417 -0.2467
 1696THY    CP142380   2.024   4.313   8.125  0.5131 -0.4055 -0.3454
 1696THY    HP142381   1.938   4.326   8.191  0.8009 -0.0194 -0.0434
 1696THY    CP242382   2.009   4.395   8.005  0.4453 -0.4525  0.3572
 1696THY    HP242383   2.026   4.503   8.016 -3.6902  0.9349 -3.8078
 1696THY    HP342384   2.071   4.360   7.922  0.1360 -2.6675  0.9963
 1696THY    HP442385   1.901   4.398   7.986  0.4401  0.9497  0.5260
 1696THY    CP342386   1.997   4.160   8.089 -0.1220  0.6032  0.0726
 1696THY    HP542387   1.903   4.149   8.035 -0.6715  2.5633  0.5606
 1696THY    HP642388   2.079   4.135   8.020 -0.1658  0.3249  0.1196
 1696THY    HP742389   1.988   4.092   8.175  1.0997  0.1819 -0.1082
 1696THY    CA342390   2.283   4.291   8.151  0.1852  0.2177 -0.7245
 1696THY    HA342391   2.287   4.242   8.054  0.9093 -1.4892  0.1131
 1696THY    CA442392   2.393   4.286   8.240 -0.1856  0.5919  0.6575
 1696THY    HA442393   2.490   4.251   8.205 -1.2857 -0.5678 -1.3952
 1696THY    CA542394   2.386   4.358   8.360  0.4767 -0.2234  0.5214
 1696THY    CM142395   2.509   4.381   8.440  0.2672 -0.1036 -0.6681
 1696THY    HM142396   2.543   4.286   8.483  3.4933  0.9270 -0.6811
 1696THY    HM242397   2.594   4.420   8.383  2.0303 -1.5271  0.8439
 1696THY    HM342398   2.479   4.450   8.520  1.1853  1.0132 -1.2600
 1696THY    CA642399   2.266   4.402   8.406  0.4055 -0.1798  0.5619
 1696THY    HA642400   2.259   4.448   8.504  1.8893 -0.4555  0.8256
 1697THY      O42401   3.307   0.463   3.855  0.3718  0.1459  0.3278
 1697THY     HO42402   3.238   0.461   3.787  1.5439  0.1770 -0.9125
 1697THY    CA142403   3.257   0.544   3.954  0.3592 -0.0884  0.3521
 1697THY    CA242404   3.308   0.546   4.080 -0.9039  0.7935  0.1523
 1697THY    CP142405   3.427   0.448   4.117  0.2341 -0.5359 -0.4402
 1697THY    HP142406   3.441   0.371   4.041  0.1103 -2.0608  1.0128
 1697THY    CP242407   3.553   0.534   4.138  0.8504 -0.1243  0.1428
 1697THY    HP242408   3.645   0.478   4.158  1.0724  0.9380  2.4510
 1697THY    HP342409   3.582   0.592   4.050 -0.6980 -0.8102 -0.8680
 1697THY    HP442410   3.530   0.606   4.217 -0.6378  0.7423 -1.0223
 1697THY    CP342411   3.406   0.362   4.245  0.1302 -0.0104 -0.2667
 1697THY    HP542412   3.476   0.278   4.246 -2.2260 -2.1094  1.8330
 1697THY    HP642413   3.441   0.404   4.340  0.3014  0.4044 -0.5131
 1697THY    HP742414   3.306   0.320   4.263  0.4537 -0.3861  0.7258
 1697THY    CA342415   3.255   0.641   4.169  0.4065  0.0646  0.2547
 1697THY    HA342416   3.297   0.652   4.269 -0.9836 -2.0113  1.1189
 1697THY    CA442417   3.150   0.728   4.128  0.3011 -0.7278  0.1746
 1697THY    HA442418   3.116   0.806   4.196  1.7444  2.6726 -2.6747
 1697THY    CA542419   3.089   0.712   4.003 -0.0825 -0.5745 -0.0514
 1697THY    CM142420   2.986   0.806   3.953  0.4247  0.7042 -0.1078
 1697THY    HM142421   3.010   0.906   3.993  2.4756  0.5349 -0.8198
 1697THY    HM242422   2.981   0.804   3.844  0.7832  0.6352 -0.1229
 1697THY    HM342423   2.894   0.768   3.999  1.7421 -1.5216  0.8272
 1697THY    CA642424   3.138   0.609   3.919  0.1459  0.0927 -0.0125
 1697THY    HA642425   3.094   0.603   3.819  3.1598 -0.3844 -1.4063
 1698THY      O42426   7.410   5.290   8.094  0.1264 -0.0979  0.4711
 1698THY     HO42427   7.492   5.335   8.068 -0.6948  1.0186 -0.2936
 1698THY    CA142428   7.311   5.385   8.106 -0.1481 -0.1959  0.8417
 1698THY    CA242429   7.178   5.356   8.138 -0.1063  0.6282 -0.0144
 1698THY    CP142430   7.135   5.202   8.152  0.0960 -0.3914  0.1913
 1698THY    HP142431   7.210   5.131   8.189 -0.3132  0.0033  1.8498
 1698THY    CP242432   7.008   5.182   8.236  0.3440  0.2304  0.6172
 1698THY    HP242433   6.994   5.074   8.255  0.3299  0.3642  1.4139
 1698THY    HP342434   7.006   5.230   8.334  1.3877  0.3184  0.6117
 1698THY    HP442435   6.921   5.223   8.184 -0.0248  2.8709  3.0814
 1698THY    CP342436   7.095   5.163   8.009 -0.0536  0.2060 -0.2688
 1698THY    HP542437   7.047   5.248   7.959  3.3740  3.5541  1.5553
 1698THY    HP642438   7.190   5.147   7.956  0.8162  1.0548  0.9565
 1698THY    HP742439   7.042   5.068   8.013  1.8418 -0.8791  2.8631
 1698THY    CA342440   7.093   5.462   8.166  0.3188 -0.4815  0.0166
 1698THY    HA342441   6.990   5.438   8.191  0.2467  1.0702  1.3767
 1698THY    CA442442   7.131   5.593   8.164  0.5556 -0.0612 -0.5713
 1698THY    HA442443   7.050   5.664   8.180  0.0185 -1.0094  1.1930
 1698THY    CA542444   7.267   5.620   8.139  0.3121  0.9550 -0.5196
 1698THY    CM142445   7.313   5.759   8.134 -0.3535  0.5543 -0.3721
 1698THY    HM142446   7.246   5.828   8.083  1.2384  1.1128 -1.7946
 1698THY    HM242447   7.316   5.793   8.239  1.0098 -0.0887 -0.1778
 1698THY    HM342448   7.411   5.772   8.086  0.1067 -0.4209  0.2700
 1698THY    CA642449   7.359   5.517   8.110 -0.3083 -0.2252 -0.0535
 1698THY    HA642450   7.462   5.547   8.093 -0.4944 -0.1043 -1.0624
 1699THY      O42451   5.628   5.544   5.361  0.4135 -0.2106  0.4732
 1699THY     HO42452   5.537   5.535   5.394 -0.0550  0.3381 -0.6237
 1699THY    CA142453   5.705   5.437   5.401  0.0382 -0.3239 -0.1103
 1699THY    CA242454   5.826   5.445   5.477 -0.0791  0.3680  0.0380
 1699THY    CP142455   5.880   5.580   5.514  0.2822  0.6946  0.4517
 1699THY    HP142456   5.833   5.646   5.440 -0.4356 -1.3777 -1.0581
 1699THY    CP242457   5.815   5.623   5.642 -0.1743 -0.0248 -0.0001
 1699THY    HP242458   5.861   5.563   5.721  1.3442 -1.8794 -2.1396
 1699THY    HP342459   5.845   5.727   5.659 -1.4605  0.7126 -1.8359
 1699THY    HP442460   5.706   5.632   5.634 -0.1796 -1.3602 -3.1239
 1699THY    CP342461   6.038   5.594   5.503  0.0585  0.2401  0.1492
 1699THY    HP542462   6.052   5.702   5.508  1.3740  0.0316  2.2361
 1699THY    HP642463   6.092   5.550   5.588  0.7991  0.3714 -0.2466
 1699THY    HP742464   6.079   5.541   5.416  0.4999 -0.8086  0.9666
 1699THY    CA342465   5.887   5.328   5.528 -0.5145  0.5602  0.6518
 1699THY    HA342466   5.961   5.345   5.606 -0.2634  1.1908  0.2842
 1699THY    CA442467   5.833   5.205   5.484 -0.1644  0.4066 -0.6762
 1699THY    HA442468   5.875   5.108   5.506 -0.2581  0.0005 -2.1772
 1699THY    CA542469   5.722   5.200   5.397 -0.2211  0.4550  0.7678
 1699THY    CM142470   5.671   5.069   5.339 -0.0627 -0.8772 -0.0112
 1699THY    HM142471   5.695   5.059   5.232 -0.1269 -2.2012  0.0814
 1699THY    HM242472   5.709   4.984   5.396  0.4531  0.0566  1.0645
 1699THY    HM342473   5.561   5.064   5.339 -0.1609  0.2528 -1.7083
 1699THY    CA642474   5.653   5.314   5.365  0.5054  0.7501 -0.0504
 1699THY    HA642475   5.562   5.309   5.307  0.3301  0.0862  0.2726
 1700THY      O42476   2.599   1.917   7.303  0.3796  0.0142  0.5984
 1700THY     HO42477   2.691   1.948   7.292 -0.2101  1.4616 -0.8202
 1700THY    CA142478   2.543   1.922   7.177 -0.4567 -0.5522 -0.2753
 1700THY    CA242479   2.412   1.858   7.146  0.0229 -0.2698 -0.7227
 1700THY    CP142480   2.339   1.788   7.256  0.0996  0.0469  0.0246
 1700THY    HP142481   2.391   1.796   7.353  0.6784  2.0945 -0.4014
 1700THY    CP242482   2.209   1.863   7.282 -0.5795 -0.5768 -0.3164
 1700THY    HP242483   2.148   1.854   7.191 -1.0935 -0.1151 -0.0278
 1700THY    HP342484   2.159   1.813   7.367 -1.0506 -1.4678 -1.0980
 1700THY    HP442485   2.231   1.968   7.303  1.7213 -0.6507 -2.0327
 1700THY    CP342486   2.312   1.638   7.205  0.1806 -0.1170  0.1252
 1700THY    HP542487   2.235   1.634   7.126 -0.9905 -0.9457  1.2639
 1700THY    HP642488   2.397   1.585   7.162  0.0755 -1.1158  1.1030
 1700THY    HP742489   2.273   1.576   7.286 -1.4506  0.2648 -0.3223
 1700THY    CA342490   2.353   1.889   7.018 -0.0800  0.0585  0.0730
 1700THY    HA342491   2.256   1.850   6.989 -0.1485 -0.7872  1.3685
 1700THY    CA442492   2.430   1.963   6.931 -0.4415 -0.0997  0.3944
 1700THY    HA442493   2.393   1.990   6.833  1.1365  2.2705  0.3766
 1700THY    CA542494   2.564   2.000   6.955  0.1265  0.0089 -0.5260
 1700THY    CM142495   2.644   2.074   6.845  0.0333 -0.5039  0.0699
 1700THY    HM142496   2.737   2.107   6.892 -1.1797 -1.7312  3.6886
 1700THY    HM242497   2.669   2.013   6.758 -0.4672  1.5378 -1.5662
 1700THY    HM342498   2.586   2.164   6.822 -0.0842 -0.2700  1.2266
 1700THY    CA642499   2.625   1.974   7.079  0.2207 -0.4687  0.2733
 1700THY    HA642500   2.724   2.016   7.092  0.7625 -1.0099 -1.8640
 1701THY      O42501   9.258   4.989   1.539  0.1292  0.3906  0.0866
 1701THY     HO42502   9.262   4.940   1.455 -0.4214  1.2972 -0.4720
 1701THY    CA142503   9.158   5.078   1.522  0.7448 -0.4828  0.1156
 1701THY    CA242504   9.115   5.170   1.616  0.1454 -0.6798 -0.1498
 1701THY    CP142505   9.181   5.174   1.756  0.3332  0.1205  0.2376
 1701THY    HP142506   9.259   5.100   1.770 -0.4394 -0.1664  3.9935
 1701THY    CP242507   9.233   5.308   1.795 -0.1431 -0.0252  0.3793
 1701THY    HP242508   9.291   5.352   1.713 -0.1082  0.0343  0.4356
 1701THY    HP342509   9.153   5.381   1.814  1.1797  1.2947  1.1197
 1701THY    HP442510   9.289   5.285   1.886  2.7126  3.5048 -0.2648
 1701THY    CP342511   9.084   5.121   1.862 -0.7913  0.0983  0.1399
 1701THY    HP542512   9.079   5.014   1.837  1.9583 -0.1452  0.3195
 1701THY    HP642513   9.126   5.135   1.962  0.5075 -1.2125 -0.1876
 1701THY    HP742514   8.986   5.169   1.849 -0.3117  0.5024 -2.8117
 1701THY    CA342515   9.012   5.261   1.584 -0.5331  0.6725 -1.0748
 1701THY    HA342516   8.984   5.333   1.661 -1.4944 -1.0291  0.2152
 1701THY    CA442517   8.947   5.259   1.463 -0.2125 -0.1079  0.7096
 1701THY    HA442518   8.874   5.334   1.435  0.5837  0.8583  1.1473
 1701THY    CA542519   8.993   5.166   1.367  0.6920 -0.3971 -0.0694
 1701THY    CM142520   8.915   5.166   1.236 -0.4696 -0.0711 -0.3899
 1701THY    HM142521   8.822   5.222   1.226  1.2785  3.0518 -0.3265
 1701THY    HM242522   8.993   5.201   1.168  1.3101 -0.6362  1.2495
 1701THY    HM342523   8.893   5.063   1.205 -2.9569  0.2380  0.2086
 1701THY    CA642524   9.094   5.072   1.398 -0.2953 -0.8495  0.6952
 1701THY    HA642525   9.129   5.012   1.315  1.5718  2.2500 -0.9338
 1702THY      O42526   6.017   0.933   7.369 -0.5173  0.6489 -0.5372
 1702THY     HO42527   6.034   0.842   7.398 -3.3069 -0.8670 -3.0687
 1702THY    CA142528   6.055   0.934   7.234  0.9419  0.2594  0.7629
 1702THY    CA242529   6.006   1.039   7.156 -1.2776 -0.4057 -0.7124
 1702THY    CP142530   5.915   1.128   7.225  0.6316  0.5096 -0.7670
 1702THY    HP142531   5.911   1.136   7.334 -2.6205  0.6613 -0.8203
 1702THY    CP242532   5.938   1.275   7.188 -0.0717 -0.2530  0.6612
 1702THY    HP242533   5.913   1.280   7.081  0.6972 -1.4242  0.4124
 1702THY    HP342534   5.873   1.337   7.250  1.6599 -0.5952  2.9246
 1702THY    HP442535   6.041   1.304   7.211 -0.3846  1.8983 -0.3571
 1702THY    CP342536   5.763   1.092   7.193  0.1890 -0.3202 -0.0788
 1702THY    HP542537   5.684   1.150   7.242  1.0429  0.0128  0.9359
 1702THY    HP642538   5.750   1.088   7.084  1.1137 -0.2665 -0.2001
 1702THY    HP742539   5.749   0.987   7.220 -0.7483 -0.5251 -1.2650
 1702THY    CA342540   6.043   1.046   7.019 -0.1155  0.5635 -0.5596
 1702THY    HA342541   5.986   1.110   6.952 -1.8437 -1.6791 -1.3383
 1702THY    CA442542   6.129   0.949   6.965  0.5940  0.0182 -0.8383
 1702THY    HA442543   6.157   0.959   6.860  0.7678  1.7654 -0.6486
 1702THY    CA542544   6.194   0.861   7.051  0.3706  1.4090 -0.0803
 1702THY    CM142545   6.294   0.756   7.007 -0.1077  0.7790 -0.4162
 1702THY    HM142546   6.243   0.677   6.950  1.6127  0.2655 -1.3480
 1702THY    HM242547   6.373   0.799   6.943  0.7399 -0.2234 -0.0680
 1702THY    HM342548   6.341   0.712   7.095 -1.2253  2.8597  1.3008
 1702THY    CA642549   6.155   0.852   7.187 -0.2390 -0.4596  0.3377
 1702THY    HA642550   6.219   0.799   7.256  0.7527 -2.1078 -1.7389
 1703THY      O42551   8.954   2.043   8.025 -0.0520 -0.1341  0.4024
 1703THY     HO42552   8.941   2.039   7.928  0.3482 -1.5049  0.3828
 1703THY    CA142553   8.995   2.171   8.055 -0.3466 -0.7852 -0.2345
 1703THY    CA242554   9.004   2.214   8.191 -0.3537 -0.1240 -0.1292
 1703THY    CP142555   8.986   2.105   8.297  0.0905  0.1684 -0.6142
 1703THY    HP142556   8.925   2.023   8.258  0.3349  0.8174 -2.4836
 1703THY    CP242557   9.122   2.050   8.335  0.3620 -0.5206  0.7162
 1703THY    HP242558   9.165   1.993   8.252  0.7338  2.1989 -1.0751
 1703THY    HP342559   9.186   2.136   8.357 -1.1502  0.8893 -0.1502
 1703THY    HP442560   9.111   1.990   8.426 -2.1875  1.6568  2.0001
 1703THY    CP342561   8.914   2.154   8.421  0.2760  0.0512  0.4189
 1703THY    HP542562   8.989   2.191   8.493  1.1448 -2.4450  0.8995
 1703THY    HP642563   8.843   2.229   8.387  1.4067  1.3281  0.7797
 1703THY    HP742564   8.859   2.071   8.467 -0.4096 -0.0477 -0.5692
 1703THY    CA342565   9.028   2.353   8.223 -0.2497 -0.4091 -0.5504
 1703THY    HA342566   9.048   2.386   8.325  1.4816 -3.5059  0.2526
 1703THY    CA442567   9.060   2.440   8.110  0.4581 -0.0251 -0.0960
 1703THY    HA442568   9.076   2.546   8.132  0.1386  0.2446 -1.1179
 1703THY    CA542569   9.038   2.401   7.982 -0.5216  0.2795 -0.8908
 1703THY    CM142570   9.046   2.496   7.873 -0.2029 -0.1873  0.2970
 1703THY    HM142571   9.124   2.571   7.894 -1.0052  0.1998  2.1579
 1703THY    HM242572   9.065   2.450   7.776 -1.4839 -0.7156  0.2826
 1703THY    HM342573   8.952   2.551   7.886 -0.2064  0.0372 -0.6428
 1703THY    CA642574   9.003   2.267   7.958  0.2068 -0.6593  0.1492
 1703THY    HA642575   8.985   2.240   7.854 -1.0203 -0.0826  0.1920
 1704THY      O42576   9.384   1.481   9.284  0.0166 -0.2279 -0.4411
 1704THY     HO42577   9.312   1.422   9.309 -0.1020  0.9379  2.3885
 1704THY    CA142578   9.332   1.608   9.275  0.3661 -0.7583 -0.0775
 1704THY    CA242579   9.404   1.726   9.318  0.4457  0.1089 -1.3014
 1704THY    CP142580   9.554   1.711   9.353  0.1510 -0.4251  0.6181
 1704THY    HP142581   9.595   1.611   9.334 -0.6246 -0.8439  1.1049
 1704THY    CP242582   9.643   1.787   9.257 -0.5046 -0.6207 -0.3099
 1704THY    HP242583   9.750   1.777   9.277 -0.2592 -0.6540 -1.5526
 1704THY    HP342584   9.633   1.768   9.149  2.9690  0.5006 -0.9658
 1704THY    HP442585   9.625   1.895   9.265 -2.3148 -0.7533 -1.8238
 1704THY    CP342586   9.573   1.768   9.496  0.7333 -0.0334  0.6051
 1704THY    HP542587   9.551   1.683   9.561  0.0915 -0.6949 -0.4502
 1704THY    HP642588   9.680   1.786   9.511  0.8326 -0.8438  0.9066
 1704THY    HP742589   9.501   1.846   9.524  0.1151 -0.0822 -0.7848
 1704THY    CA342590   9.337   1.847   9.314 -0.1540 -0.7559  0.2534
 1704THY    HA342591   9.383   1.941   9.342 -2.0052  0.1201  0.4827
 1704THY    CA442592   9.202   1.857   9.278  0.6018  0.1675 -0.6899
 1704THY    HA442593   9.155   1.954   9.258 -1.0354 -0.8873 -2.2350
 1704THY    CA542594   9.137   1.737   9.240  0.6966  0.1899  0.8705
 1704THY    CM142595   8.996   1.743   9.178  0.8408  0.9544 -0.4281
 1704THY    HM142596   8.926   1.674   9.225  0.4638  1.4376 -0.2681
 1704THY    HM242597   8.954   1.845   9.181  1.3043  1.1252  0.5496
 1704THY    HM342598   9.005   1.722   9.070 -0.0694  2.2420 -0.7881
 1704THY    CA642599   9.201   1.617   9.235 -0.8146  1.1602 -0.1035
 1704THY    HA642600   9.161   1.521   9.202 -0.4536  1.7261 -2.3430
 1705THY      O42601   3.975   9.502   6.963 -0.2205 -0.6589  0.3402
 1705THY     HO42602   3.976   9.599   6.957 -1.2259 -0.6789 -0.4085
 1705THY    CA142603   4.010   9.475   7.090  1.1125 -0.5825  0.1601
 1705THY    CA242604   4.071   9.351   7.120  0.5223 -0.2656  0.1393
 1705THY    CP142605   4.094   9.250   7.015  0.3958  0.5767 -0.0306
 1705THY    HP142606   4.114   9.304   6.923  1.7627  0.0192 -0.0805
 1705THY    CP242607   4.228   9.174   7.046  0.2618  0.4893  0.2075
 1705THY    HP242608   4.218   9.103   7.129 -1.3221 -1.4420 -1.5373
 1705THY    HP342609   4.262   9.117   6.960  1.2047  0.5888  0.5078
 1705THY    HP442610   4.302   9.250   7.074 -0.9424  2.1612 -0.9072
 1705THY    CP342611   3.974   9.149   7.000 -0.5213  0.6378 -0.3897
 1705THY    HP542612   3.886   9.207   6.967 -2.2355 -1.3817  0.3648
 1705THY    HP642613   3.993   9.067   6.930 -1.4446 -0.1154  0.2183
 1705THY    HP742614   3.952   9.097   7.094  1.3899  0.4676 -0.0161
 1705THY    CA342615   4.098   9.317   7.254  0.3222 -0.4090 -0.1757
 1705THY    HA342616   4.151   9.230   7.290  0.0230 -0.9922 -1.1024
 1705THY    CA442617   4.072   9.413   7.351 -0.2162 -0.0389 -0.3906
 1705THY    HA442618   4.092   9.395   7.456 -0.7717 -3.7425 -0.7967
 1705THY    CA542619   4.000   9.530   7.319  0.7333 -0.2556  0.3197
 1705THY    CM142620   3.977   9.632   7.425  0.1187 -1.0348 -1.0984
 1705THY    HM142621   4.020   9.728   7.393 -1.2115  0.4130  1.1638
 1705THY    HM242622   3.868   9.642   7.437  0.2475  0.4952 -1.0430
 1705THY    HM342623   4.022   9.609   7.522 -0.9613  1.9414  0.2289
 1705THY    CA642624   3.965   9.562   7.188 -0.2565  0.0332  0.2969
 1705THY    HA642625   3.904   9.651   7.173 -0.3366  0.2670  1.8351
 1706THY      O42626   6.617   7.906   7.992 -0.0901  0.0495 -0.3606
 1706THY     HO42627   6.696   7.859   8.024  0.2441  0.1096 -1.0820
 1706THY    CA142628   6.527   7.899   8.094  0.3214  0.0592 -0.3192
 1706THY    CA242629   6.396   7.951   8.074 -0.1338 -0.7431 -0.4299
 1706THY    CP142630   6.348   8.006   7.935  0.1161 -0.2776  0.1153
 1706THY    HP142631   6.442   8.025   7.881  0.8052 -1.0599  1.0116
 1706THY    CP242632   6.286   7.892   7.865  0.0798 -0.4513  0.1114
 1706THY    HP242633   6.342   7.797   7.866 -2.5044 -2.0534 -0.0137
 1706THY    HP342634   6.189   7.869   7.909  0.5187  0.1801  1.4309
 1706THY    HP442635   6.272   7.923   7.760 -0.5854  0.7450  0.5423
 1706THY    CP342636   6.255   8.123   7.931 -0.3370  0.1818  0.1867
 1706THY    HP542637   6.275   8.194   8.013  2.5519 -0.8007  0.4480
 1706THY    HP642638   6.258   8.165   7.830 -2.7717 -2.5176 -1.1419
 1706THY    HP742639   6.150   8.094   7.945 -0.2503  0.6629  2.1682
 1706THY    CA342640   6.307   7.953   8.182 -0.2262  0.2039 -0.0981
 1706THY    HA342641   6.205   7.984   8.165  0.4234  2.7922  0.2535
 1706THY    CA442642   6.349   7.908   8.304 -0.9912  0.0341  1.1456
 1706THY    HA442643   6.277   7.890   8.383 -0.1133 -1.4928  1.6402
 1706THY    CA542644   6.482   7.869   8.326 -0.0354 -0.2806  0.2438
 1706THY    CM142645   6.535   7.816   8.459 -0.5536 -0.1287  0.0407
 1706THY    HM142646   6.560   7.901   8.523 -1.5234  1.4311 -1.5587
 1706THY    HM242647   6.465   7.756   8.519 -1.7814  0.6057 -0.6213
 1706THY    HM342648   6.624   7.754   8.441  0.3743  0.6191  1.7849
 1706THY    CA642649   6.571   7.856   8.217  0.3263 -0.1460  0.3331
 1706THY    HA642650   6.672   7.820   8.230  0.1821 -0.8930 -0.5121
 1707THY      O42651   4.517   7.025   8.987  0.2363  0.5366 -0.2939
 1707THY     HO42652   4.583   7.010   9.057  0.1466  0.4490 -0.2272
 1707THY    CA142653   4.399   7.030   9.052  0.9666  0.7009 -0.3030
 1707THY    CA242654   4.283   7.079   8.988 -0.3158  0.4714  0.1353
 1707THY    CP142655   4.298   7.138   8.848  0.2589  0.8098  0.2049
 1707THY    HP142656   4.401   7.138   8.809  0.5824 -1.1113  0.9607
 1707THY    CP242657   4.214   7.053   8.749 -0.3489 -0.8798  0.2725
 1707THY    HP242658   4.226   6.944   8.761  0.0129 -1.1219 -1.9146
 1707THY    HP342659   4.106   7.064   8.744 -0.2444 -0.3225 -2.2599
 1707THY    HP442660   4.246   7.077   8.647 -1.1669 -2.0660 -0.2871
 1707THY    CP342661   4.258   7.285   8.832  0.7591  0.3086 -0.6117
 1707THY    HP542662   4.311   7.341   8.909  0.0519 -0.4510  0.4662
 1707THY    HP642663   4.278   7.322   8.731  0.6957  1.4732 -0.2171
 1707THY    HP742664   4.151   7.305   8.847  0.8479  0.3028  0.0309
 1707THY    CA342665   4.156   7.073   9.052  0.7708  0.1016 -0.6754
 1707THY    HA342666   4.064   7.101   9.001  1.0363  1.7642 -0.2974
 1707THY    CA442667   4.151   7.025   9.182  0.4750  0.5632 -0.3571
 1707THY    HA442668   4.053   7.009   9.226  0.4355  1.3893 -0.1209
 1707THY    CA542669   4.267   6.995   9.254  0.7556 -0.4236  0.4725
 1707THY    CM142670   4.266   6.959   9.399  0.0266  0.2636  0.3397
 1707THY    HM142671   4.216   6.863   9.416  1.3279 -0.3970  0.5708
 1707THY    HM242672   4.369   6.929   9.423  0.0965 -1.3031 -1.6581
 1707THY    HM342673   4.237   7.048   9.456 -0.2205  0.5310 -0.1942
 1707THY    CA642674   4.388   7.005   9.187 -0.8094  0.4584 -1.0184
 1707THY    HA642675   4.483   6.977   9.233 -0.0792  0.7502 -2.2893
 1708THY      O42676   5.624   8.486   4.673 -0.7532  1.0554  0.0949
 1708THY     HO42677   5.557   8.446   4.731  0.4298 -2.3584 -0.6452
 1708THY    CA142678   5.570   8.566   4.570  0.1630  1.1213 -0.2507
 1708THY    CA242679   5.652   8.655   4.500  0.1589  0.1693  0.0705
 1708THY    CP142680   5.799   8.672   4.539 -0.0417 -0.3992  0.0093
 1708THY    HP142681   5.835   8.574   4.574  2.8070 -0.3331 -2.3813
 1708THY    CP242682   5.890   8.709   4.417 -0.7209 -0.1435 -0.4371
 1708THY    HP242683   5.991   8.719   4.458  0.1087 -2.5468 -1.7074
 1708THY    HP342684   5.903   8.634   4.338  3.6649  0.4004 -0.4889
 1708THY    HP442685   5.871   8.803   4.364  1.8781  1.2118  0.8546
 1708THY    CP342686   5.824   8.782   4.646  0.4113  0.1459  0.3995
 1708THY    HP542687   5.927   8.770   4.683  0.1009  0.7995  1.5117
 1708THY    HP642688   5.825   8.876   4.590  1.7969 -1.0496 -1.7455
 1708THY    HP742689   5.762   8.762   4.734  0.0345  0.5306  0.2201
 1708THY    CA342690   5.591   8.737   4.398  0.1796  0.5517 -0.0869
 1708THY    HA342691   5.642   8.825   4.360  1.8746 -0.9013 -1.3279
 1708THY    CA442692   5.453   8.714   4.374  0.0312  0.5724  0.0692
 1708THY    HA442693   5.404   8.781   4.303 -1.6227  1.1057  1.6508
 1708THY    CA542694   5.377   8.605   4.432 -0.0214 -0.9718 -0.1595
 1708THY    CM142695   5.224   8.601   4.408 -0.7519  0.4039  0.6196
 1708THY    HM142696   5.208   8.498   4.374 -2.1311  0.3370  1.3850
 1708THY    HM242697   5.164   8.615   4.499  0.3105 -0.4494  1.4944
 1708THY    HM342698   5.192   8.664   4.324  3.6236  1.5888 -0.3978
 1708THY    CA642699   5.433   8.543   4.541  0.2541  0.2282 -0.2167
 1708THY    HA642700   5.372   8.466   4.587 -1.1728 -0.2039 -2.6680
 1709THY      O42701   9.861   0.587   8.393 -0.2193 -0.0234 -0.4337
 1709THY     HO42702   9.804   0.555   8.465  0.9818 -0.4300  0.3515
 1709THY    CA142703   9.892   0.485   8.318  0.4904  1.0780  1.0499
 1709THY    CA242704   9.935   0.509   8.181  0.3610 -0.1115 -0.2023
 1709THY    CP142705   9.950   0.651   8.127  0.1067  0.2357  0.5155
 1709THY    HP142706   9.916   0.717   8.207 -0.1616  0.1073  0.5107
 1709THY    CP242707  10.100   0.692   8.108 -0.6627 -0.9468 -0.3351
 1709THY    HP242708  10.150   0.651   8.020  2.1619 -0.4754  0.9458
 1709THY    HP342709  10.103   0.800   8.094  1.8528 -0.9502 -0.2347
 1709THY    HP442710  10.159   0.654   8.192  0.4670 -0.4475 -0.8818
 1709THY    CP342711   9.867   0.673   8.003  0.1441  0.1337 -0.4467
 1709THY    HP542712   9.893   0.597   7.929 -0.4792  1.0176 -1.6156
 1709THY    HP642713   9.761   0.654   8.022  0.6552 -2.3985  0.2639
 1709THY    HP742714   9.887   0.777   7.975 -1.0283  0.7051  0.7063
 1709THY    CA342715   9.963   0.397   8.096  0.2650 -0.7666 -0.3642
 1709THY    HA342716   9.981   0.414   7.990  0.3039  2.2768  0.0302
 1709THY    CA442717   9.969   0.273   8.156 -0.2598  0.0238  0.4531
 1709THY    HA442718   9.974   0.188   8.088 -3.4534 -1.5501  1.9408
 1709THY    CA542719   9.941   0.249   8.290 -0.1609  0.1157  0.3728
 1709THY    CM142720   9.940   0.115   8.351 -0.2001 -0.1174 -0.2904
 1709THY    HM142721   9.956   0.118   8.459  3.7116  3.2116 -0.7411
 1709THY    HM242722   9.854   0.051   8.328  1.0040 -1.3815 -1.4957
 1709THY    HM342723  10.025   0.055   8.315 -1.7286 -1.6815 -1.4724
 1709THY    CA642724   9.899   0.358   8.372 -0.0189 -0.5184 -1.2772
 1709THY    HA642725   9.872   0.337   8.476 -0.9360  0.1999 -1.3544
 1710THY      O42726   2.978   3.909   9.934 -0.2994 -0.1488  0.2430
 1710THY     HO42727   3.057   3.940   9.983  0.5101 -0.0237 -1.0978
 1710THY    CA142728   2.876   3.891  10.027  0.3387  0.8827 -0.0987
 1710THY    CA242729   2.742   3.836   9.985 -0.0618  0.0122 -0.7761
 1710THY    CP142730   2.717   3.786   9.847 -0.5252 -0.4914  0.1768
 1710THY    HP142731   2.811   3.788   9.790 -0.2090 -2.0566  0.5794
 1710THY    CP242732   2.677   3.639   9.857 -0.3170 -0.4363  0.0920
 1710THY    HP242733   2.689   3.592   9.759  0.0213  0.2703 -0.2066
 1710THY    HP342734   2.734   3.585   9.934 -0.3636  2.5831  2.4291
 1710THY    HP442735   2.570   3.626   9.880 -0.6575  0.0040 -1.1907
 1710THY    CP342736   2.604   3.868   9.783 -0.3431 -0.2254 -0.1057
 1710THY    HP542737   2.511   3.871   9.841 -0.1515  1.5561  0.1788
 1710THY    HP642738   2.632   3.974   9.784 -2.6517  0.5099  2.5528
 1710THY    HP742739   2.588   3.845   9.678  0.0834 -1.9761  0.1782
 1710THY    CA342740   2.639   3.828  10.086  1.0813 -0.2817  0.4139
 1710THY    HA342741   2.543   3.783  10.060  0.7050  0.2603  0.8447
 1710THY    CA442742   2.666   3.861  10.216  0.5387  0.1199 -0.6514
 1710THY    HA442743   2.593   3.859  10.296  1.0897 -0.7058 -0.1599
 1710THY    CA542744   2.786   3.921  10.253  0.3229  0.7274  0.0254
 1710THY    CM142745   2.797   3.991  10.387 -0.0488  0.1052  0.4236
 1710THY    HM142746   2.705   3.976  10.444  0.2181 -0.2919  0.7587
 1710THY    HM242747   2.868   3.942  10.455  0.5127  0.1776 -0.1005
 1710THY    HM342748   2.818   4.098  10.386 -0.0782  0.1104 -0.1930
 1710THY    CA642749   2.891   3.923  10.158 -0.2349 -0.0761 -0.0058
 1710THY    HA642750   2.985   3.967  10.189 -0.8564  0.9920  0.4328
 1711THY      O42751   4.810   3.063   1.309 -0.5798  0.3043  0.0872
 1711THY     HO42752   4.762   2.992   1.355 -1.4150  0.7950 -0.0061
 1711THY    CA142753   4.943   3.038   1.329  0.6250  0.4300  0.4452
 1711THY    CA242754   5.028   3.146   1.367 -0.4504 -0.0071 -0.7756
 1711THY    CP142755   4.983   3.293   1.355 -0.4866  0.0251  0.0284
 1711THY    HP142756   4.880   3.298   1.316 -0.5939  0.3737  0.3427
 1711THY    CP242757   4.992   3.357   1.494  0.3920 -0.0717 -0.0094
 1711THY    HP242758   5.077   3.322   1.555 -0.1005 -0.6194  0.3709
 1711THY    HP342759   5.003   3.463   1.469 -0.1987 -0.4101 -1.8348
 1711THY    HP442760   4.900   3.331   1.547  0.5103  2.4111  1.5787
 1711THY    CP342761   5.081   3.362   1.256  0.3315  0.3034  0.7070
 1711THY    HP542762   5.182   3.365   1.297  0.8421  1.5709 -0.5940
 1711THY    HP642763   5.087   3.306   1.162 -4.1973 -1.5959  1.2851
 1711THY    HP742764   5.052   3.466   1.241 -0.8498  0.4544  3.4627
 1711THY    CA342765   5.156   3.112   1.386 -0.0673  0.2407 -0.8805
 1711THY    HA342766   5.238   3.176   1.417  1.1811 -1.5344 -0.3744
 1711THY    CA442767   5.196   2.980   1.375 -0.2630 -0.0198  0.5809
 1711THY    HA442768   5.300   2.958   1.398 -0.3278 -0.1640  0.7432
 1711THY    CA542769   5.112   2.879   1.350 -0.1098  0.0699  0.1921
 1711THY    CM142770   5.167   2.741   1.344  1.1445  0.0153  0.0488
 1711THY    HM142771   5.097   2.674   1.394  0.4041  1.7831  1.5034
 1711THY    HM242772   5.195   2.717   1.241 -1.0019  0.1033 -0.6189
 1711THY    HM342773   5.261   2.730   1.399  0.6604  1.4555  1.2388
 1711THY    CA642774   4.984   2.912   1.318 -0.5705  1.2783  0.3518
 1711THY    HA642775   4.915   2.831   1.296 -0.5962  1.2842  0.4115
 1712THY      O42776   9.197   3.384   5.325 -0.1545  0.3966 -0.4550
 1712THY     HO42777   9.204   3.462   5.267  0.5399 -0.0578 -0.9996
 1712THY    CA142778   9.070   3.338   5.338  0.3384 -1.1588  0.5119
 1712THY    CA242779   9.032   3.229   5.416  1.0384 -0.7987 -0.3082
 1712THY    CP142780   9.138   3.151   5.489  0.1950 -0.1409  0.1510
 1712THY    HP142781   9.221   3.218   5.513 -0.8837  1.2276  0.2099
 1712THY    CP242782   9.106   3.085   5.615  0.1858  0.1651 -0.6889
 1712THY    HP242783   9.074   3.154   5.694  1.7367 -0.2994  0.4162
 1712THY    HP342784   9.030   3.006   5.608  0.0639  0.0041  1.6042
 1712THY    HP442785   9.197   3.035   5.651 -0.9151  0.3383  2.6846
 1712THY    CP342786   9.190   3.046   5.392 -0.2015  0.5608 -0.2765
 1712THY    HP542787   9.112   2.977   5.356 -0.7720  1.1900 -0.2828
 1712THY    HP642788   9.222   3.106   5.307 -0.1104 -1.7303 -1.9606
 1712THY    HP742789   9.274   2.986   5.429 -1.6912 -2.9858 -2.1067
 1712THY    CA342790   8.902   3.193   5.430  0.0585  0.0941 -0.7632
 1712THY    HA342791   8.878   3.106   5.490  1.5559  1.5163  2.1308
 1712THY    CA442792   8.804   3.266   5.357 -0.2406 -0.5006  0.4754
 1712THY    HA442793   8.699   3.239   5.362 -0.4938  0.2743 -0.4342
 1712THY    CA542794   8.844   3.372   5.272  0.4538  0.2822 -0.2275
 1712THY    CM142795   8.750   3.456   5.197  0.3427  0.3513  0.8433
 1712THY    HM142796   8.798   3.550   5.169  1.4013  0.4328  2.7943
 1712THY    HM242797   8.716   3.407   5.105 -0.6408  2.2733  0.1256
 1712THY    HM342798   8.660   3.481   5.256 -0.6868  1.9625 -1.2784
 1712THY    CA642799   8.979   3.411   5.265  0.8161  0.2521 -0.1502
 1712THY    HA642800   9.007   3.498   5.207 -2.3098  0.2867 -1.8415
 1713THY      O42801   5.907   0.459   3.373 -0.4654  0.0533 -0.1020
 1713THY     HO42802   5.974   0.470   3.443  1.1771  2.5467 -1.9056
 1713THY    CA142803   5.787   0.468   3.431  0.2044 -0.5031 -0.1628
 1713THY    CA242804   5.667   0.456   3.356  0.4552 -0.1979 -0.3552
 1713THY    CP142805   5.670   0.433   3.202 -0.0493  0.1916  0.2638
 1713THY    HP142806   5.760   0.378   3.172 -1.4569 -1.6246 -0.8774
 1713THY    CP242807   5.569   0.319   3.171  0.1592  0.2131  0.6376
 1713THY    HP242808   5.586   0.291   3.067 -1.7909  1.9224 -0.2128
 1713THY    HP342809   5.572   0.230   3.235 -1.7642  0.3667  1.0053
 1713THY    HP442810   5.466   0.357   3.175 -0.1519 -0.6567  1.3336
 1713THY    CP342811   5.646   0.563   3.122  0.0058 -0.4506  0.4137
 1713THY    HP542812   5.670   0.556   3.015 -1.3507 -2.1216  0.1763
 1713THY    HP642813   5.538   0.579   3.130 -0.3593 -1.7778 -1.2196
 1713THY    HP742814   5.696   0.642   3.179  2.8965 -1.1495 -0.9636
 1713THY    CA342815   5.549   0.474   3.429  0.1962  0.0684  1.3865
 1713THY    HA342816   5.452   0.451   3.386  0.2400 -0.7476  1.7187
 1713THY    CA442817   5.547   0.499   3.565  0.3134  0.7475  0.1856
 1713THY    HA442818   5.455   0.510   3.622  0.2991  1.1237  0.0956
 1713THY    CA542819   5.675   0.525   3.635  0.3891  0.4924 -0.9923
 1713THY    CM142820   5.674   0.559   3.788 -0.5356 -0.6373 -0.2677
 1713THY    HM142821   5.574   0.591   3.818 -0.2438  0.0362  0.0190
 1713THY    HM242822   5.699   0.479   3.859 -2.5483  0.1852  1.4687
 1713THY    HM342823   5.749   0.639   3.795 -0.7082 -0.4409 -0.6683
 1713THY    CA642824   5.793   0.496   3.568  0.8168 -0.3003  0.0438
 1713THY    HA642825   5.889   0.507   3.619  1.7206  0.0947 -1.6698
 1714THY      O42826   0.231   5.212   7.086 -0.0230 -0.2802 -0.0405
 1714THY     HO42827   0.287   5.173   7.017  0.4810 -0.0360  0.2229
 1714THY    CA142828   0.155   5.312   7.035  0.8912  0.0643 -0.3307
 1714THY    CA242829   0.032   5.343   7.084  0.3522 -0.3892  0.1160
 1714THY    CP142830  -0.028   5.277   7.206  0.2767  0.1911 -0.0589
 1714THY    HP142831   0.059   5.229   7.253 -0.8513 -1.0515  0.8388
 1714THY    CP242832  -0.092   5.381   7.299  0.0798 -0.0262 -0.5215
 1714THY    HP242833  -0.045   5.480   7.304 -0.3792  0.2212 -0.9856
 1714THY    HP342834  -0.190   5.399   7.253  1.4303  3.4749 -2.4176
 1714THY    HP442835  -0.097   5.340   7.401  2.4920 -0.8482 -0.6809
 1714THY    CP342836  -0.123   5.162   7.174 -0.6290  0.1035 -0.0905
 1714THY    HP542837  -0.217   5.194   7.126 -1.7946 -0.7773  1.5109
 1714THY    HP642838  -0.078   5.079   7.119 -0.6215  0.9604 -1.4126
 1714THY    HP742839  -0.161   5.127   7.271 -0.2423 -1.4843 -0.4911
 1714THY    CA342840  -0.047   5.440   7.019 -0.8039 -0.9091  0.4534
 1714THY    HA342841  -0.150   5.466   7.040 -1.8114 -3.8152 -0.4764
 1714THY    CA442842   0.010   5.509   6.910 -0.3180 -0.8138  0.2223
 1714THY    HA442843  -0.049   5.579   6.850  0.1467 -0.7950 -0.2247
 1714THY    CA542844   0.144   5.492   6.881  0.0306 -0.0087 -0.5172
 1714THY    CM142845   0.198   5.576   6.771 -0.0377  0.3359 -0.0228
 1714THY    HM142846   0.306   5.569   6.759 -0.1279 -0.6069 -0.3617
 1714THY    HM242847   0.151   5.556   6.675  2.2124  3.5838 -1.9939
 1714THY    HM342848   0.176   5.682   6.791 -1.9107 -0.3583  1.9858
 1714THY    CA642849   0.215   5.382   6.938  0.0272  0.7123 -0.1846
 1714THY    HA642850   0.309   5.348   6.897 -0.4113  2.4022 -2.8922
 1715THY      O42851   2.336   2.568   0.320  0.6428 -0.1525 -0.3603
 1715THY     HO42852   2.285   2.497   0.362 -2.1937  2.2718  0.6882
 1715THY    CA142853   2.343   2.536   0.191 -0.4147  0.2350 -0.7791
 1715THY    CA242854   2.386   2.635   0.090  0.4921  0.0120  0.3137
 1715THY    CP142855   2.416   2.783   0.133  0.4704  0.1825  0.0912
 1715THY    HP142856   2.348   2.822   0.209  0.5031 -0.8645  0.6588
 1715THY    CP242857   2.560   2.806   0.180 -0.5705 -0.0629  0.2289
 1715THY    HP242858   2.573   2.914   0.196  0.9661 -0.1209 -0.4058
 1715THY    HP342859   2.579   2.759   0.277  2.4152 -0.0733 -0.2504
 1715THY    HP442860   2.619   2.774   0.093 -1.3809 -0.3980 -0.2092
 1715THY    CP342861   2.395   2.883   0.013 -0.0759 -0.0933  0.1104
 1715THY    HP542862   2.479   2.869  -0.055 -0.3066 -1.0609 -0.0012
 1715THY    HP642863   2.305   2.848  -0.039 -1.1890  0.3062  1.6999
 1715THY    HP742864   2.386   2.988   0.043  0.8962 -0.2559  1.0333
 1715THY    CA342865   2.409   2.582  -0.041  0.2633 -0.3833 -0.1920
 1715THY    HA342866   2.464   2.644  -0.111  0.2000 -0.1162 -0.0094
 1715THY    CA442867   2.380   2.451  -0.074  0.3022 -0.6765  0.6162
 1715THY    HA442868   2.394   2.410  -0.174  0.0158 -0.8416  0.6422
 1715THY    CA542869   2.329   2.368   0.020  0.2321 -0.1333  0.6156
 1715THY    CM142870   2.291   2.224  -0.017  0.5609 -0.1289 -0.8094
 1715THY    HM142871   2.377   2.156  -0.018 -0.6487 -1.7394  0.0222
 1715THY    HM242872   2.231   2.177   0.062  2.3060 -2.0900 -0.5840
 1715THY    HM342873   2.236   2.212  -0.111 -2.1144  1.4273  0.4186
 1715THY    CA642874   2.320   2.407   0.155  0.5431 -0.2349 -0.1261
 1715THY    HA642875   2.276   2.333   0.222 -1.3076  1.7968  1.0201
 1716THY      O42876   3.513   6.537   2.038  0.6251 -0.2464 -0.4486
 1716THY     HO42877   3.455   6.615   2.042  0.7639 -0.1867  0.9409
 1716THY    CA142878   3.445   6.449   1.961 -0.0311 -0.7074 -0.0445
 1716THY    CA242879   3.436   6.454   1.820  0.2522 -0.9179 -0.0891
 1716THY    CP142880   3.510   6.571   1.745 -0.1318 -0.2149  0.5220
 1716THY    HP142881   3.509   6.661   1.808 -3.7685  1.7385 -1.9341
 1716THY    CP242882   3.646   6.512   1.716 -0.5484  0.8411 -0.5837
 1716THY    HP242883   3.675   6.497   1.820  0.8837  0.3257 -1.0233
 1716THY    HP342884   3.647   6.424   1.650 -0.6379  0.4124 -0.0161
 1716THY    HP442885   3.705   6.601   1.689 -0.1167  0.6445 -0.2981
 1716THY    CP342886   3.438   6.629   1.623 -0.4002  0.0033  0.2212
 1716THY    HP542887   3.337   6.665   1.644 -1.1063  0.4103 -3.3207
 1716THY    HP642888   3.490   6.705   1.564  0.3220 -1.4905 -1.1587
 1716THY    HP742889   3.429   6.550   1.548  1.0932 -0.0301  0.0490
 1716THY    CA342890   3.349   6.364   1.759 -0.8023 -0.3462  0.2349
 1716THY    HA342891   3.342   6.364   1.650 -1.9074  0.4827  0.2966
 1716THY    CA442892   3.284   6.264   1.833  0.2689  0.3447  0.0525
 1716THY    HA442893   3.205   6.204   1.787 -0.4483  1.4147 -0.1456
 1716THY    CA542894   3.310   6.243   1.969 -0.7005 -0.5652 -0.3307
 1716THY    CM142895   3.256   6.124   2.042 -0.0960 -0.6558 -0.3205
 1716THY    HM142896   3.149   6.135   2.065 -0.4212 -0.8358 -1.7018
 1716THY    HM242897   3.263   6.035   1.979  0.2498  0.2514 -1.5959
 1716THY    HM342898   3.331   6.100   2.119  0.9683 -0.1093 -1.1576
 1716THY    CA642899   3.382   6.341   2.030  0.6323 -0.9006 -0.0835
 1716THY    HA642900   3.395   6.343   2.138 -1.1636 -2.8395  0.2296
 1717THY      O42901   9.915   3.357   7.894 -0.3062 -0.3853 -0.5666
 1717THY     HO42902   9.844   3.424   7.895  0.5418  0.5456  0.2851
 1717THY    CA142903   9.904   3.286   7.777 -0.3725  0.6987 -0.6011
 1717THY    CA242904  10.023   3.225   7.722 -0.2724 -0.1971  0.0708
 1717THY    CP142905  10.149   3.210   7.803 -0.2036  0.2402  0.1221
 1717THY    HP142906  10.137   3.289   7.877 -0.6932  2.0045 -1.7368
 1717THY    CP242907  10.149   3.067   7.874 -0.2447 -0.6130  0.2625
 1717THY    HP242908  10.146   2.987   7.798 -1.7381  0.7189 -1.1739
 1717THY    HP342909  10.237   3.051   7.937 -0.8217 -0.1166  1.2149
 1717THY    HP442910  10.062   3.061   7.940 -0.4698 -0.1823  0.0156
 1717THY    CP342911  10.273   3.237   7.718  0.0946  0.7330 -0.3640
 1717THY    HP542912  10.357   3.246   7.787  0.4387 -1.5202 -0.4062
 1717THY    HP642913  10.287   3.154   7.647 -1.5443  0.7021 -0.7036
 1717THY    HP742914  10.272   3.342   7.687  0.0459  1.0179  0.5751
 1717THY    CA342915  10.013   3.165   7.592 -0.4473  0.7264 -0.1489
 1717THY    HA342916  10.093   3.097   7.562 -0.2526  0.2029  1.4724
 1717THY    CA442917   9.897   3.183   7.519 -0.0991 -0.2080 -0.5906
 1717THY    HA442918   9.889   3.134   7.423 -1.3586 -0.3267 -0.4430
 1717THY    CA542919   9.782   3.240   7.575 -0.1353  0.3108  0.5735
 1717THY    CM142920   9.664   3.259   7.480 -0.2893  0.4803  0.4421
 1717THY    HM142921   9.578   3.312   7.523 -1.1688 -0.3627 -0.2144
 1717THY    HM242922   9.695   3.309   7.387 -1.7709 -0.7691 -0.7844
 1717THY    HM342923   9.621   3.161   7.456 -0.0006  0.5960 -0.6042
 1717THY    CA642924   9.786   3.288   7.708 -0.3409 -0.3297 -0.0321
 1717THY    HA642925   9.692   3.322   7.749 -1.4590 -0.6346 -2.1640
 1718THY      O42926   6.396   9.815   7.608 -0.3556  0.0624 -0.4120
 1718THY     HO42927   6.304   9.793   7.585 -0.3063 -2.1950  1.3204
 1718THY    CA142928   6.367   9.894   7.708  0.4214  0.0975 -0.3285
 1718THY    CA242929   6.454   9.999   7.752  0.6899  0.1204  0.1689
 1718THY    CP142930   6.575  10.038   7.667 -0.0869  0.6128 -0.2181
 1718THY    HP142931   6.619   9.939   7.650 -0.0994 -0.0324  2.9800
 1718THY    CP242932   6.549  10.110   7.534  0.3250 -0.6156  0.0324
 1718THY    HP242933   6.624  10.103   7.455  0.7581  0.8135  0.2778
 1718THY    HP342934   6.459  10.063   7.492 -0.2923  1.1955 -0.7655
 1718THY    HP442935   6.523  10.215   7.555  0.0295 -0.9498  1.4062
 1718THY    CP342936   6.687  10.103   7.745 -0.4005 -0.2904  0.3529
 1718THY    HP542937   6.770  10.145   7.687  0.1769 -1.5372  0.2417
 1718THY    HP642938   6.657  10.198   7.791  2.1749  0.8016 -0.0446
 1718THY    HP742939   6.726  10.030   7.816 -2.0015 -1.8632 -0.2883
 1718THY    CA342940   6.415  10.069   7.871  0.1016 -0.3152  0.4653
 1718THY    HA342941   6.475  10.156   7.897  0.5212  0.3075 -2.3284
 1718THY    CA442942   6.312  10.021   7.949  0.1986 -0.6061 -0.4142
 1718THY    HA442943   6.284  10.080   8.035  0.3293  0.4024 -1.0485
 1718THY    CA542944   6.226   9.923   7.904  0.4023  0.2138  0.0515
 1718THY    CM142945   6.097   9.878   7.986  0.0478 -0.4716 -0.5372
 1718THY    HM142946   6.063   9.971   8.033  1.3421 -0.0657 -0.3614
 1718THY    HM242947   6.011   9.851   7.923 -0.5493  0.9264 -0.3509
 1718THY    HM342948   6.117   9.795   8.056 -0.6775  0.3502  0.6727
 1718THY    CA642949   6.254   9.861   7.782  0.3860 -0.0701 -0.0754
 1718THY    HA642950   6.189   9.786   7.737  2.1437 -1.7805  0.0983
 1719THY      O42951   2.667   6.431   0.951 -0.0267  0.1885 -0.2179
 1719THY     HO42952   2.671   6.364   1.021  0.4683  2.6906  2.3317
 1719THY    CA142953   2.582   6.533   0.987  0.3081  0.3031 -0.3828
 1719THY    CA242954   2.609   6.669   0.965  0.4569 -1.2245  0.8578
 1719THY    CP142955   2.741   6.712   0.903 -0.1302  0.0814  0.2357
 1719THY    HP142956   2.802   6.630   0.861  0.5144  1.3225 -1.3533
 1719THY    CP242957   2.726   6.799   0.775 -0.1106 -0.1767  0.1966
 1719THY    HP242958   2.659   6.883   0.798 -1.3923 -1.2598  0.5442
 1719THY    HP342959   2.827   6.836   0.755 -1.0637  1.4729 -1.9816
 1719THY    HP442960   2.681   6.738   0.695 -1.0298  0.0024  0.5735
 1719THY    CP342961   2.823   6.779   1.016 -0.4268  0.2411  0.1764
 1719THY    HP542962   2.803   6.720   1.106 -0.3417 -2.3798 -1.4343
 1719THY    HP642963   2.931   6.777   1.003 -0.5996 -0.9820 -1.2374
 1719THY    HP742964   2.789   6.883   1.029 -0.7744  0.2391 -0.6631
 1719THY    CA342965   2.503   6.769   0.978  0.3589  0.6687 -0.2868
 1719THY    HA342966   2.514   6.876   0.962 -0.0596  0.6129 -0.9925
 1719THY    CA442967   2.381   6.723   1.035  0.1691  0.2496  0.5629
 1719THY    HA442968   2.305   6.794   1.065  0.1869  0.3177  0.4502
 1719THY    CA542969   2.358   6.592   1.063 -0.1309  0.3017 -0.3125
 1719THY    CM142970   2.227   6.558   1.131 -0.6040  0.7228  0.0379
 1719THY    HM142971   2.233   6.472   1.199  0.4477  0.0350 -0.8930
 1719THY    HM242972   2.180   6.644   1.180 -1.8482  0.2870 -0.3721
 1719THY    HM342973   2.160   6.522   1.052  0.0511 -1.2523  0.3222
 1719THY    CA642974   2.456   6.496   1.034 -0.7967  0.3070 -0.2159
 1719THY    HA642975   2.444   6.389   1.039 -0.6782  0.2912 -0.2642
 1720THY      O42976   7.019   3.053   5.389  0.8154  0.0205  0.2599
 1720THY     HO42977   7.104   3.052   5.342 -0.0600  0.0812 -1.4026
 1720THY    CA142978   6.939   3.151   5.325  0.7074 -0.7109 -0.0986
 1720THY    CA242979   6.792   3.156   5.328 -0.1949 -0.0227  0.1104
 1720THY    CP142980   6.710   3.059   5.419  0.1783  0.2824 -0.0475
 1720THY    HP142981   6.766   3.033   5.510 -1.2886 -0.0660  0.7938
 1720THY    CP242982   6.581   3.120   5.475 -0.5523  0.1731 -0.6078
 1720THY    HP242983   6.503   3.125   5.399  0.4613 -0.3844 -1.7175
 1720THY    HP342984   6.547   3.064   5.563  2.8003 -0.7065  0.2762
 1720THY    HP442985   6.587   3.225   5.504 -2.2321  0.3191 -0.6669
 1720THY    CP342986   6.686   2.927   5.343 -0.0019 -0.0120 -0.4295
 1720THY    HP542987   6.642   2.853   5.411 -0.5099  1.9380  1.5183
 1720THY    HP642988   6.617   2.944   5.260 -2.4784  2.0681  1.8263
 1720THY    HP742989   6.782   2.888   5.308 -0.4103 -1.1364 -0.3375
 1720THY    CA342990   6.727   3.260   5.258  0.2128  0.2515  0.5059
 1720THY    HA342991   6.621   3.274   5.273 -0.1930 -0.3908 -1.4126
 1720THY    CA442992   6.796   3.338   5.169  0.1348 -0.5638  0.6873
 1720THY    HA442993   6.749   3.420   5.115 -0.2214 -1.1614  0.0854
 1720THY    CA542994   6.933   3.329   5.167  0.1924  0.2456 -0.1092
 1720THY    CM142995   7.006   3.417   5.064  0.2647 -0.4897 -0.2228
 1720THY    HM142996   7.112   3.414   5.093 -0.3598 -1.5876  2.1842
 1720THY    HM242997   6.982   3.376   4.965  1.0099 -2.1449  0.2494
 1720THY    HM342998   6.985   3.524   5.069  0.5717 -0.4248 -0.2571
 1720THY    CA642999   7.007   3.235   5.241  1.0759  0.0611 -0.2731
 1720THY    HA643000   7.115   3.227   5.241  1.0449 -0.9643  1.8309
 1721THY      O43001   8.236   7.714   5.409 -0.0547  0.3410 -0.2902
 1721THY     HO43002   8.181   7.716   5.329 -1.1647  2.9474  0.4476
 1721THY    CA143003   8.294   7.592   5.424  1.1487  0.6304  0.6880
 1721THY    CA243004   8.406   7.574   5.500 -0.3495  0.5615 -0.1080
 1721THY    CP143005   8.478   7.696   5.558 -0.1170 -0.1252  1.0322
 1721THY    HP143006   8.415   7.783   5.576  0.4649  0.7990 -1.1276
 1721THY    CP243007   8.545   7.670   5.693 -0.6014  0.0684 -0.2540
 1721THY    HP243008   8.565   7.761   5.750 -0.7542 -0.2073  0.2477
 1721THY    HP343009   8.480   7.614   5.763 -0.3765  1.1751  0.8774
 1721THY    HP443010   8.634   7.606   5.691 -0.4597  0.2921 -1.5862
 1721THY    CP343011   8.577   7.766   5.458 -0.0402  0.0599 -0.0390
 1721THY    HP543012   8.523   7.791   5.366  1.0460 -0.7222 -0.9119
 1721THY    HP643013   8.619   7.857   5.503 -1.4784  1.2409 -0.9881
 1721THY    HP743014   8.664   7.702   5.443  0.8322  1.0185  0.7771
 1721THY    CA343015   8.459   7.443   5.516  0.3883  0.1011  0.2750
 1721THY    HA343016   8.550   7.431   5.574  1.6845 -0.1340 -1.7253
 1721THY    CA443017   8.391   7.337   5.459  0.3604  0.1273 -0.4997
 1721THY    HA443018   8.418   7.232   5.472  0.3716  0.1737 -0.1342
 1721THY    CA543019   8.276   7.357   5.384  0.1029  0.4954 -0.2467
 1721THY    CM143020   8.198   7.249   5.320  0.5070  0.3626 -0.1457
 1721THY    HM143021   8.210   7.262   5.212 -2.1738  1.0219 -0.4332
 1721THY    HM243022   8.218   7.145   5.348  0.1751 -0.6862 -3.4069
 1721THY    HM343023   8.092   7.276   5.326  0.0222 -1.3419 -0.5465
 1721THY    CA643024   8.231   7.486   5.364  0.7386 -0.8093 -0.5297
 1721THY    HA643025   8.144   7.509   5.303  0.6317 -3.1050 -1.3159
 1722THY      O43026   7.575   1.473   2.762  0.1059  0.2321 -0.2962
 1722THY     HO43027   7.653   1.498   2.814  0.9643  0.6560 -1.7646
 1722THY    CA143028   7.534   1.592   2.705  0.6185 -0.3273 -0.0548
 1722THY    CA243029   7.422   1.598   2.614  0.4892 -0.3728  0.2592
 1722THY    CP143030   7.366   1.468   2.550  0.2524 -0.2459  0.2740
 1722THY    HP143031   7.438   1.388   2.566 -1.8535 -2.5269 -0.9965
 1722THY    CP243032   7.236   1.426   2.604 -0.0050  0.1859 -0.3061
 1722THY    HP243033   7.193   1.333   2.565 -1.9273  0.6684  0.5531
 1722THY    HP343034   7.236   1.412   2.713  1.5571 -1.2549 -0.4393
 1722THY    HP443035   7.167   1.508   2.581  1.9546  1.9342 -0.2446
 1722THY    CP343036   7.359   1.487   2.393 -0.2320  0.5220 -0.5784
 1722THY    HP543037   7.325   1.398   2.340  0.1697  0.1086 -0.1499
 1722THY    HP643038   7.287   1.567   2.371 -2.1650 -0.7221  0.9531
 1722THY    HP743039   7.452   1.527   2.351 -0.3495  0.2060 -1.1540
 1722THY    CA343040   7.363   1.716   2.576 -0.0460  0.3539  0.0442
 1722THY    HA343041   7.291   1.730   2.496  1.8793  0.2682 -1.7857
 1722THY    CA443042   7.428   1.832   2.630  1.6150  0.4495  0.3845
 1722THY    HA443043   7.399   1.932   2.598  2.1916 -0.4369 -3.2722
 1722THY    CA543044   7.527   1.828   2.726  0.0328  0.6369 -0.1080
 1722THY    CM143045   7.574   1.957   2.790  0.3382  0.3315 -0.3552
 1722THY    HM143046   7.498   2.020   2.839  1.3489 -1.2518  3.6706
 1722THY    HM243047   7.651   1.937   2.865  0.4249  0.4733 -0.4049
 1722THY    HM343048   7.630   2.026   2.726  2.4639  0.9255  1.9780
 1722THY    CA643049   7.587   1.708   2.766  0.2269  0.5399  0.0269
 1722THY    HA643050   7.668   1.725   2.835  1.1224 -0.0785 -0.8405
 1723THY      O43051   3.312   6.422   4.793 -0.3668  0.4419 -0.6457
 1723THY     HO43052   3.269   6.496   4.838 -1.6125 -1.4676  1.5466
 1723THY    CA143053   3.238   6.404   4.679 -0.3315  0.4741  0.4467
 1723THY    CA243054   3.257   6.283   4.609 -0.7416 -0.4982  0.4029
 1723THY    CP143055   3.371   6.188   4.647  0.4253 -0.9622  0.2979
 1723THY    HP143056   3.383   6.191   4.756 -3.0293 -2.1281  0.8137
 1723THY    CP243057   3.338   6.038   4.618  0.0024 -0.3650  0.3288
 1723THY    HP243058   3.244   6.001   4.661  0.4212 -1.5559  0.2586
 1723THY    HP343059   3.333   6.034   4.508  2.4636 -1.2557  0.1900
 1723THY    HP443060   3.421   5.980   4.659  1.3134  1.3720  0.2371
 1723THY    CP343061   3.496   6.234   4.572  0.1031 -0.0758  0.2324
 1723THY    HP543062   3.519   6.334   4.611  0.5165 -0.0683 -0.0220
 1723THY    HP643063   3.582   6.168   4.587 -0.1349 -0.5143 -0.2898
 1723THY    HP743064   3.477   6.240   4.464  0.5774  0.7759  0.1857
 1723THY    CA343065   3.189   6.267   4.488 -0.1997  0.4671  0.0427
 1723THY    HA343066   3.191   6.169   4.441 -0.0160 -1.7896  4.2088
 1723THY    CA443067   3.096   6.369   4.452 -0.8432 -0.2202 -0.1116
 1723THY    HA443068   3.031   6.355   4.366 -3.1646 -0.9458  1.6403
 1723THY    CA543069   3.087   6.487   4.524 -0.1428 -0.7642 -0.3414
 1723THY    CM143070   2.990   6.590   4.485  0.7988  0.3213 -0.1004
 1723THY    HM143071   2.904   6.578   4.552 -0.3764  2.0315 -1.2052
 1723THY    HM243072   3.034   6.690   4.480 -0.3574  0.8133 -1.0736
 1723THY    HM343073   2.942   6.570   4.388  0.3381  0.5706  0.0728
 1723THY    CA643074   3.153   6.498   4.646  0.2560 -0.3894 -0.8477
 1723THY    HA643075   3.127   6.589   4.699 -0.0342 -0.6136 -0.6006
 1724THY      O43076   3.041   8.037   2.325  0.1237  0.2971  0.2903
 1724THY     HO43077   3.072   7.979   2.396 -0.6182 -1.8618 -1.0278
 1724THY    CA143078   3.118   8.149   2.339 -0.1632 -0.4777 -0.6331
 1724THY    CA243079   3.067   8.272   2.380 -0.0397  0.4863 -0.7922
 1724THY    CP143080   2.910   8.285   2.394 -0.6251  0.1399  0.6636
 1724THY    HP143081   2.867   8.195   2.347 -0.1054  0.0649  0.3166
 1724THY    CP243082   2.867   8.275   2.540  0.6526 -0.1541 -0.4691
 1724THY    HP243083   2.918   8.350   2.602 -0.6409 -0.0029  0.4724
 1724THY    HP343084   2.759   8.273   2.559  0.8101  0.9570  0.7271
 1724THY    HP443085   2.913   8.179   2.565  3.0182  0.3991 -2.3145
 1724THY    CP343086   2.861   8.420   2.321 -0.3832 -0.0059 -0.1137
 1724THY    HP543087   2.759   8.405   2.285 -0.2471  1.4825 -1.2117
 1724THY    HP643088   2.857   8.501   2.395  0.4417 -0.0726  0.0118
 1724THY    HP743089   2.914   8.443   2.228 -0.0107  1.7824  0.5100
 1724THY    CA343090   3.151   8.381   2.418  0.1997 -0.2591  0.2799
 1724THY    HA343091   3.103   8.475   2.442 -1.0694 -0.9194  0.4347
 1724THY    CA443092   3.287   8.363   2.407 -0.9984 -0.4346  0.5375
 1724THY    HA443093   3.354   8.439   2.444 -0.9675 -0.8136  1.2684
 1724THY    CA543094   3.349   8.248   2.352  0.2585 -0.0577 -0.0541
 1724THY    CM143095   3.500   8.236   2.344 -0.6668 -1.1233  0.8786
 1724THY    HM143096   3.542   8.333   2.316 -2.4488 -0.2194  1.2341
 1724THY    HM243097   3.544   8.197   2.436  0.7387 -1.0826  0.2529
 1724THY    HM343098   3.524   8.169   2.260 -0.2911 -1.6691  1.4141
 1724THY    CA643099   3.259   8.140   2.318  0.1293 -0.0964  0.0076
 1724THY    HA643100   3.307   8.050   2.281  3.8775  1.8386 -0.3068
 1725THY      O43101   3.929   8.716   8.650 -0.1175 -0.5628 -0.0999
 1725THY     HO43102   3.853   8.658   8.634  0.3549 -0.8769 -1.2896
 1725THY    CA143103   3.903   8.830   8.583  0.2359 -0.4315  0.2330
 1725THY    CA243104   3.998   8.938   8.581 -0.0772 -0.2685 -0.5943
 1725THY    CP143105   4.135   8.933   8.653 -0.0078  0.9333 -0.0796
 1725THY    HP143106   4.177   8.833   8.635 -1.3270  0.4860 -0.7645
 1725THY    CP243107   4.247   9.021   8.588  0.6092 -0.4171  0.1671
 1725THY    HP243108   4.228   9.014   8.480 -0.7669 -0.5797  0.4082
 1725THY    HP343109   4.253   9.126   8.619  0.9574 -1.0148  2.2742
 1725THY    HP443110   4.346   8.980   8.610  0.9651  0.8802  1.0955
 1725THY    CP343111   4.132   8.945   8.806  0.3213  0.9684 -0.1048
 1725THY    HP543112   4.235   8.942   8.843 -0.6293  0.3575  2.8197
 1725THY    HP643113   4.090   9.043   8.832  0.9414  1.4927 -1.0502
 1725THY    HP743114   4.074   8.860   8.847  1.2848  1.0500  1.5348
 1725THY    CA343115   3.960   9.053   8.510 -0.5833 -0.2816 -0.0919
 1725THY    HA343116   4.023   9.141   8.508 -1.8730  0.6870 -2.2830
 1725THY    CA443117   3.830   9.059   8.447 -0.4419  0.6224  0.5144
 1725THY    HA443118   3.807   9.148   8.390  2.5791  1.2548  0.0987
 1725THY    CA543119   3.738   8.948   8.454 -0.6714  0.0819  0.7944
 1725THY    CM143120   3.609   8.957   8.392  0.6791 -0.1729  0.0204
 1725THY    HM143121   3.584   8.869   8.331  1.5127  0.1422 -0.8131
 1725THY    HM243122   3.527   8.974   8.461  0.2433 -0.0356 -0.5233
 1725THY    HM343123   3.614   9.029   8.309  0.0723 -0.3192 -0.1449
 1725THY    CA643124   3.778   8.834   8.523 -0.1876  0.8212  1.0504
 1725THY    HA643125   3.711   8.749   8.517 -0.0229  0.7493  0.1533
 1726THY      O43126   4.107   7.312   3.122 -0.1980 -0.1181 -0.2349
 1726THY     HO43127   4.156   7.374   3.066  0.6225 -0.5758 -0.0451
 1726THY    CA143128   4.204   7.245   3.192 -0.2601  0.5433 -0.4971
 1726THY    CA243129   4.178   7.152   3.290  0.3271  0.4885  0.9065
 1726THY    CP143130   4.030   7.104   3.301  0.0602 -0.6217  0.5310
 1726THY    HP143131   3.960   7.162   3.240 -0.1422 -0.7509  0.6358
 1726THY    CP243132   4.009   6.949   3.277 -0.3733 -0.4855  0.1283
 1726THY    HP243133   4.071   6.885   3.339 -0.5281 -0.1604  0.6273
 1726THY    HP343134   3.902   6.927   3.286 -0.4965 -0.3269 -0.7808
 1726THY    HP443135   4.026   6.930   3.170  1.0737 -1.3119  0.4868
 1726THY    CP343136   3.990   7.122   3.451 -0.5717  0.2222  0.4509
 1726THY    HP543137   3.888   7.085   3.465 -0.9659  0.9526 -0.3805
 1726THY    HP643138   4.054   7.067   3.521  0.2178 -0.9111 -1.0987
 1726THY    HP743139   3.981   7.229   3.475 -1.2100  0.3518 -0.3462
 1726THY    CA343140   4.282   7.096   3.369 -0.0775  0.6246 -0.0638
 1726THY    HA343141   4.256   7.019   3.441 -1.8757  1.1824 -0.0762
 1726THY    CA443142   4.412   7.150   3.357  0.4160 -0.0798  1.1709
 1726THY    HA443143   4.499   7.113   3.412  0.4058 -1.5018  0.2840
 1726THY    CA543144   4.439   7.248   3.259 -0.0023 -0.7110  0.2575
 1726THY    CM143145   4.573   7.287   3.224 -0.7384 -0.4068  0.1266
 1726THY    HM143146   4.578   7.395   3.206 -1.8956 -0.1145  1.3653
 1726THY    HM243147   4.647   7.261   3.301 -1.4617 -0.6574  0.7541
 1726THY    HM343148   4.616   7.229   3.143  1.3080 -1.3256  1.7764
 1726THY    CA643149   4.333   7.291   3.171 -0.6198 -0.1320 -0.7628
 1726THY    HA643150   4.351   7.352   3.083 -3.0241 -0.3866 -1.5185
 1727THY      O43151   8.228   5.752   1.639 -0.1409 -0.2131 -0.2792
 1727THY     HO43152   8.313   5.723   1.600 -0.5462  2.3392 -3.5587
 1727THY    CA143153   8.138   5.654   1.631 -0.0932  0.5095 -0.1025
 1727THY    CA243154   8.012   5.641   1.695 -0.0946 -0.3695  0.0557
 1727THY    CP143155   7.977   5.752   1.800 -0.7090 -0.0134  0.0162
 1727THY    HP143156   8.054   5.831   1.800 -0.2124 -0.4797 -1.4976
 1727THY    CP243157   7.844   5.826   1.776 -0.0155 -0.3262 -0.1541
 1727THY    HP243158   7.848   5.893   1.690  3.0031 -1.6475 -1.1859
 1727THY    HP343159   7.763   5.754   1.758 -0.0305  0.1601 -2.3343
 1727THY    HP443160   7.816   5.885   1.863 -0.7149  0.1399 -0.6813
 1727THY    CP343161   7.983   5.699   1.944  0.5238  0.3759 -0.6929
 1727THY    HP543162   7.928   5.751   2.023  2.1950  0.3479  0.5521
 1727THY    HP643163   7.944   5.598   1.962  1.8887  0.1666  1.5135
 1727THY    HP743164   8.089   5.684   1.968  1.0836  0.8390 -2.7233
 1727THY    CA343165   7.928   5.530   1.679  0.0717 -0.3329 -0.4130
 1727THY    HA343166   7.833   5.532   1.730  0.4344 -1.1949  0.3280
 1727THY    CA443167   7.982   5.424   1.607 -0.1378  0.3574 -0.4162
 1727THY    HA443168   7.928   5.331   1.590  0.8695 -0.0170 -1.7745
 1727THY    CA543169   8.111   5.427   1.549 -0.0170  0.4691 -0.2093
 1727THY    CM143170   8.162   5.318   1.465 -0.4004 -0.2575  0.9000
 1727THY    HM143171   8.111   5.229   1.503 -0.0423 -0.8105  0.0957
 1727THY    HM243172   8.117   5.339   1.367  1.0222 -0.5132  0.1630
 1727THY    HM343173   8.269   5.322   1.441 -0.6837  1.0467 -0.2748
 1727THY    CA643174   8.186   5.544   1.559  0.1312  0.4946 -0.1050
 1727THY    HA643175   8.280   5.548   1.505 -0.1319  0.4657 -0.5782
 1728THY      O43176   2.958   8.514   3.317 -0.1302  0.3047  0.0571
 1728THY     HO43177   3.015   8.569   3.374  0.0858 -0.9016  1.0489
 1728THY    CA143178   2.894   8.610   3.242  0.4416 -0.1068 -0.6443
 1728THY    CA243179   2.824   8.576   3.129 -0.3465 -1.5207 -0.2163
 1728THY    CP143180   2.826   8.425   3.095 -0.0506  0.9116  0.3448
 1728THY    HP143181   2.842   8.345   3.169 -1.4323 -0.4129 -0.7083
 1728THY    CP243182   2.695   8.375   3.036  0.6034  0.0991  0.1992
 1728THY    HP243183   2.692   8.272   2.998  0.5659  0.3705 -0.5603
 1728THY    HP343184   2.614   8.379   3.109  0.1707 -1.9907 -0.1053
 1728THY    HP443185   2.664   8.441   2.954  1.4262  1.2279  0.7653
 1728THY    CP343186   2.933   8.409   2.985  0.3584 -0.0895 -0.8101
 1728THY    HP543187   2.917   8.484   2.907 -0.6089  0.5639 -0.0121
 1728THY    HP643188   3.030   8.423   3.036 -0.2170 -1.0603  0.6113
 1728THY    HP743189   2.935   8.307   2.946 -3.0842 -1.0084  1.0614
 1728THY    CA343190   2.746   8.681   3.065 -0.3997 -0.1235  0.1572
 1728THY    HA343191   2.663   8.657   2.999 -0.8504 -1.2039  1.0863
 1728THY    CA443192   2.753   8.806   3.111  0.3041 -0.3828 -0.2529
 1728THY    HA443193   2.698   8.890   3.070 -1.0239 -1.2583 -0.2987
 1728THY    CA543194   2.833   8.838   3.223 -0.3036 -0.1927 -0.2732
 1728THY    CM143195   2.848   8.974   3.287  0.5141 -0.3366 -0.4581
 1728THY    HM143196   2.945   9.024   3.287 -0.6119  1.9746 -0.4758
 1728THY    HM243197   2.784   9.052   3.244 -1.7285 -1.3103  0.9333
 1728THY    HM343198   2.815   8.973   3.392  0.4876  3.5778 -0.2905
 1728THY    CA643199   2.904   8.739   3.291  0.1236 -0.6011  0.0794
 1728THY    HA643200   2.973   8.772   3.368 -0.2229  1.2460 -0.3488
 1729THY      O43201   8.241   0.666   5.852  0.9175 -0.2606  0.2843
 1729THY     HO43202   8.301   0.668   5.775  0.9679 -1.3359  0.2861
 1729THY    CA143203   8.154   0.565   5.823  0.7896  0.0057 -0.2659
 1729THY    CA243204   8.048   0.528   5.910  0.7303  0.1335 -0.2056
 1729THY    CP143205   8.037   0.600   6.048  0.4698  0.1273  0.4460
 1729THY    HP143206   8.125   0.663   6.066  0.8983 -0.2311 -0.3495
 1729THY    CP243207   7.918   0.699   6.038  0.3474 -0.3001  0.0315
 1729THY    HP243208   7.836   0.651   5.984 -0.7989 -0.6908  2.0251
 1729THY    HP343209   7.870   0.724   6.133 -0.6667 -0.0763 -0.5325
 1729THY    HP443210   7.950   0.788   5.982  1.2381 -0.6074  0.0327
 1729THY    CP343211   8.025   0.497   6.161  0.6045 -0.8942  0.2624
 1729THY    HP543212   7.944   0.427   6.138  0.4860 -0.2865 -1.2934
 1729THY    HP643213   8.111   0.430   6.150 -0.3962 -2.1940 -0.0443
 1729THY    HP743214   8.029   0.539   6.262  3.3101 -1.1326  0.3226
 1729THY    CA343215   7.952   0.432   5.873 -0.1529 -0.5286 -0.1813
 1729THY    HA343216   7.873   0.410   5.945 -0.2367  1.0361  0.2362
 1729THY    CA443217   7.979   0.353   5.768 -0.4221  0.6436  0.0748
 1729THY    HA443218   7.918   0.263   5.755  2.4520 -1.4755  0.2317
 1729THY    CA543219   8.078   0.387   5.678  0.3804  0.1352  0.1582
 1729THY    CM143220   8.084   0.309   5.554 -0.1991 -0.4483 -0.7388
 1729THY    HM143221   8.191   0.314   5.531 -0.2167 -0.7092 -0.8799
 1729THY    HM243222   8.059   0.206   5.584 -1.0813 -0.3966 -1.2519
 1729THY    HM343223   8.018   0.362   5.485  1.7702  3.3428  0.0415
 1729THY    CA643224   8.169   0.493   5.706  0.7378 -0.4191  0.4803
 1729THY    HA643225   8.248   0.521   5.636  0.8305  0.2868  0.8639
 1730THY      O43226   0.120   2.616   2.291  0.1158  0.0883  0.5812
 1730THY     HO43227   0.054   2.610   2.221  1.9810 -0.8054 -1.2079
 1730THY    CA143228   0.086   2.508   2.364 -0.5970 -0.2279  0.5021
 1730THY    CA243229   0.080   2.516   2.504  0.3077  0.4163 -0.3735
 1730THY    CP143230   0.128   2.646   2.574 -0.3953  0.3143  0.1397
 1730THY    HP143231   0.104   2.740   2.524  1.6167  0.2522 -1.0459
 1730THY    CP243232   0.064   2.654   2.707  0.1837  0.1793  0.3425
 1730THY    HP243233   0.107   2.584   2.779 -1.0516  0.0148  0.9472
 1730THY    HP343234   0.075   2.759   2.739  1.1569  0.2832 -0.2924
 1730THY    HP443235  -0.043   2.633   2.701  0.4178 -0.7387 -1.0203
 1730THY    CP343236   0.277   2.656   2.589  0.3088  0.4476  0.1610
 1730THY    HP543237   0.310   2.756   2.619  0.9243  0.1549  0.4853
 1730THY    HP643238   0.316   2.581   2.659  1.6541  1.6022  0.6867
 1730THY    HP743239   0.314   2.641   2.487 -0.0626 -2.8550  0.3966
 1730THY    CA343240   0.030   2.401   2.571 -0.6592 -0.0283 -0.0167
 1730THY    HA343241   0.024   2.399   2.680 -0.7275 -2.2729 -0.0180
 1730THY    CA443242   0.006   2.283   2.502  0.2739 -0.1966  0.0398
 1730THY    HA443243  -0.029   2.193   2.553 -0.4616 -0.1116 -0.3063
 1730THY    CA543244   0.025   2.277   2.364  0.1395  0.4491 -0.2103
 1730THY    CM143245  -0.002   2.155   2.278 -0.1337  0.5826  0.1491
 1730THY    HM143246   0.037   2.067   2.331  0.0168  2.1203  2.7750
 1730THY    HM243247  -0.110   2.153   2.264 -0.2308 -1.2892  0.7540
 1730THY    HM343248   0.058   2.162   2.187  0.6659 -0.0025  0.6124
 1730THY    CA643249   0.057   2.393   2.296 -0.3975  0.2944  0.0047
 1730THY    HA643250   0.064   2.396   2.187  0.4313 -1.1063 -0.0155
 1731THY      O43251   6.180   0.297   6.339  0.4347 -0.5585  0.5862
 1731THY     HO43252   6.138   0.355   6.273  1.4586 -1.3224 -0.7990
 1731THY    CA143253   6.144   0.332   6.459 -0.3648  0.6583 -0.5028
 1731THY    CA243254   6.175   0.248   6.568  0.3787  0.1987  0.1828
 1731THY    CP143255   6.231   0.107   6.539  0.0984 -0.2227  0.7686
 1731THY    HP143256   6.303   0.108   6.456 -0.7691 -1.9489 -0.0651
 1731THY    CP243257   6.304   0.058   6.667  0.9502 -0.0754  0.6559
 1731THY    HP243258   6.357  -0.035   6.644 -1.7171 -1.4899 -0.2343
 1731THY    HP343259   6.358   0.141   6.713 -0.5609 -0.1862  2.7696
 1731THY    HP443260   6.231   0.031   6.745 -0.1298 -2.8078 -1.1588
 1731THY    CP343261   6.116   0.009   6.500 -0.7452 -0.5077 -0.5455
 1731THY    HP543262   6.062  -0.015   6.592 -0.8969  2.2407  0.1684
 1731THY    HP643263   6.053   0.050   6.421 -0.8299  1.5219  0.5031
 1731THY    HP743264   6.158  -0.084   6.458  2.0903  0.8115 -0.9075
 1731THY    CA343265   6.137   0.296   6.696 -0.0000 -0.2741  0.2676
 1731THY    HA343266   6.165   0.239   6.784  0.4866 -1.4923 -0.6312
 1731THY    CA443267   6.067   0.422   6.716 -0.3954 -0.6030  0.4776
 1731THY    HA443268   6.052   0.477   6.809  0.8152  1.3956 -0.4435
 1731THY    CA543269   6.031   0.492   6.601 -0.0824 -0.2818 -0.2247
 1731THY    CM143270   5.952   0.615   6.608  0.1178 -0.0035  0.0585
 1731THY    HM143271   5.853   0.572   6.590  0.9237 -3.2834  2.6623
 1731THY    HM243272   5.946   0.674   6.701  1.4844 -1.0389  0.8342
 1731THY    HM343273   5.983   0.679   6.524 -0.2620 -3.4810 -2.9912
 1731THY    CA643274   6.072   0.449   6.471 -0.7687 -0.6521 -0.0900
 1731THY    HA643275   6.041   0.506   6.384 -1.3316 -0.5471  0.1719
 1732THY      O43276   1.170   0.996   8.409  0.7043  0.6539  0.3374
 1732THY     HO43277   1.125   1.073   8.370 -0.5933 -1.3109 -2.4204
 1732THY    CA143278   1.261   1.043   8.500  0.2505  0.0771  0.8596
 1732THY    CA243279   1.327   0.961   8.591 -0.1970  0.3034  0.2172
 1732THY    CP143280   1.290   0.816   8.596 -0.0157 -0.5067 -0.2029
 1732THY    HP143281   1.215   0.799   8.517 -0.9013  1.4374  0.1531
 1732THY    CP243282   1.413   0.732   8.572  0.1769  0.2002 -0.6954
 1732THY    HP243283   1.386   0.627   8.587 -0.5042  0.4196 -0.3515
 1732THY    HP343284   1.438   0.754   8.467  0.3381 -0.5497 -0.8197
 1732THY    HP443285   1.484   0.769   8.646 -1.3188 -3.5214  2.9382
 1732THY    CP343286   1.241   0.778   8.732 -0.5315  0.5738  0.0246
 1732THY    HP543287   1.154   0.838   8.761  1.3196  2.2460  2.5078
 1732THY    HP643288   1.225   0.670   8.738  0.5503  0.3026 -1.4727
 1732THY    HP743289   1.320   0.791   8.807  1.0899 -0.1837 -1.4867
 1732THY    CA343290   1.413   1.019   8.687  0.4266 -0.1052  0.1321
 1732THY    HA343291   1.471   0.969   8.765  1.7979  1.3790  0.1203
 1732THY    CA443292   1.433   1.159   8.677  0.6966 -0.3711  0.3840
 1732THY    HA443293   1.496   1.209   8.750  1.6758  0.6961 -1.1249
 1732THY    CA543294   1.368   1.240   8.595  0.1511 -0.1271  0.1576
 1732THY    CM143295   1.389   1.392   8.597  0.2253  0.2253  0.3316
 1732THY    HM143296   1.383   1.432   8.699  1.1452 -0.6660  0.7513
 1732THY    HM243297   1.488   1.423   8.561  0.3301  0.8583  1.1308
 1732THY    HM343298   1.319   1.445   8.531  2.0580  0.4821 -1.5109
 1732THY    CA643299   1.284   1.185   8.503 -0.2593  0.2690  0.5624
 1732THY    HA643300   1.229   1.249   8.435 -1.1250 -1.2758 -0.2653
 1733THY      O43301   2.996   9.120   2.565 -0.0082 -0.3988 -0.2700
 1733THY     HO43302   2.981   9.166   2.481 -0.0306  1.4333  0.6691
 1733THY    CA143303   3.112   9.184   2.611  0.9289 -0.2671 -0.6892
 1733THY    CA243304   3.182   9.133   2.727  0.5869 -1.0595  0.7831
 1733THY    CP143305   3.134   9.016   2.815 -0.3394 -0.1868 -0.1069
 1733THY    HP143306   3.027   9.008   2.796 -0.4355  0.5588  0.1170
 1733THY    CP243307   3.211   8.891   2.788 -0.3460  0.2141  0.0929
 1733THY    HP243308   3.201   8.819   2.870 -0.8701 -1.2620 -1.2310
 1733THY    HP343309   3.166   8.844   2.700  0.2858  2.6431 -1.6343
 1733THY    HP443310   3.316   8.904   2.759 -0.5473 -2.1061 -1.8941
 1733THY    CP343311   3.148   9.065   2.965 -0.2038 -0.6883  0.4368
 1733THY    HP543312   3.106   8.994   3.037  2.0181 -1.2068  1.2835
 1733THY    HP643313   3.251   9.088   2.994  0.3879  0.6801 -2.3350
 1733THY    HP743314   3.095   9.160   2.981  0.2854 -0.1400 -1.0258
 1733THY    CA343315   3.319   9.183   2.745 -0.2525 -0.2224  0.1280
 1733THY    HA343316   3.385   9.132   2.814  0.2575 -0.4546 -0.5223
 1733THY    CA443317   3.369   9.286   2.659  0.1212 -0.2951  0.4196
 1733THY    HA443318   3.475   9.310   2.668  0.1483 -1.0348  2.6049
 1733THY    CA543319   3.290   9.340   2.559 -0.0401  0.2168  0.4513
 1733THY    CM143320   3.347   9.445   2.468  0.9626  0.0067  0.5887
 1733THY    HM143321   3.448   9.477   2.493  1.1802  0.9720 -1.3322
 1733THY    HM243322   3.352   9.413   2.364  3.1051  0.4023  0.5226
 1733THY    HM343323   3.274   9.527   2.475 -2.2111 -2.6084  0.6671
 1733THY    CA643324   3.162   9.291   2.535 -0.0190  0.1091  0.3254
 1733THY    HA643325   3.105   9.326   2.449 -1.0307  0.4504  1.1230
 1734THY      O43326   8.188   7.237   9.001 -0.1418  0.1840  0.1359
 1734THY     HO43327   8.176   7.157   8.946  0.6555 -1.1853  1.8569
 1734THY    CA143328   8.119   7.221   9.114  0.6004 -0.8563 -0.1020
 1734THY    CA243329   8.136   7.314   9.223 -0.7225  0.2395  0.2621
 1734THY    CP143330   8.243   7.416   9.219  0.3232 -0.9492  0.8392
 1734THY    HP143331   8.330   7.361   9.181 -0.2225 -0.8383 -0.6272
 1734THY    CP243332   8.218   7.535   9.129  0.5062  0.4226 -0.3658
 1734THY    HP243333   8.227   7.500   9.026  1.6821 -1.4490  0.3263
 1734THY    HP343334   8.115   7.567   9.151  0.3726 -0.9577  1.1450
 1734THY    HP443335   8.288   7.618   9.146 -0.9411  1.4356  0.8963
 1734THY    CP343336   8.284   7.473   9.359 -0.7373 -0.0200  0.7588
 1734THY    HP543337   8.217   7.555   9.386 -2.3378 -0.4548 -1.5746
 1734THY    HP643338   8.273   7.390   9.430  1.5633  0.0315  1.2326
 1734THY    HP743339   8.385   7.515   9.360 -0.9336  0.5872 -0.9510
 1734THY    CA343340   8.053   7.294   9.331 -0.5829 -0.4435 -0.6129
 1734THY    HA343341   8.058   7.349   9.424 -0.8320 -1.4040 -0.0266
 1734THY    CA443342   7.956   7.193   9.334  0.9093 -0.2088 -0.1305
 1734THY    HA443343   7.886   7.187   9.417 -0.7446  0.5061 -1.4047
 1734THY    CA543344   7.946   7.106   9.227  0.1647 -0.3708  0.3381
 1734THY    CM143345   7.851   6.988   9.229  0.0346  0.8186  0.2405
 1734THY    HM143346   7.809   6.957   9.133 -1.2628 -1.2479  1.4078
 1734THY    HM243347   7.898   6.893   9.257  0.2436 -0.2357 -3.2542
 1734THY    HM343348   7.766   7.009   9.296 -0.3580 -0.1871  0.0725
 1734THY    CA643349   8.023   7.121   9.117  0.8745 -1.0866 -0.3899
 1734THY    HA643350   8.026   7.053   9.032  2.0835 -1.8011  0.1957
 1735THY      O43351   3.581   2.504   8.208  0.0389  0.9071  0.1661
 1735THY     HO43352   3.675   2.489   8.225  0.6453  0.5918 -2.8358
 1735THY    CA143353   3.553   2.447   8.090 -0.5960  0.3620 -0.2350
 1735THY    CA243354   3.426   2.443   8.039 -0.5440 -0.9112  0.2357
 1735THY    CP143355   3.311   2.501   8.114 -0.2289 -0.7041 -0.3744
 1735THY    HP143356   3.340   2.538   8.213  0.1361 -0.9692 -0.3805
 1735THY    CP243357   3.253   2.630   8.043  0.4262 -0.5321  0.3660
 1735THY    HP243358   3.334   2.703   8.028 -0.7838  0.7624 -0.0636
 1735THY    HP343359   3.207   2.606   7.947 -0.5036 -1.0277  0.9214
 1735THY    HP443360   3.169   2.678   8.096  0.2969  0.7764 -0.9729
 1735THY    CP343361   3.193   2.406   8.132  0.3096  0.2032 -0.4537
 1735THY    HP543362   3.113   2.429   8.062  0.0015  1.7002  0.3404
 1735THY    HP643363   3.239   2.307   8.132 -1.6931 -0.8030  0.9601
 1735THY    HP743364   3.157   2.418   8.235  2.4433  1.5643  0.2234
 1735THY    CA343365   3.392   2.370   7.927  0.2797 -0.9050 -0.3713
 1735THY    HA343366   3.290   2.359   7.891 -0.2515 -1.5772  1.2553
 1735THY    CA443367   3.502   2.327   7.852  0.7575  0.3987 -0.6082
 1735THY    HA443368   3.480   2.274   7.759 -1.1970 -0.9712  0.5633
 1735THY    CA543369   3.631   2.341   7.891  0.0075  0.0205 -0.0730
 1735THY    CM143370   3.744   2.274   7.814  0.4411 -0.1118  0.1808
 1735THY    HM143371   3.848   2.307   7.823  0.5302  0.5501 -2.4126
 1735THY    HM243372   3.733   2.166   7.831  1.2858 -0.2380 -0.0143
 1735THY    HM343373   3.728   2.285   7.706  2.4494 -1.6341 -0.3449
 1735THY    CA643374   3.657   2.394   8.019 -0.2081  0.6639  0.2135
 1735THY    HA643375   3.760   2.393   8.051 -0.1237  0.0358 -0.0616
 1736THY      O43376   8.367   0.830   6.252 -0.0762 -0.7336  0.2339
 1736THY     HO43377   8.351   0.852   6.159  0.9520 -0.9171  0.0046
 1736THY    CA143378   8.250   0.822   6.319  0.1161  0.1007  0.1744
 1736THY    CA243379   8.243   0.737   6.434 -0.4797  0.8513  0.4429
 1736THY    CP143380   8.366   0.650   6.482 -0.5764  0.0511  0.4113
 1736THY    HP143381   8.430   0.637   6.394  0.3196  0.0465  1.0589
 1736THY    CP243382   8.449   0.729   6.583  0.0682  0.0423 -0.1257
 1736THY    HP243383   8.392   0.749   6.674 -0.5374 -0.1627 -0.4626
 1736THY    HP343384   8.539   0.667   6.593  0.2805 -0.2583 -3.0114
 1736THY    HP443385   8.487   0.822   6.538 -1.0244 -1.1535 -3.8498
 1736THY    CP343386   8.335   0.512   6.541 -0.0594 -0.8067 -0.0063
 1736THY    HP543387   8.278   0.514   6.635 -0.7577  1.1531 -0.4040
 1736THY    HP643388   8.283   0.451   6.466 -0.4735 -0.3758 -0.0797
 1736THY    HP743389   8.430   0.460   6.560 -1.6127 -3.9070 -0.0900
 1736THY    CA343390   8.124   0.731   6.510 -0.0113  0.3224  0.6738
 1736THY    HA343391   8.106   0.673   6.600  1.0660 -0.8922  0.1295
 1736THY    CA443392   8.013   0.804   6.459  0.8873 -0.5433  0.0679
 1736THY    HA443393   7.920   0.798   6.514  1.1171 -1.9978  0.3322
 1736THY    CA543394   8.021   0.888   6.350 -0.2676 -0.3903 -0.3284
 1736THY    CM143395   7.914   0.973   6.309 -0.5684  0.0837  0.2378
 1736THY    HM143396   7.851   0.924   6.234  0.2757  0.2240 -0.5763
 1736THY    HM243397   7.843   1.006   6.386  0.4923  1.0025  0.8596
 1736THY    HM343398   7.948   1.061   6.253  0.1125 -1.2412 -1.5224
 1736THY    CA643399   8.143   0.900   6.282 -0.3270 -0.2602 -0.3815
 1736THY    HA643400   8.147   0.963   6.194 -0.9529  1.7225  0.9404
 1737THY      O43401   4.026   1.056   5.583 -0.3128 -0.0488  0.1398
 1737THY     HO43402   4.015   1.067   5.488 -0.5815  1.2805  0.3083
 1737THY    CA143403   3.902   1.031   5.635  0.9826  0.4251 -0.6012
 1737THY    CA243404   3.882   0.962   5.757 -0.1447  0.4192  0.5198
 1737THY    CP143405   3.997   0.897   5.830 -0.4356 -0.2466  0.5012
 1737THY    HP143406   4.094   0.941   5.805 -2.0365  2.3016 -1.7933
 1737THY    CP243407   3.994   0.911   5.977  0.6107 -0.3715 -0.3279
 1737THY    HP243408   4.088   0.889   6.028  0.6670 -0.6544 -0.5513
 1737THY    HP343409   3.964   1.008   6.019  1.1875 -0.9205  1.4383
 1737THY    HP443410   3.919   0.844   6.020  1.1605 -0.3641  0.6647
 1737THY    CP343411   4.013   0.747   5.790  0.4444  0.6203 -0.2809
 1737THY    HP543412   4.035   0.739   5.683 -0.6070  0.6688 -0.5131
 1737THY    HP643413   4.082   0.692   5.855 -0.4555 -0.0770  0.1091
 1737THY    HP743414   3.925   0.687   5.816  1.9618 -0.4436  2.9692
 1737THY    CA343415   3.755   0.937   5.799  0.7419 -0.5827 -0.5201
 1737THY    HA343416   3.735   0.872   5.883  2.1090 -1.5618 -0.9264
 1737THY    CA443417   3.656   1.019   5.748  0.3552  0.6760 -0.5483
 1737THY    HA443418   3.556   1.003   5.786  0.3134  0.3435 -0.7901
 1737THY    CA543419   3.672   1.103   5.640  0.1410 -1.3907 -0.0331
 1737THY    CM143420   3.562   1.201   5.589 -0.3478 -0.3399 -0.0747
 1737THY    HM143421   3.491   1.129   5.547  2.7273 -2.4395 -2.1862
 1737THY    HM243422   3.526   1.256   5.677 -1.1691  0.8703 -1.1250
 1737THY    HM343423   3.617   1.263   5.516  0.9912 -3.2181 -1.6968
 1737THY    CA643424   3.796   1.110   5.583  0.1492  0.3548  0.3509
 1737THY    HA643425   3.826   1.167   5.496  1.5325 -1.9147 -0.7602
 1738THY      O43426   6.819   3.610   8.979  0.1724 -0.2052  0.0214
 1738THY     HO43427   6.822   3.691   9.032 -0.3111 -2.3693  3.6600
 1738THY    CA143428   6.952   3.581   8.963 -0.4044 -0.2523  0.4906
 1738THY    CA243429   6.997   3.455   8.924  0.3279 -0.3385  0.0361
 1738THY    CP143430   6.888   3.340   8.916  0.2618  0.4252  0.0969
 1738THY    HP143431   6.787   3.369   8.948 -0.4123 -1.5571 -0.1162
 1738THY    CP243432   6.873   3.287   8.764 -0.0868 -0.2886 -0.4902
 1738THY    HP243433   6.825   3.371   8.712  0.6923  1.6741  1.7589
 1738THY    HP343434   6.970   3.251   8.729  0.1305  0.1543 -0.3612
 1738THY    HP443435   6.811   3.198   8.750 -0.1076 -0.1206 -1.5187
 1738THY    CP343436   6.927   3.217   9.001  0.2089 -0.0083 -0.1130
 1738THY    HP543437   7.027   3.180   8.974 -0.3265 -1.6613  0.0189
 1738THY    HP643438   6.917   3.251   9.105  0.6267 -0.7003  0.1609
 1738THY    HP743439   6.856   3.136   8.982 -0.5922 -0.1373  2.8865
 1738THY    CA343440   7.139   3.437   8.912  0.0808  0.3061  0.5463
 1738THY    HA343441   7.176   3.337   8.894 -0.4406  0.0777  0.7173
 1738THY    CA443442   7.227   3.544   8.918  0.5404  0.0540 -0.0902
 1738THY    HA443443   7.331   3.534   8.888 -0.3875 -2.1049 -3.0974
 1738THY    CA543444   7.174   3.674   8.953 -0.3794  0.7077 -0.8379
 1738THY    CM143445   7.264   3.798   8.935 -0.3808  0.0323 -0.1143
 1738THY    HM143446   7.350   3.790   9.002  0.1103  2.0206 -0.4520
 1738THY    HM243447   7.307   3.805   8.835 -1.1036  1.4709 -0.3465
 1738THY    HM343448   7.207   3.885   8.970  0.2669  0.3054  0.2802
 1738THY    CA643449   7.041   3.688   8.982  0.2792  0.0544  0.0624
 1738THY    HA643450   7.010   3.789   9.008 -0.3902 -0.4194  1.1418
 1739THY      O43451   2.161   4.186   9.497  0.2968 -0.2759 -0.0823
 1739THY     HO43452   2.093   4.254   9.511  1.6858  1.3248 -0.7545
 1739THY    CA143453   2.257   4.252   9.439  0.2890 -0.0314 -0.4635
 1739THY    CA243454   2.371   4.190   9.388 -0.6013  0.6510 -0.0841
 1739THY    CP143455   2.380   4.038   9.410  0.2521 -0.2943 -0.1206
 1739THY    HP143456   2.336   4.003   9.504  0.1550 -0.1196 -0.1011
 1739THY    CP243457   2.306   3.974   9.300 -0.6370 -0.2404  0.0996
 1739THY    HP243458   2.316   3.867   9.321 -1.3392 -0.4387 -0.5576
 1739THY    HP343459   2.199   3.999   9.303 -0.2159  1.7075  0.0685
 1739THY    HP443460   2.348   3.992   9.200 -1.4122 -1.2698 -0.4302
 1739THY    CP343461   2.529   3.997   9.416 -1.1288  1.2275  0.2969
 1739THY    HP543462   2.526   3.889   9.435  0.3948  1.3473  1.3346
 1739THY    HP643463   2.589   4.007   9.325  1.2337  0.2433  1.6396
 1739THY    HP743464   2.597   4.034   9.494 -1.2182 -0.2195  1.1033
 1739THY    CA343465   2.476   4.268   9.324 -0.0335  0.2909  0.3986
 1739THY    HA343466   2.560   4.220   9.274  0.9637  3.2206 -0.9153
 1739THY    CA443467   2.453   4.407   9.315 -1.5977  0.0596  0.2612
 1739THY    HA443468   2.513   4.475   9.255 -0.8076 -1.0648 -0.2560
 1739THY    CA543469   2.346   4.468   9.379  0.4739 -0.5852  0.2305
 1739THY    CM143470   2.336   4.617   9.385 -0.2436  0.0688 -0.1605
 1739THY    HM143471   2.245   4.646   9.331 -0.3010  1.6872  0.7220
 1739THY    HM243472   2.321   4.650   9.489  0.2761  1.3223 -0.4699
 1739THY    HM343473   2.417   4.664   9.328 -0.9424 -0.0814 -1.2985
 1739THY    CA643474   2.244   4.388   9.439 -0.3469  0.3114  0.0862
 1739THY    HA643475   2.160   4.434   9.490 -0.1123 -1.9357  2.7396
 1740THY      O43476   8.401   4.905   5.981  0.1066  0.3479 -0.0625
 1740THY     HO43477   8.393   4.967   5.906 -0.2133 -1.0507 -1.2152
 1740THY    CA143478   8.390   4.786   5.917  0.4898  0.5815 -0.0499
 1740THY    CA243479   8.329   4.670   5.980 -0.5438 -0.9006  0.5700
 1740THY    CP143480   8.289   4.673   6.129 -0.2614  0.1172 -0.5421
 1740THY    HP143481   8.301   4.772   6.176 -0.2525  0.0094 -0.3152
 1740THY    CP243482   8.139   4.641   6.152  0.6013  0.3255 -0.1793
 1740THY    HP243483   8.095   4.724   6.096 -0.1784 -0.3235 -0.5365
 1740THY    HP343484   8.128   4.546   6.099 -1.3246 -0.2586  1.1701
 1740THY    HP443485   8.109   4.623   6.256  1.4385 -5.3041 -0.5967
 1740THY    CP343486   8.388   4.589   6.212  0.6667  0.6109  0.2366
 1740THY    HP543487   8.477   4.650   6.230 -0.2557  1.0936  4.0342
 1740THY    HP643488   8.338   4.559   6.304 -0.7483  0.3564 -0.5891
 1740THY    HP743489   8.414   4.503   6.149 -2.5661  0.7284 -1.4667
 1740THY    CA343490   8.310   4.559   5.900 -0.2117 -0.1206  0.1548
 1740THY    HA343491   8.257   4.469   5.932  0.2775 -0.5547 -0.2372
 1740THY    CA443492   8.349   4.559   5.769 -0.5222 -0.1386  1.3637
 1740THY    HA443493   8.326   4.477   5.701  0.9305 -1.7367  2.6952
 1740THY    CA543494   8.409   4.667   5.707  0.1535  0.1762 -1.0675
 1740THY    CM143495   8.422   4.672   5.560  0.4699  0.3788 -0.3307
 1740THY    HM143496   8.429   4.568   5.526 -0.8358  0.3105 -0.4542
 1740THY    HM243497   8.328   4.707   5.516 -0.2156 -2.2462 -1.1501
 1740THY    HM343498   8.508   4.734   5.532  0.1667  0.8851 -0.1587
 1740THY    CA643499   8.424   4.780   5.784  0.0405 -0.1641 -0.3349
 1740THY    HA643500   8.461   4.867   5.732 -1.3846  1.4769  1.2523
 1741THY      O43501   6.494   3.712   9.215 -0.6750  0.2247 -0.0049
 1741THY     HO43502   6.475   3.682   9.125  0.6750 -0.4797 -0.0750
 1741THY    CA143503   6.397   3.799   9.256  0.7466  0.0631 -0.5033
 1741THY    CA243504   6.261   3.787   9.213 -0.7617 -0.4465 -0.3975
 1741THY    CP143505   6.214   3.680   9.119  0.1890  0.0417  0.0298
 1741THY    HP143506   6.298   3.611   9.100  1.3568  1.1248  1.0857
 1741THY    CP243507   6.111   3.595   9.191  0.1940  0.5797 -0.0508
 1741THY    HP243508   6.121   3.491   9.159 -1.4941  0.0727  0.9337
 1741THY    HP343509   6.138   3.583   9.297 -1.7523 -0.5389  0.3555
 1741THY    HP443510   6.010   3.634   9.175  0.2144  0.0231 -1.6898
 1741THY    CP343511   6.180   3.726   8.979  0.3721 -0.5953  0.4043
 1741THY    HP543512   6.261   3.784   8.933  1.7176 -2.0025  0.8931
 1741THY    HP643513   6.166   3.644   8.908  0.1077  1.0351 -1.5350
 1741THY    HP743514   6.089   3.787   8.980  0.9454  0.2817  2.4413
 1741THY    CA343515   6.179   3.886   9.270  0.0285  0.9972  0.5948
 1741THY    HA343516   6.076   3.889   9.234  0.2921  0.1971 -0.2563
 1741THY    CA443517   6.222   3.985   9.357 -0.8504 -0.3779 -0.1611
 1741THY    HA443518   6.156   4.061   9.397 -0.1685 -0.0683  0.3905
 1741THY    CA543519   6.354   3.998   9.386 -0.5185 -0.2283  0.4526
 1741THY    CM143520   6.412   4.119   9.457  0.0913  0.1064  0.3981
 1741THY    HM143521   6.519   4.115   9.478  1.1583 -0.7790 -4.1222
 1741THY    HM243522   6.404   4.215   9.404 -0.6874 -0.2187 -0.1030
 1741THY    HM343523   6.361   4.113   9.553 -1.7941 -0.1393 -0.5647
 1741THY    CA643524   6.444   3.897   9.346  0.5844 -0.9837  0.6523
 1741THY    HA643525   6.551   3.905   9.361  0.5531  1.0815  0.1001
 1742THY      O43526   8.332   8.031   5.631 -0.4201  0.5143 -0.2548
 1742THY     HO43527   8.410   8.089   5.621  1.4146 -1.6201  0.9694
 1742THY    CA143528   8.309   8.024   5.763  0.2595  0.2780  0.0913
 1742THY    CA243529   8.215   7.933   5.821  0.4803  0.3963 -0.6639
 1742THY    CP143530   8.134   7.830   5.741 -0.2282 -0.1708  0.2747
 1742THY    HP143531   8.156   7.821   5.633 -1.3025 -0.8468  0.0877
 1742THY    CP243532   8.146   7.692   5.801 -0.1718  0.5730 -0.8605
 1742THY    HP243533   8.246   7.688   5.847 -0.9986 -0.0422  0.9813
 1742THY    HP343534   8.071   7.666   5.877 -1.2605 -0.1795 -2.1526
 1742THY    HP443535   8.147   7.622   5.716  0.0742  0.1863 -0.5456
 1742THY    CP343536   7.994   7.887   5.719  0.2150  0.3995  0.4030
 1742THY    HP543537   8.005   7.969   5.646  0.6167 -0.0754 -0.0747
 1742THY    HP643538   7.932   7.818   5.661  0.0981  1.0641 -0.2963
 1742THY    HP743539   7.945   7.932   5.806 -0.7096  0.2801 -0.0510
 1742THY    CA343540   8.181   7.944   5.955  0.6185 -0.0766 -0.2532
 1742THY    HA343541   8.103   7.883   5.999  1.3002 -0.3017  0.6651
 1742THY    CA443542   8.245   8.038   6.037 -1.1028 -0.5282 -0.1125
 1742THY    HA443543   8.224   8.038   6.144  0.7278 -0.4446  0.2809
 1742THY    CA543544   8.338   8.129   5.975 -0.2479 -0.2467 -0.4486
 1742THY    CM143545   8.417   8.224   6.063  0.3224 -0.3966 -0.1646
 1742THY    HM143546   8.520   8.228   6.026 -0.2422 -1.2243 -1.9112
 1742THY    HM243547   8.364   8.320   6.066  2.0891  0.6331 -0.4042
 1742THY    HM343548   8.425   8.189   6.167 -0.8676 -0.4298 -0.0801
 1742THY    CA643549   8.381   8.117   5.840  0.1464 -0.2883  0.2998
 1742THY    HA643550   8.441   8.196   5.796 -3.5812  1.6062 -1.9071
 1743THY      O43551   1.171   5.884   8.310  0.4435  0.4148  0.0333
 1743THY     HO43552   1.120   5.964   8.330 -0.9888 -0.7573  1.3108
 1743THY    CA143553   1.270   5.924   8.228 -0.9310 -0.2355 -0.0725
 1743THY    CA243554   1.369   5.833   8.178  1.3956 -0.7300 -0.1272
 1743THY    CP143555   1.375   5.698   8.234  0.3060  0.3265  0.1310
 1743THY    HP143556   1.279   5.674   8.281  0.1226  0.0491 -0.3668
 1743THY    CP243557   1.376   5.605   8.112 -0.5082 -0.4771  0.4067
 1743THY    HP243558   1.345   5.505   8.146  0.4556 -0.8760  0.1574
 1743THY    HP343559   1.296   5.636   8.044  0.3242  2.3498  0.6057
 1743THY    HP443560   1.475   5.604   8.065 -1.1232  0.0107 -0.9397
 1743THY    CP343561   1.494   5.670   8.316  0.6465  0.3368  0.5418
 1743THY    HP543562   1.591   5.683   8.266  1.5087  0.6963  2.2081
 1743THY    HP643563   1.492   5.717   8.415  3.2256 -0.4290  1.0535
 1743THY    HP743564   1.493   5.565   8.345  2.8702  0.6193  1.9564
 1743THY    CA343565   1.455   5.883   8.076 -0.6251 -0.1386 -0.3105
 1743THY    HA343566   1.538   5.818   8.050  1.0101  2.1377 -1.1130
 1743THY    CA443567   1.459   6.021   8.044  0.0429  0.2112 -0.0779
 1743THY    HA443568   1.529   6.056   7.969  1.2247 -2.0673 -0.1294
 1743THY    CA543569   1.362   6.105   8.100  0.0752 -0.0584 -0.9593
 1743THY    CM143570   1.377   6.251   8.073  0.4895  0.3991 -0.4663
 1743THY    HM143571   1.441   6.260   7.985  0.2276 -3.7520 -1.2659
 1743THY    HM243572   1.287   6.302   8.038  0.4331  0.2528 -0.5377
 1743THY    HM343573   1.422   6.306   8.156  1.7045 -0.0300 -0.8162
 1743THY    CA643574   1.266   6.055   8.193 -0.2983 -0.1509  0.5339
 1743THY    HA643575   1.197   6.127   8.236  0.1556  0.8135 -0.3145
 1744THY      O43576   7.839   1.556   8.886  0.2047 -0.0627  0.1635
 1744THY     HO43577   7.864   1.648   8.866 -1.6306  0.3428 -0.5407
 1744THY    CA143578   7.905   1.523   8.995  0.3741  0.6365 -0.1661
 1744THY    CA243579   7.855   1.420   9.080  0.2100  0.0457  0.5652
 1744THY    CP143580   7.719   1.357   9.059  0.6057 -0.1624 -0.4407
 1744THY    HP143581   7.665   1.417   8.985 -0.5859 -0.4527  0.1523
 1744THY    CP243582   7.723   1.213   9.004  0.0325  0.2940 -0.2566
 1744THY    HP243583   7.793   1.207   8.920  0.2632 -0.6178 -0.0142
 1744THY    HP343584   7.771   1.144   9.074 -0.4713 -1.0881 -1.2203
 1744THY    HP443585   7.621   1.179   8.985 -0.2175  0.2815  1.0279
 1744THY    CP343586   7.638   1.374   9.191 -0.8183 -0.4072 -0.1353
 1744THY    HP543587   7.688   1.323   9.273 -0.5030  0.1236  0.0091
 1744THY    HP643588   7.617   1.477   9.224 -1.7759 -1.0566  1.3713
 1744THY    HP743589   7.534   1.340   9.182 -0.9959  0.4296 -1.7413
 1744THY    CA343590   7.935   1.377   9.192 -0.3657  0.3855 -0.1449
 1744THY    HA343591   7.908   1.302   9.266  0.8226 -0.3721 -0.4623
 1744THY    CA443592   8.056   1.446   9.221  0.1626 -0.2732  0.1056
 1744THY    HA443593   8.131   1.417   9.294 -0.6032  0.1322  1.0654
 1744THY    CA543594   8.094   1.543   9.135 -0.1781  0.0214  0.2300
 1744THY    CM143595   8.213   1.623   9.173 -0.2301 -0.0951  0.6894
 1744THY    HM143596   8.192   1.691   9.256  1.8516  1.0768  0.3347
 1744THY    HM243597   8.304   1.565   9.193  1.5385  2.0038 -0.7952
 1744THY    HM343598   8.240   1.688   9.088 -1.8500  0.5490  0.6396
 1744THY    CA643599   8.016   1.586   9.026 -0.8202  0.2335 -0.6961
 1744THY    HA643600   8.064   1.661   8.964  1.8065 -0.5066  0.3209
 1745THY      O43601   6.901   4.831   0.180 -0.1552 -0.4092  0.0017
 1745THY     HO43602   6.878   4.743   0.146  0.1534  0.8237 -3.8486
 1745THY    CA143603   6.846   4.834   0.304  0.0260 -0.2884 -0.3397
 1745THY    CA243604   6.879   4.929   0.401 -0.9122 -0.0938  0.4231
 1745THY    CP143605   6.994   5.026   0.369  0.9727 -0.7032  0.3762
 1745THY    HP143606   7.030   5.015   0.266 -0.0931 -1.9435  0.1057
 1745THY    CP243607   6.955   5.173   0.376  0.7897  0.6101 -0.3547
 1745THY    HP243608   7.040   5.230   0.335  3.0105 -1.1580  1.4948
 1745THY    HP343609   6.861   5.187   0.322  0.3072 -2.8926 -0.6409
 1745THY    HP443610   6.953   5.205   0.481  0.3444  0.3368 -0.2780
 1745THY    CP343611   7.115   5.007   0.463  0.2653  0.4576  0.0411
 1745THY    HP543612   7.138   4.900   0.468  0.3999  0.2392 -2.9623
 1745THY    HP643613   7.204   5.051   0.416 -1.1465  0.7692 -2.5527
 1745THY    HP743614   7.097   5.039   0.566 -0.6180  2.7822 -0.7619
 1745THY    CA343615   6.825   4.927   0.528  0.2562  0.0897 -0.3999
 1745THY    HA343616   6.868   4.991   0.606  0.4773  1.0733 -1.3000
 1745THY    CA443617   6.721   4.838   0.554  0.1593 -0.4596  0.3525
 1745THY    HA443618   6.680   4.835   0.654  0.2877 -3.6920  0.3853
 1745THY    CA543619   6.679   4.749   0.456 -0.3761  0.3812 -0.3773
 1745THY    CM143620   6.568   4.657   0.487 -0.4207 -0.2259 -0.2011
 1745THY    HM143621   6.494   4.668   0.407 -1.0469 -1.0442  0.2511
 1745THY    HM243622   6.581   4.550   0.469 -1.6072 -0.4979  0.4174
 1745THY    HM343623   6.533   4.661   0.591  0.2968 -0.1583  0.0426
 1745THY    CA643624   6.742   4.745   0.326 -0.5011  0.0448 -0.3357
 1745THY    HA643625   6.709   4.675   0.250 -0.1690  0.4469 -0.8550
 1746THY      O43626   4.552   4.115   1.012 -0.1968 -0.3338 -0.1359
 1746THY     HO43627   4.477   4.063   0.980 -0.3202 -0.2021 -0.0591
 1746THY    CA143628   4.572   4.222   0.937 -0.0017  0.0980 -0.4528
 1746THY    CA243629   4.680   4.306   0.962  0.8957 -0.2429  0.1356
 1746THY    CP143630   4.783   4.275   1.071 -0.5883  1.0105 -0.2234
 1746THY    HP143631   4.723   4.244   1.157 -0.2472  2.2576  0.5022
 1746THY    CP243632   4.865   4.153   1.031  0.3985  0.1182  0.0260
 1746THY    HP243633   4.904   4.096   1.116 -0.9251 -1.7347 -0.5504
 1746THY    HP343634   4.802   4.082   0.975 -0.2405 -0.2461  1.1760
 1746THY    HP443635   4.945   4.182   0.961 -0.5529 -0.7814 -1.4986
 1746THY    CP343636   4.885   4.391   1.116  0.1204  0.4980  0.3840
 1746THY    HP543637   4.824   4.481   1.128  1.5746  1.6181 -0.3019
 1746THY    HP643638   4.930   4.359   1.211  0.9241 -0.6816 -0.3607
 1746THY    HP743639   4.966   4.405   1.043  0.6198  1.6207  1.1235
 1746THY    CA343640   4.681   4.422   0.886  0.1393 -0.1871 -0.2393
 1746THY    HA343641   4.768   4.480   0.915 -0.7801 -0.2123  2.8522
 1746THY    CA443642   4.593   4.446   0.783 -0.6714  0.0884  0.8610
 1746THY    HA443643   4.594   4.536   0.721 -1.4698 -2.2521 -2.8857
 1746THY    CA543644   4.498   4.355   0.752  0.6997  0.2516 -0.3793
 1746THY    CM143645   4.404   4.368   0.634 -0.4910  0.0267 -0.3773
 1746THY    HM143646   4.318   4.420   0.677  0.5292  1.1630  0.3540
 1746THY    HM243647   4.452   4.419   0.550  1.4746 -1.0507  0.0240
 1746THY    HM343648   4.366   4.273   0.594 -4.4180  0.1005  2.5594
 1746THY    CA643649   4.480   4.243   0.831 -0.1172 -0.5370  0.1138
 1746THY    HA643650   4.397   4.179   0.803  0.8972 -0.7178 -2.7930
 1747THY      O43651   9.253   6.118   5.375 -0.6329  0.5856  0.7032
 1747THY     HO43652   9.347   6.098   5.393 -0.4310  0.7530 -0.1235
 1747THY    CA143653   9.261   6.100   5.241  0.1677  0.2276 -1.1166
 1747THY    CA243654   9.184   6.181   5.155 -0.3431  0.0770 -0.0089
 1747THY    CP143655   9.091   6.288   5.208 -0.6207  0.7246  0.3380
 1747THY    HP143656   9.124   6.323   5.306 -1.1484 -1.4768  1.3721
 1747THY    CP243657   9.077   6.415   5.126  0.2614  0.3514  0.0006
 1747THY    HP243658   9.170   6.471   5.111  1.5689 -1.3356  1.3649
 1747THY    HP343659   9.027   6.400   5.029  1.5685 -0.2188 -0.6159
 1747THY    HP443660   9.013   6.480   5.185 -0.4595 -0.0250 -0.3587
 1747THY    CP343661   8.958   6.227   5.235 -0.1523 -0.2831 -0.2012
 1747THY    HP543662   8.958   6.153   5.316 -1.2518  0.0965  0.1651
 1747THY    HP643663   8.883   6.303   5.260 -1.1673 -2.2416  3.3879
 1747THY    HP743664   8.913   6.184   5.145 -1.7303  1.3032 -0.2146
 1747THY    CA343665   9.193   6.153   5.014 -0.3991  0.8342 -0.0178
 1747THY    HA343666   9.138   6.203   4.935 -0.8283  1.3529  0.6084
 1747THY    CA443667   9.274   6.045   4.971  0.4232  0.1081  0.0105
 1747THY    HA443668   9.283   6.012   4.867  0.1201 -2.6077  0.7522
 1747THY    CA543669   9.344   5.962   5.058  0.3496  0.3386 -0.4890
 1747THY    CM143670   9.402   5.829   5.016 -0.5066 -0.0688 -0.1147
 1747THY    HM143671   9.352   5.744   5.063  0.8208  0.3093  2.1408
 1747THY    HM243672   9.408   5.809   4.908 -0.7875  0.4818 -0.2398
 1747THY    HM343673   9.501   5.807   5.058  0.2924 -2.7264 -3.0207
 1747THY    CA643674   9.343   5.994   5.195  0.3607  0.6542  0.5523
 1747THY    HA643675   9.398   5.940   5.272 -0.3738 -1.2054 -0.1732
 1748THY      O43676   6.713   6.423   5.513  0.1621  0.0650  0.4168
 1748THY     HO43677   6.661   6.504   5.525 -0.8683 -0.5288  0.0897
 1748THY    CA143678   6.789   6.442   5.402  0.0202  0.7169  0.2325
 1748THY    CA243679   6.858   6.333   5.341 -0.0637 -0.0086 -0.6254
 1748THY    CP143680   6.878   6.204   5.417  0.3591 -0.3327  0.4822
 1748THY    HP143681   6.836   6.217   5.517 -0.4636 -0.5472  0.1724
 1748THY    CP243682   6.814   6.091   5.347  0.1902  0.4366 -0.3083
 1748THY    HP243683   6.815   6.005   5.415 -3.3493 -0.0512 -0.6811
 1748THY    HP343684   6.709   6.108   5.321  0.4194 -0.0139 -1.5689
 1748THY    HP443685   6.863   6.062   5.254 -2.5864 -2.2196 -1.0963
 1748THY    CP343686   7.023   6.179   5.447 -0.0587 -0.5323  0.5579
 1748THY    HP543687   7.065   6.264   5.502  0.2125 -1.0664  1.1923
 1748THY    HP643688   7.040   6.084   5.500  0.3151 -0.1316  1.1645
 1748THY    HP743689   7.083   6.167   5.356  0.5161 -1.2117  1.0109
 1748THY    CA343690   6.916   6.347   5.216  0.1103 -0.2911 -0.4259
 1748THY    HA343691   6.968   6.261   5.174  0.6582 -0.5191  0.6832
 1748THY    CA443692   6.911   6.467   5.150  0.4857 -0.0008  0.0591
 1748THY    HA443693   6.959   6.480   5.054  0.8180  0.1195  0.2398
 1748THY    CA543694   6.855   6.579   5.214 -0.7528  0.1498 -0.8090
 1748THY    CM143695   6.843   6.700   5.131 -0.2177  0.5705 -0.0248
 1748THY    HM143696   6.811   6.783   5.195 -2.9503 -1.7072  1.8150
 1748THY    HM243697   6.936   6.720   5.076 -0.9117  0.8012 -1.1614
 1748THY    HM343698   6.759   6.686   5.061  1.2371 -3.3303 -1.3092
 1748THY    CA643699   6.789   6.562   5.336 -0.1819  0.9686  0.3240
 1748THY    HA643700   6.740   6.647   5.383 -1.2653  0.0731  0.8407
 1749THY      O43701   0.043   1.648   2.168 -0.4112 -0.0660  0.1285
 1749THY     HO43702   0.118   1.708   2.181  0.9961 -2.0070  1.4974
 1749THY    CA143703   0.098   1.538   2.111  0.1027 -0.9139  0.2188
 1749THY    CA243704   0.031   1.415   2.121  0.4113  0.4090  0.1974
 1749THY    CP143705  -0.075   1.404   2.236 -0.3208 -0.2430 -0.1826
 1749THY    HP143706  -0.129   1.498   2.252  2.0548  1.2909 -0.5831
 1749THY    CP243707  -0.197   1.311   2.203 -0.0602 -0.0921  0.0371
 1749THY    HP243708  -0.165   1.212   2.169 -1.2365 -0.2054 -0.7945
 1749THY    HP343709  -0.264   1.301   2.289 -0.2808 -0.6915 -0.1977
 1749THY    HP443710  -0.262   1.363   2.131  0.3423  1.4150  0.7315
 1749THY    CP343711  -0.018   1.358   2.373 -0.0245 -0.3632 -0.3537
 1749THY    HP543712   0.039   1.265   2.376  0.8229  0.1567 -0.0595
 1749THY    HP643713   0.052   1.435   2.408 -2.1577  2.0310 -1.0170
 1749THY    HP743714  -0.100   1.360   2.446 -0.8747  3.3051 -1.1774
 1749THY    CA343715   0.089   1.303   2.044  0.9528 -0.0984 -0.3291
 1749THY    HA343716   0.051   1.201   2.045  0.3960  0.1049  0.9947
 1749THY    CA443717   0.191   1.340   1.951  0.3017  0.3584 -0.1477
 1749THY    HA443718   0.237   1.262   1.891  2.1819  1.3389 -0.0874
 1749THY    CA543719   0.235   1.463   1.942 -0.7788  0.3295  0.1443
 1749THY    CM143720   0.337   1.491   1.836 -0.3449  0.5448 -0.4716
 1749THY    HM143721   0.291   1.545   1.753  0.4309  1.9989  0.0109
 1749THY    HM243722   0.420   1.558   1.861 -0.7798  1.1194 -0.5581
 1749THY    HM343723   0.381   1.396   1.804  0.6086  0.7254  0.2339
 1749THY    CA643724   0.193   1.567   2.024  0.1646  0.6581  0.6344
 1749THY    HA643725   0.229   1.668   2.007  1.4028  0.0304 -0.6824
 1750THY      O43726   0.272   4.665   3.108  0.2965  0.1819  0.0652
 1750THY     HO43727   0.202   4.733   3.102 -0.1647 -0.3777 -1.4691
 1750THY    CA143728   0.388   4.735   3.125  0.4130  0.5670  0.0617
 1750THY    CA243729   0.512   4.667   3.147 -0.3671  1.1451  0.0705
 1750THY    CP143730   0.513   4.514   3.151  1.0043 -0.2342 -0.4007
 1750THY    HP143731   0.425   4.479   3.206  1.6787  1.0224  1.6002
 1750THY    CP243732   0.513   4.454   3.004  0.0457 -0.3829 -0.0442
 1750THY    HP243733   0.608   4.465   2.950 -0.0696 -3.0181 -0.9442
 1750THY    HP343734   0.492   4.347   2.994 -2.1057  0.0295 -0.4433
 1750THY    HP443735   0.438   4.502   2.940 -1.1909  0.1842  1.7642
 1750THY    CP343736   0.625   4.452   3.237  0.2598  0.1729 -0.8438
 1750THY    HP543737   0.592   4.349   3.253 -1.7846  1.0085  0.9598
 1750THY    HP643738   0.726   4.468   3.198  0.5737 -0.4062 -0.2953
 1750THY    HP743739   0.624   4.492   3.339 -0.5479 -1.0742 -0.3398
 1750THY    CA343740   0.626   4.738   3.180 -0.0501  0.1913 -0.2680
 1750THY    HA343741   0.719   4.691   3.211 -0.8724  0.4566  2.9636
 1750THY    CA443742   0.613   4.875   3.209  0.3633 -0.5252  0.4748
 1750THY    HA443743   0.701   4.932   3.236  0.0754 -0.6686  1.7980
 1750THY    CA543744   0.484   4.941   3.200 -0.3061 -0.2069 -0.0533
 1750THY    CM143745   0.472   5.092   3.215  1.0707 -0.0940 -0.4498
 1750THY    HM143746   0.572   5.137   3.209  1.2694 -0.6318 -1.5771
 1750THY    HM243747   0.408   5.135   3.137 -0.9682 -0.9542  0.6725
 1750THY    HM343748   0.438   5.112   3.317  0.9521  2.8601 -0.9873
 1750THY    CA643749   0.371   4.871   3.153 -0.5120 -0.3215  0.1385
 1750THY    HA643750   0.275   4.922   3.147  0.9101  2.7417  1.1725
 1751THY      O43751   7.310   5.435   3.980  0.7272  0.0232  0.5207
 1751THY     HO43752   7.330   5.525   4.012  2.7486  0.3632 -1.4605
 1751THY    CA143753   7.302   5.448   3.848 -0.0881  0.1105 -0.0464
 1751THY    CA243754   7.234   5.363   3.762  1.0396  0.8648 -0.4456
 1751THY    CP143755   7.166   5.245   3.818  0.2478  0.0256 -0.0257
 1751THY    HP143756   7.219   5.223   3.911  1.9211 -0.5434 -1.0696
 1751THY    CP243757   7.024   5.278   3.857 -0.7195 -0.2701  0.2155
 1751THY    HP243758   7.017   5.370   3.916 -0.8604 -0.1607  0.0298
 1751THY    HP343759   6.974   5.297   3.761 -1.5402 -1.5183  0.3671
 1751THY    HP443760   6.974   5.195   3.908  2.0597 -1.3061  1.4229
 1751THY    CP343761   7.165   5.118   3.729 -0.5344  0.6150  0.2924
 1751THY    HP543762   7.124   5.137   3.629 -0.4073  1.1361  0.3405
 1751THY    HP643763   7.265   5.081   3.702 -1.0051  0.0129 -0.6969
 1751THY    HP743764   7.121   5.034   3.784 -1.1191  1.6692  1.4737
 1751THY    CA343765   7.213   5.398   3.625  0.4822 -0.4872  0.2764
 1751THY    HA343766   7.144   5.336   3.570 -0.2079 -0.5293  1.1582
 1751THY    CA443767   7.271   5.519   3.574  0.0789 -0.2159 -0.4962
 1751THY    HA443768   7.260   5.555   3.472  2.1963 -0.8945 -1.0165
 1751THY    CA543769   7.347   5.594   3.662 -0.0259 -0.3400  0.5216
 1751THY    CM143770   7.399   5.729   3.621 -0.9895 -0.8723  0.2980
 1751THY    HM143771   7.409   5.792   3.710  0.9678  1.3070 -1.3102
 1751THY    HM243772   7.495   5.718   3.569 -1.3034 -0.2318 -0.4448
 1751THY    HM343773   7.331   5.786   3.556 -0.7786 -0.3066  0.5618
 1751THY    CA643774   7.367   5.558   3.793  0.2791  0.2568  0.0368
 1751THY    HA643775   7.415   5.629   3.860  0.4945  0.1506 -0.0021
 1752THY      O43776   4.449   8.310   9.102 -0.1017 -0.1878 -0.1641
 1752THY     HO43777   4.364   8.347   9.132 -0.3322 -0.6896 -0.1965
 1752THY    CA143778   4.492   8.390   9.005  0.6613  0.9053  0.0727
 1752THY    CA243779   4.571   8.343   8.902  0.0318  0.6396  0.4448
 1752THY    CP143780   4.611   8.197   8.908  0.6272 -0.9407 -0.0703
 1752THY    HP143781   4.590   8.158   9.009  0.2677  1.0769  0.6892
 1752THY    CP243782   4.525   8.118   8.807  0.0124 -0.1323 -0.2403
 1752THY    HP243783   4.420   8.130   8.838 -0.1554 -1.1398 -0.3852
 1752THY    HP343784   4.541   8.150   8.703 -1.5087 -2.3690 -1.2417
 1752THY    HP443785   4.556   8.014   8.819 -0.9754 -0.6407 -1.7518
 1752THY    CP343786   4.762   8.169   8.882  0.9864  0.4744 -0.3208
 1752THY    HP543787   4.786   8.146   8.778  0.3301  0.5866 -0.5010
 1752THY    HP643788   4.830   8.243   8.926  0.0128  0.8181  0.6514
 1752THY    HP743789   4.780   8.073   8.932 -2.8293 -1.1340 -1.6335
 1752THY    CA343790   4.608   8.420   8.798  0.9166 -0.2829 -0.1907
 1752THY    HA343791   4.656   8.384   8.708  0.4418 -0.6046 -0.3204
 1752THY    CA443792   4.577   8.557   8.799  0.4937  0.1509 -0.0892
 1752THY    HA443793   4.610   8.621   8.718  2.4047 -2.3719 -1.4954
 1752THY    CA543794   4.491   8.605   8.897  0.6488  0.1602 -0.0430
 1752THY    CM143795   4.451   8.753   8.904 -0.4817  0.0241  0.5254
 1752THY    HM143796   4.520   8.811   8.966 -2.6628  3.5290 -0.0707
 1752THY    HM243797   4.442   8.790   8.801  0.9654 -0.7276  0.1022
 1752THY    HM343798   4.353   8.758   8.952  0.6931 -0.4019  3.1749
 1752THY    CA643799   4.454   8.517   9.004 -0.6557 -0.4026 -0.3957
 1752THY    HA643800   4.382   8.555   9.076 -1.4691  3.2085 -2.8132
 1753THY      O43801   3.426   4.649   0.944 -0.0658  0.4470  0.4888
 1753THY     HO43802   3.488   4.672   0.872  0.3355  0.5932  0.8743
 1753THY    CA143803   3.502   4.602   1.037 -0.7586  0.5170 -0.1527
 1753THY    CA243804   3.464   4.493   1.121  0.2894  0.1449  0.1405
 1753THY    CP143805   3.334   4.410   1.092  0.0739 -0.2993  0.3494
 1753THY    HP143806   3.274   4.446   1.009 -0.3940  0.4244  0.9852
 1753THY    CP243807   3.365   4.261   1.066  0.6456  0.2034 -0.0649
 1753THY    HP243808   3.420   4.212   1.147 -2.2047 -0.2658  1.7527
 1753THY    HP343809   3.273   4.202   1.055  0.3989  0.6034 -0.1955
 1753THY    HP443810   3.428   4.258   0.977  0.9076 -4.4598  0.0586
 1753THY    CP343811   3.234   4.416   1.209  0.0899 -0.0919 -0.6726
 1753THY    HP543812   3.145   4.358   1.183  0.6077 -0.5707 -1.4010
 1753THY    HP643813   3.279   4.365   1.295  0.3153  0.8717 -0.2019
 1753THY    HP743814   3.204   4.516   1.244  1.4839  1.3576 -3.2835
 1753THY    CA343815   3.562   4.446   1.216  0.7854 -0.0653  0.4470
 1753THY    HA343816   3.533   4.377   1.294  0.8800  1.4144  1.8296
 1753THY    CA443817   3.689   4.502   1.229  0.1335 -0.1565  0.4411
 1753THY    HA443818   3.751   4.459   1.307 -1.0658  1.0898  2.1723
 1753THY    CA543819   3.719   4.612   1.147 -0.2218  0.4503  0.1773
 1753THY    CM143820   3.850   4.679   1.171 -0.0330 -0.1591  0.1406
 1753THY    HM143821   3.912   4.662   1.082 -0.8384  3.3415 -1.2159
 1753THY    HM243822   3.844   4.788   1.176  2.1859  0.2686 -3.2083
 1753THY    HM343823   3.912   4.637   1.252  0.8204 -0.2856 -0.5649
 1753THY    CA643824   3.629   4.660   1.049 -0.1255  0.2261 -0.7800
 1753THY    HA643825   3.645   4.749   0.988 -1.1666  1.0721  0.1478
 1754THY      O43826   8.658   6.148   4.780  0.1241  0.4671  0.6834
 1754THY     HO43827   8.742   6.150   4.829  1.3199  1.9420 -1.2887
 1754THY    CA143828   8.560   6.166   4.868 -0.1662  0.0103  0.0748
 1754THY    CA243829   8.422   6.149   4.834 -0.2193 -0.0315  0.5167
 1754THY    CP143830   8.372   6.107   4.693 -0.5540  0.1175 -0.0888
 1754THY    HP143831   8.462   6.124   4.634  0.1467 -2.4201  0.1253
 1754THY    CP243832   8.327   5.958   4.680 -0.1542 -0.0746  1.1320
 1754THY    HP243833   8.412   5.890   4.695  0.7339  0.7500 -0.0087
 1754THY    HP343834   8.259   5.925   4.759 -2.4477 -0.1901 -0.7806
 1754THY    HP443835   8.271   5.942   4.587  0.7959  3.1536 -0.1371
 1754THY    CP343836   8.263   6.206   4.647 -0.9747 -0.1777 -0.4183
 1754THY    HP543837   8.294   6.311   4.656 -0.6130 -0.4684  2.7832
 1754THY    HP643838   8.240   6.194   4.540  1.5565 -2.3250 -0.8053
 1754THY    HP743839   8.168   6.199   4.701 -0.5365  0.3033  0.4379
 1754THY    CA343840   8.326   6.170   4.934 -0.4670  0.0974 -0.6102
 1754THY    HA343841   8.223   6.153   4.905 -0.4126 -0.2268 -0.6097
 1754THY    CA443842   8.365   6.211   5.070  0.6567 -0.4033  0.2928
 1754THY    HA443843   8.290   6.228   5.146  0.3414  0.3874 -0.1798
 1754THY    CA543844   8.496   6.234   5.099 -0.3721 -0.0019 -0.1952
 1754THY    CM143845   8.538   6.287   5.232 -0.2981 -0.2006  0.3508
 1754THY    HM143846   8.475   6.250   5.313 -3.3625 -0.7340 -2.0597
 1754THY    HM243847   8.633   6.244   5.265  1.1417 -0.0656 -3.1600
 1754THY    HM343848   8.541   6.397   5.226 -0.8838 -0.2400 -1.3734
 1754THY    CA643849   8.591   6.216   4.998  0.3998  0.0802  0.1106
 1754THY    HA643850   8.697   6.218   5.022  0.9182 -0.3211 -1.9827
 1755THY      O43851   6.391   1.003   7.406 -0.2616  0.6875  0.0013
 1755THY     HO43852   6.332   1.075   7.434  0.2095  1.2054 -0.3013
 1755THY    CA143853   6.446   1.033   7.281 -0.2135  0.0827 -0.1691
 1755THY    CA243854   6.572   0.982   7.231 -0.8942 -0.7032 -0.0188
 1755THY    CP143855   6.651   0.887   7.323 -0.1760  0.2225 -0.2122
 1755THY    HP143856   6.626   0.905   7.428  1.4084 -2.3182  0.6962
 1755THY    CP243857   6.627   0.742   7.298  0.1877  0.6123  0.0791
 1755THY    HP243858   6.691   0.679   7.362 -1.0356 -0.4227  0.3271
 1755THY    HP343859   6.529   0.708   7.334  0.0165 -1.8383 -2.3313
 1755THY    HP443860   6.649   0.712   7.195  0.0861  0.5423  0.0775
 1755THY    CP343861   6.804   0.894   7.313 -0.5447  0.8035  0.3011
 1755THY    HP543862   6.840   0.821   7.239 -0.6198  2.4299 -1.4290
 1755THY    HP643863   6.835   0.998   7.299  0.2113  0.5243 -0.1616
 1755THY    HP743864   6.854   0.860   7.404 -0.0379  1.8369  0.4268
 1755THY    CA343865   6.615   1.018   7.106 -0.2415 -0.1196 -0.2680
 1755THY    HA343866   6.708   0.972   7.072  1.9834  3.0296  1.0736
 1755THY    CA443867   6.538   1.095   7.020 -0.4478  0.2503 -0.2322
 1755THY    HA443868   6.565   1.121   6.918 -0.5847  0.6769 -0.1650
 1755THY    CA543869   6.421   1.159   7.070 -0.7216  0.6650  0.5353
 1755THY    CM143870   6.347   1.264   6.992  0.3895  0.4622 -0.4857
 1755THY    HM143871   6.248   1.285   7.034  0.7855 -1.4611  1.5832
 1755THY    HM243872   6.416   1.349   6.980  1.9736 -0.6899  0.2425
 1755THY    HM343873   6.333   1.213   6.896 -0.5070 -1.0893  0.4380
 1755THY    CA643874   6.372   1.122   7.195 -0.0567 -0.2740  0.3295
 1755THY    HA643875   6.273   1.157   7.221 -0.8351 -0.5634 -2.0322
 1756THY      O43876   0.535   9.896   8.689 -0.6350  0.3618  0.2186
 1756THY     HO43877   0.568   9.988   8.688 -1.7503  0.8150  1.3868
 1756THY    CA143878   0.542   9.858   8.821  0.2302 -0.0447 -0.3725
 1756THY    CA243879   0.512   9.725   8.861 -0.7867 -0.4532 -0.4409
 1756THY    CP143880   0.461   9.625   8.755  0.2834  1.2382  0.0454
 1756THY    HP143881   0.390   9.676   8.689  1.1432  3.0623  0.4653
 1756THY    CP243882   0.571   9.562   8.667 -0.0649 -0.1953  0.5523
 1756THY    HP243883   0.620   9.645   8.614  0.6880 -0.5330  0.6978
 1756THY    HP343884   0.640   9.516   8.739  1.3749 -1.0487 -1.2791
 1756THY    HP443885   0.523   9.493   8.596  1.9505 -0.6941 -0.4366
 1756THY    CP343886   0.388   9.505   8.819  0.6397 -0.3478  0.0942
 1756THY    HP543887   0.461   9.439   8.867  2.5010  0.9228 -0.9080
 1756THY    HP643888   0.309   9.543   8.885  0.8317 -0.5463  0.4417
 1756THY    HP743889   0.332   9.446   8.746  1.4923  0.3948 -1.1837
 1756THY    CA343890   0.538   9.695   8.996 -0.2008  0.3245  0.0104
 1756THY    HA343891   0.516   9.594   9.031 -3.2856 -0.1903 -2.9325
 1756THY    CA443892   0.593   9.789   9.082  0.1421 -0.2898 -0.0291
 1756THY    HA443893   0.617   9.777   9.187 -2.9040  0.3937  0.8238
 1756THY    CA543894   0.625   9.918   9.037  0.4154 -0.7033  0.4239
 1756THY    CM143895   0.701  10.014   9.124 -0.0323  0.3729  0.7341
 1756THY    HM143896   0.657  10.011   9.224  1.6504 -0.2551  1.5098
 1756THY    HM243897   0.799   9.967   9.143 -0.4367 -1.9823 -2.2682
 1756THY    HM343898   0.723  10.115   9.088  0.5847 -0.6765 -2.0766
 1756THY    CA643899   0.606   9.949   8.904 -0.3212 -0.8865 -0.0888
 1756THY    HA643900   0.640  10.046   8.869 -0.4579 -1.4116 -1.7171
 1757THY      O43901   2.027   1.431   8.406  0.0631  0.0309  0.4222
 1757THY     HO43902   2.040   1.349   8.355 -2.0203  0.0544 -0.2102
 1757THY    CA143903   1.927   1.481   8.342  0.0477 -0.2425  0.1471
 1757THY    CA243904   1.882   1.614   8.368  0.1092 -0.0300 -0.1922
 1757THY    CP143905   1.955   1.710   8.461  0.8129 -0.5268 -0.5810
 1757THY    HP143906   2.063   1.693   8.450  0.9702 -0.4361  0.6536
 1757THY    CP243907   1.931   1.860   8.425 -0.1549  0.4043 -0.1229
 1757THY    HP243908   1.845   1.909   8.471 -0.2777  1.5010 -1.4671
 1757THY    HP343909   2.014   1.922   8.461  0.4637  0.2642 -1.2646
 1757THY    HP443910   1.921   1.875   8.317 -0.9016 -0.8641 -0.2505
 1757THY    CP343911   1.919   1.690   8.608  0.1970  0.2788 -0.0408
 1757THY    HP543912   1.809   1.692   8.617  0.0878  0.4405 -1.1927
 1757THY    HP643913   1.974   1.601   8.639 -2.0292 -0.7203  1.3114
 1757THY    HP743914   1.948   1.780   8.664  0.4947  0.5809 -0.6743
 1757THY    CA343915   1.771   1.667   8.297  0.0066 -0.0271  0.2817
 1757THY    HA343916   1.736   1.767   8.318 -1.1441 -0.3171 -0.1691
 1757THY    CA443917   1.696   1.575   8.210 -0.7874 -1.1095  0.6491
 1757THY    HA443918   1.604   1.606   8.162  0.3282  1.1546 -0.1847
 1757THY    CA543919   1.742   1.441   8.188  0.1265 -0.0934 -0.1891
 1757THY    CM143920   1.669   1.346   8.094  0.5682 -0.3895  0.5315
 1757THY    HM143921   1.572   1.390   8.067 -0.6643 -2.4512  1.3333
 1757THY    HM243922   1.719   1.333   7.997  1.1574 -1.2936  0.9384
 1757THY    HM343923   1.649   1.250   8.143 -1.1234 -0.8633 -0.9893
 1757THY    CA643924   1.860   1.400   8.252 -0.3222  0.6037  0.2213
 1757THY    HA643925   1.891   1.300   8.225  1.4762  1.4717 -1.2047
 1758THY      O43926   9.699   9.282   5.814 -0.2663 -0.1219 -0.5469
 1758THY     HO43927   9.644   9.354   5.851 -1.3016 -1.5119  0.7221
 1758THY    CA143928   9.827   9.329   5.804  0.0786  0.0987 -0.2177
 1758THY    CA243929   9.920   9.262   5.720  0.3600  0.0539 -0.1275
 1758THY    CP143930   9.868   9.146   5.637 -0.4870  0.3156  0.0818
 1758THY    HP143931   9.818   9.077   5.705 -0.1355  1.3501  1.4480
 1758THY    CP243932   9.782   9.186   5.517  0.3387  0.2478  0.0124
 1758THY    HP243933   9.793   9.119   5.431 -1.2228 -1.2231  0.9137
 1758THY    HP343934   9.674   9.189   5.538  0.7038 -1.7200  2.7057
 1758THY    HP443935   9.820   9.287   5.495 -0.2628  0.3963 -0.3609
 1758THY    CP343936   9.970   9.051   5.583  0.3448  0.1157 -0.2871
 1758THY    HP543937  10.015   9.105   5.500 -1.3431  1.0904 -0.6232
 1758THY    HP643938  10.032   9.025   5.670 -1.5764  0.0120  1.1429
 1758THY    HP743939   9.917   8.965   5.541  0.3123  0.9828 -2.1175
 1758THY    CA343940  10.053   9.307   5.712 -0.2437 -0.2874 -0.4229
 1758THY    HA343941  10.122   9.267   5.638  0.1287 -2.2521  0.8913
 1758THY    CA443942  10.096   9.413   5.792 -0.0121 -0.4884  0.3925
 1758THY    HA443943  10.194   9.457   5.778 -0.1702 -0.3329 -0.3225
 1758THY    CA543944  10.002   9.483   5.870  0.3304  0.0361 -1.0671
 1758THY    CM143945  10.039   9.617   5.942  1.0614 -0.1461 -0.3670
 1758THY    HM143946  10.115   9.684   5.900  1.0214  1.8493  2.3979
 1758THY    HM243947   9.948   9.679   5.949  2.4858  2.0377 -0.3423
 1758THY    HM343948  10.083   9.608   6.042  1.5434 -2.8210 -0.7540
 1758THY    CA643949   9.867   9.438   5.878 -0.0174 -0.4458 -0.2041
 1758THY    HA643950   9.788   9.487   5.934  0.0135 -1.2116  0.5357
 1759THY      O43951   0.778   4.034   6.951  0.2307  0.2232 -0.2965
 1759THY     HO43952   0.730   3.949   6.946  0.5279 -0.0012  0.5967
 1759THY    CA143953   0.728   4.082   7.063 -0.3476 -0.1078 -0.1458
 1759THY    CA243954   0.672   4.210   7.055 -0.0993  0.3135 -0.6197
 1759THY    CP143955   0.683   4.305   6.933  0.0449  0.4487 -0.4713
 1759THY    HP143956   0.706   4.260   6.836  1.2101  1.6004 -0.7619
 1759THY    CP243957   0.556   4.397   6.903 -0.0488  0.4047  0.0178
 1759THY    HP243958   0.461   4.341   6.904  0.1651  0.0075  1.8160
 1759THY    HP343959   0.543   4.469   6.984  0.9798 -0.2932  0.8352
 1759THY    HP443960   0.560   4.459   6.813 -0.2977 -0.3088 -0.4928
 1759THY    CP343961   0.802   4.401   6.946 -0.0449 -0.0057  0.2219
 1759THY    HP543962   0.799   4.437   7.049 -0.9931  1.7082 -0.3637
 1759THY    HP643963   0.893   4.356   6.906 -0.7396 -1.4541  0.2024
 1759THY    HP743964   0.791   4.488   6.880 -0.2214  0.1181  0.4127
 1759THY    CA343965   0.600   4.248   7.171  0.4395 -1.2745  0.3723
 1759THY    HA343966   0.561   4.349   7.177 -0.2116 -1.4153 -1.0599
 1759THY    CA443967   0.607   4.170   7.288 -0.1178 -0.8027  0.3502
 1759THY    HA443968   0.561   4.213   7.376  0.1212  1.7981 -0.7034
 1759THY    CA543969   0.657   4.044   7.289  0.0353  0.3631 -0.5018
 1759THY    CM143970   0.637   3.952   7.409 -0.3236  0.9305  0.0705
 1759THY    HM143971   0.608   3.853   7.373  1.1354  0.4294  0.2099
 1759THY    HM243972   0.735   3.939   7.457 -0.3060 -2.1322 -0.6079
 1759THY    HM343973   0.569   3.995   7.484  0.3644  1.1818  0.5623
 1759THY    CA643974   0.722   3.999   7.177 -0.1639 -0.0104  0.5726
 1759THY    HA643975   0.767   3.900   7.177  0.1764  0.1439  0.4162
 1760THY      O43976   5.090   9.208   8.202 -0.3661 -0.4960 -0.0082
 1760THY     HO43977   5.111   9.221   8.296  1.3618  1.0167 -0.5417
 1760THY    CA143978   4.955   9.232   8.198 -0.2769  0.0116  0.5337
 1760THY    CA243979   4.892   9.191   8.080  0.0908  0.1128  0.0732
 1760THY    CP143980   4.968   9.151   7.954 -0.2934  0.0980  0.3921
 1760THY    HP143981   5.063   9.205   7.958  1.2406 -2.2889 -0.9688
 1760THY    CP243982   5.006   9.003   7.939 -0.0681 -0.8149 -0.5172
 1760THY    HP243983   5.107   8.972   7.965  0.4722 -0.7362 -2.3493
 1760THY    HP343984   4.933   8.934   7.984 -0.5302  0.2014  0.3388
 1760THY    HP443985   4.994   8.988   7.831  2.0448 -0.4351 -0.8346
 1760THY    CP343986   4.900   9.214   7.830 -0.0639 -0.0840 -0.1228
 1760THY    HP543987   4.821   9.150   7.791  1.5838 -0.9829 -2.2021
 1760THY    HP643988   4.854   9.310   7.858  0.8479  0.0952  0.8509
 1760THY    HP743989   4.974   9.223   7.750 -0.9394 -0.6816 -1.0136
 1760THY    CA343990   4.752   9.194   8.085 -0.5779  0.1407  0.8857
 1760THY    HA343991   4.688   9.172   8.000 -0.9671 -0.8700  1.4155
 1760THY    CA443992   4.684   9.233   8.203  0.2304 -0.0754 -0.4587
 1760THY    HA443993   4.578   9.253   8.202  0.2921  0.2735 -1.2033
 1760THY    CA543994   4.754   9.270   8.313 -0.3188 -0.4588 -0.8290
 1760THY    CM143995   4.681   9.330   8.432  0.2683 -0.0136 -0.0498
 1760THY    HM143996   4.676   9.263   8.519 -0.8632  0.6957  0.4558
 1760THY    HM243997   4.734   9.422   8.460  2.3713 -1.0614 -0.3527
 1760THY    HM343998   4.579   9.363   8.410 -0.2451 -0.0614  2.0877
 1760THY    CA643999   4.890   9.268   8.312 -0.0407  0.1407 -0.2712
 1760THY    HA644000   4.950   9.284   8.401  0.7111 -1.3511 -0.4745
 1761THY      O44001   1.365   2.298   9.475 -0.5900  1.1099  0.2563
 1761THY     HO44002   1.299   2.228   9.483 -0.1346  0.8109  1.7613
 1761THY    CA144003   1.368   2.369   9.590  0.0854 -0.4920 -0.3278
 1761THY    CA244004   1.391   2.505   9.586  0.2772 -0.2160 -0.1283
 1761THY    CP144005   1.449   2.566   9.454  0.1404 -0.1308 -0.2163
 1761THY    HP144006   1.383   2.534   9.373 -2.0947  1.4710  0.8545
 1761THY    CP244007   1.432   2.719   9.442 -0.4824  0.0941 -0.4944
 1761THY    HP244008   1.326   2.738   9.418 -0.2658 -0.2969 -1.8531
 1761THY    HP344009   1.443   2.771   9.538  0.2630  2.5279 -1.8318
 1761THY    HP444010   1.498   2.762   9.366 -0.0724 -2.0451 -1.4310
 1761THY    CP344011   1.600   2.532   9.438  1.0235 -0.1503  0.6250
 1761THY    HP544012   1.652   2.526   9.534  0.0558 -1.4563  1.0948
 1761THY    HP644013   1.620   2.429   9.407  1.3080  0.2742 -0.7078
 1761THY    HP744014   1.649   2.603   9.370 -0.4513 -1.2903 -1.7486
 1761THY    CA344015   1.384   2.570   9.709  0.5675  0.0812 -0.4060
 1761THY    HA344016   1.416   2.672   9.728 -1.2492  0.3268  1.8702
 1761THY    CA444017   1.346   2.503   9.823  0.2718  0.1003  0.2672
 1761THY    HA444018   1.347   2.550   9.921  0.7861 -1.8457  1.2594
 1761THY    CA544019   1.318   2.368   9.823 -0.3192  0.1109 -0.5039
 1761THY    CM144020   1.286   2.285   9.946 -0.0916 -0.1160  0.6271
 1761THY    HM144021   1.239   2.190   9.918  1.0484 -0.4120 -0.3912
 1761THY    HM244022   1.377   2.252   9.997 -1.0208 -1.1922  1.6589
 1761THY    HM344023   1.230   2.346  10.018 -1.2146  0.8922 -1.0277
 1761THY    CA644024   1.331   2.299   9.708 -0.1190  0.3894 -0.4164
 1761THY    HA644025   1.310   2.192   9.702  0.2577  0.1831  1.3843
 1762THY      O44026   9.427   1.379   3.118 -0.3582 -0.4692  0.3296
 1762THY     HO44027   9.442   1.352   3.026 -1.0179 -0.3823  0.1871
 1762THY    CA144028   9.467   1.507   3.125  0.6138 -0.2114  1.0029
 1762THY    CA244029   9.445   1.583   3.244 -0.0080  0.2618  0.6226
 1762THY    CP144030   9.375   1.514   3.371  0.0080 -0.1945 -0.1636
 1762THY    HP144031   9.294   1.445   3.344 -1.3777  1.5526 -0.6374
 1762THY    CP244032   9.475   1.440   3.457  0.1596 -0.2143 -0.1197
 1762THY    HP244033   9.430   1.350   3.501  0.2784  0.5590  1.6883
 1762THY    HP344034   9.566   1.412   3.402  0.6564 -1.5374  1.2919
 1762THY    HP444035   9.516   1.497   3.541  0.5595 -2.6895  1.4547
 1762THY    CP344036   9.297   1.616   3.454  0.9139  0.2315 -0.3191
 1762THY    HP544037   9.360   1.697   3.494  0.7109 -0.4463  1.4178
 1762THY    HP644038   9.208   1.650   3.399  0.2441 -0.6700  0.1965
 1762THY    HP744039   9.257   1.575   3.547  1.1531  1.4831  0.3629
 1762THY    CA344040   9.485   1.720   3.246 -0.3273 -0.7691  0.4148
 1762THY    HA344041   9.468   1.781   3.334  2.5657 -0.8180  1.1250
 1762THY    CA444042   9.569   1.769   3.141  0.1719 -0.0095  0.7892
 1762THY    HA444043   9.606   1.871   3.149  1.2255 -0.4483  1.8114
 1762THY    CA544044   9.601   1.686   3.026 -0.4727 -0.1059 -0.1322
 1762THY    CM144045   9.675   1.744   2.910  0.0771  0.3048 -0.4693
 1762THY    HM144046   9.608   1.778   2.831  0.0792 -0.7766 -0.9529
 1762THY    HM244047   9.754   1.811   2.947  2.2028 -2.2127 -0.1402
 1762THY    HM344048   9.737   1.665   2.866  0.0737 -1.2036  2.0381
 1762THY    CA644049   9.549   1.558   3.021  0.1665 -0.2326  0.1903
 1762THY    HA644050   9.553   1.506   2.925  0.0725 -0.9606  0.5768
 1763THY      O44051   2.320   9.199   4.135  0.6812  0.0010  0.2695
 1763THY     HO44052   2.367   9.115   4.146 -0.1820 -0.6205 -0.5669
 1763THY    CA144053   2.397   9.298   4.081 -0.0025 -0.0912  0.2728
 1763THY    CA244054   2.361   9.441   4.100 -0.1871  0.6973  0.1091
 1763THY    CP144055   2.236   9.481   4.172 -0.5683  0.1545 -0.1558
 1763THY    HP144056   2.224   9.400   4.244 -0.5415 -0.8539 -1.2605
 1763THY    CP244057   2.234   9.615   4.254 -0.6263 -0.6451  0.7286
 1763THY    HP244058   2.194   9.699   4.197  0.0754 -1.3614 -0.8996
 1763THY    HP344059   2.171   9.606   4.343 -1.4417  2.1313  0.5115
 1763THY    HP444060   2.338   9.644   4.271 -0.2819  1.5431 -3.6854
 1763THY    CP344061   2.133   9.474   4.060  0.7067 -0.6569 -0.4523
 1763THY    HP544062   2.174   9.508   3.965  0.6824  2.7302  0.6236
 1763THY    HP644063   2.115   9.366   4.049 -0.1529 -0.8310  1.9414
 1763THY    HP744064   2.045   9.531   4.093  1.5756  1.3879 -1.5147
 1763THY    CA344065   2.441   9.531   4.032 -0.0873  0.0598  0.5534
 1763THY    HA344066   2.435   9.637   4.057  3.3452  0.1092  1.6236
 1763THY    CA444067   2.549   9.488   3.956 -0.7781  0.2480 -0.0741
 1763THY    HA444068   2.615   9.558   3.906 -2.9532  1.8198 -0.9171
 1763THY    CA544069   2.586   9.355   3.935 -0.4321  0.9634 -0.2806
 1763THY    CM144070   2.711   9.315   3.862  0.2912 -0.6421  0.1084
 1763THY    HM144071   2.697   9.224   3.803 -0.3659 -0.1644 -0.4790
 1763THY    HM244072   2.751   9.400   3.806 -0.7189 -0.5420 -0.4751
 1763THY    HM344073   2.793   9.287   3.930 -1.0780 -2.0896  1.2521
 1763THY    CA644074   2.510   9.261   4.006  0.3574  0.1036  0.4410
 1763THY    HA644075   2.544   9.158   3.994 -1.4285 -0.3360 -1.4165
 1764THY      O44076   1.001   1.671   6.176 -0.5407 -0.9878 -0.4132
 1764THY     HO44077   1.066   1.718   6.230  0.2972 -1.6973 -0.7918
 1764THY    CA144078   1.040   1.545   6.176 -0.2666  0.0423  0.4157
 1764THY    CA244079   0.963   1.439   6.134  0.0532 -0.2935  0.3296
 1764THY    CP144080   0.822   1.468   6.069 -0.3320 -0.2343 -0.4339
 1764THY    HP144081   0.789   1.571   6.086 -0.9571 -0.5817  0.5412
 1764THY    CP244082   0.819   1.458   5.916 -0.0610  0.1889 -0.2406
 1764THY    HP244083   0.720   1.440   5.872 -0.0353  0.2384 -0.3193
 1764THY    HP344084   0.865   1.549   5.876 -1.2458  0.0801 -1.9733
 1764THY    HP444085   0.877   1.369   5.889 -1.7060 -2.3622  3.8107
 1764THY    CP344086   0.718   1.377   6.126 -0.2047 -0.2692 -0.5062
 1764THY    HP544087   0.619   1.418   6.103  0.4818  2.1354  0.5021
 1764THY    HP644088   0.738   1.274   6.095 -1.7537  0.2302 -3.4354
 1764THY    HP744089   0.731   1.387   6.235  0.0411  0.8183 -0.6199
 1764THY    CA344090   1.015   1.309   6.128 -0.4292 -0.5575  0.7879
 1764THY    HA344091   0.960   1.228   6.080 -1.1934 -0.6460  1.7715
 1764THY    CA444092   1.151   1.291   6.162 -0.6958  0.0355 -0.3326
 1764THY    HA444093   1.200   1.195   6.149  3.7435  1.6797  2.1273
 1764THY    CA544094   1.224   1.396   6.226  0.3528  0.1791 -0.4299
 1764THY    CM144095   1.368   1.374   6.262 -0.0253 -0.6181 -0.0788
 1764THY    HM144096   1.416   1.464   6.301  2.6588 -2.7377  1.8822
 1764THY    HM244097   1.368   1.289   6.332 -0.3332  0.0029  0.6845
 1764THY    HM344098   1.406   1.339   6.166 -0.1043 -3.4865  0.8281
 1764THY    CA644099   1.171   1.525   6.227 -0.0451 -0.2184  0.2865
 1764THY    HA644100   1.230   1.610   6.260  1.1222 -0.5673 -0.7991
 1765THY      O44101   3.568   1.570   0.832 -0.2162 -0.4049 -0.2986
 1765THY     HO44102   3.515   1.575   0.913  1.2897 -0.4965  0.7420
 1765THY    CA144103   3.578   1.701   0.797 -0.4473  0.0583 -0.0885
 1765THY    CA244104   3.582   1.740   0.662  0.7411  0.4512  0.0662
 1765THY    CP144105   3.566   1.636   0.551  0.0575  0.1158 -0.1854
 1765THY    HP144106   3.518   1.547   0.594 -1.9864  0.4442 -1.6523
 1765THY    CP244107   3.464   1.683   0.444  0.0206 -0.1180  0.1339
 1765THY    HP244108   3.491   1.778   0.397 -0.3414 -0.4112 -0.6809
 1765THY    HP344109   3.451   1.609   0.364  2.4163 -0.4493 -0.0074
 1765THY    HP444110   3.366   1.716   0.480 -0.4193 -0.3025 -0.8606
 1765THY    CP344111   3.700   1.600   0.484 -0.0456  0.4075  0.1844
 1765THY    HP544112   3.689   1.564   0.381 -0.9588 -0.1958  0.4858
 1765THY    HP644113   3.754   1.695   0.474 -1.5637  1.3604  0.8380
 1765THY    HP744114   3.750   1.527   0.549 -1.6902 -0.9768 -0.0614
 1765THY    CA344115   3.595   1.881   0.640  1.0870 -0.9531  0.1542
 1765THY    HA344116   3.584   1.925   0.541  1.3958  3.7641  1.9648
 1765THY    CA444117   3.629   1.970   0.748 -1.2432 -0.5524 -0.1069
 1765THY    HA444118   3.635   2.076   0.724  0.0117 -0.1424  1.8037
 1765THY    CA544119   3.638   1.926   0.881  0.2919 -0.4146 -0.0750
 1765THY    CM144120   3.669   2.025   0.989 -0.0438  0.2148  0.2146
 1765THY    HM144121   3.734   2.110   0.964  2.0205 -1.4229 -0.3046
 1765THY    HM244122   3.568   2.052   1.021 -0.4393 -2.9908  2.1159
 1765THY    HM344123   3.715   1.971   1.073 -2.4323  1.1099  2.2146
 1765THY    CA644124   3.596   1.792   0.902  1.1153  0.5521  0.3369
 1765THY    HA644125   3.592   1.757   1.005 -0.8022 -0.0857  0.0728
 1766THY      O44126   7.104   5.737   6.453  0.0679 -0.6034 -0.5112
 1766THY     HO44127   7.090   5.805   6.385  1.0492  0.8108  0.6440
 1766THY    CA144128   7.156   5.634   6.391  0.0778  0.6789 -0.4559
 1766THY    CA244129   7.142   5.608   6.251  1.0249  0.1081  0.2582
 1766THY    CP144130   7.064   5.704   6.168  0.0415 -0.2573  0.0219
 1766THY    HP144131   7.011   5.775   6.233  2.8292  2.6228 -0.6027
 1766THY    CP244132   7.146   5.796   6.086 -0.0607 -0.3670  0.2613
 1766THY    HP244133   7.100   5.853   6.005 -0.2225  2.0510  1.9114
 1766THY    HP344134   7.197   5.866   6.154 -1.7117  1.3440 -0.1705
 1766THY    HP444135   7.224   5.736   6.038  0.2015  0.7109 -0.6969
 1766THY    CP344136   6.964   5.629   6.087  0.2025  0.0304  0.2181
 1766THY    HP544137   7.014   5.564   6.015  2.8992 -0.3708  2.2657
 1766THY    HP644138   6.909   5.555   6.147  1.5564 -0.8721  0.3943
 1766THY    HP744139   6.906   5.707   6.037  0.9549 -0.8549 -2.1892
 1766THY    CA344140   7.211   5.505   6.188 -0.9463 -0.2961 -0.1481
 1766THY    HA344141   7.210   5.485   6.081 -1.5129 -3.7483  0.3899
 1766THY    CA444142   7.286   5.417   6.272 -0.1357  0.4330  0.5017
 1766THY    HA444143   7.338   5.335   6.222 -0.9341  0.8089 -1.0169
 1766THY    CA544144   7.296   5.441   6.409  0.0151 -0.0168  0.7293
 1766THY    CM144145   7.379   5.349   6.498  0.2075 -0.2696 -0.1521
 1766THY    HM144146   7.425   5.278   6.429  1.7266  0.3716  0.1735
 1766THY    HM244147   7.454   5.407   6.553  0.2093 -0.1551 -0.2742
 1766THY    HM344148   7.314   5.292   6.565 -1.1294  2.5816  1.1660
 1766THY    CA644149   7.236   5.544   6.471  0.3126 -0.1171  1.2353
 1766THY    HA644150   7.252   5.564   6.577  0.2420  3.1597  0.7177
 1767THY      O44151   0.409   8.272   4.920  0.0293  0.4293  0.3671
 1767THY     HO44152   0.423   8.195   4.862  0.4094 -0.2187  1.3021
 1767THY    CA144153   0.351   8.371   4.847 -0.1238 -0.3028  0.2018
 1767THY    CA244154   0.277   8.480   4.896 -0.2874  0.0783 -0.3063
 1767THY    CP144155   0.277   8.506   5.049  0.5254  0.3285 -0.1556
 1767THY    HP144156   0.287   8.410   5.101 -1.3226 -1.1531 -2.2863
 1767THY    CP244157   0.378   8.609   5.086 -0.3073 -0.5646  0.0467
 1767THY    HP244158   0.396   8.601   5.194 -0.5136  0.4051  0.1593
 1767THY    HP344159   0.465   8.586   5.022 -1.2813 -0.4225 -1.3756
 1767THY    HP444160   0.351   8.710   5.052  0.7076 -0.5801 -0.8808
 1767THY    CP344161   0.133   8.549   5.100 -0.0183  0.3018 -0.0927
 1767THY    HP544162   0.110   8.637   5.037 -3.4098 -1.7868 -2.0647
 1767THY    HP644163   0.057   8.473   5.084  0.7645 -1.1383  2.5223
 1767THY    HP744164   0.122   8.587   5.202  1.1657 -1.5169  0.7533
 1767THY    CA344165   0.209   8.568   4.807  0.6276 -0.2246 -0.1741
 1767THY    HA344166   0.164   8.663   4.833 -2.3212 -1.6410  0.3166
 1767THY    CA444167   0.227   8.551   4.671 -0.0909  0.1689 -0.0023
 1767THY    HA444168   0.182   8.630   4.612 -0.3888  0.8425  1.0880
 1767THY    CA544169   0.309   8.452   4.623 -0.3139 -0.3385 -0.5941
 1767THY    CM144170   0.338   8.442   4.477 -0.2922 -0.3230 -0.8541
 1767THY    HM144171   0.417   8.368   4.457  1.6527  1.6991 -1.0285
 1767THY    HM244172   0.246   8.406   4.428  0.1216  1.0568 -2.7633
 1767THY    HM344173   0.365   8.539   4.434  2.7396 -1.0291 -0.7573
 1767THY    CA644174   0.364   8.355   4.713  0.4074 -0.0698 -0.2605
 1767THY    HA644175   0.425   8.272   4.680  2.0675  0.7095  0.6985
 1768THY      O44176   3.408   4.841   5.842  0.3653  0.2863 -0.5715
 1768THY     HO44177   3.501   4.815   5.832  0.4065 -0.5485  1.4795
 1768THY    CA144178   3.359   4.769   5.951 -0.3216 -0.0112 -0.5453
 1768THY    CA244179   3.343   4.819   6.081 -0.3930 -0.5772 -0.4861
 1768THY    CP144180   3.391   4.970   6.092  0.4607  0.0611 -1.2121
 1768THY    HP144181   3.486   4.975   6.037 -0.0186 -2.0220 -2.3536
 1768THY    CP244182   3.292   5.075   6.034 -0.1602 -0.2086 -0.0715
 1768THY    HP244183   3.223   5.026   5.965  0.1573  2.0349 -2.1255
 1768THY    HP344184   3.235   5.117   6.118  0.1711 -1.4551  0.8160
 1768THY    HP444185   3.347   5.158   5.987  0.9065 -1.4784 -1.1422
 1768THY    CP344186   3.422   5.008   6.238 -0.0254  0.3491  0.3747
 1768THY    HP544187   3.485   4.926   6.274  0.3017  0.4824  0.1111
 1768THY    HP644188   3.479   5.101   6.236  0.5198  0.0273 -1.8774
 1768THY    HP744189   3.333   5.015   6.301 -1.3270  2.1943 -1.5362
 1768THY    CA344190   3.312   4.739   6.188 -0.0220  0.5037 -0.6819
 1768THY    HA344191   3.301   4.775   6.289 -0.7071 -0.5950 -0.3469
 1768THY    CA444192   3.281   4.606   6.164 -0.1382  0.2048  0.0616
 1768THY    HA444193   3.243   4.549   6.249  0.4003 -1.9328 -1.0635
 1768THY    CA544194   3.287   4.555   6.036 -0.4071  0.1672 -0.0488
 1768THY    CM144195   3.264   4.411   6.008  0.2465  0.5682 -0.1442
 1768THY    HM144196   3.230   4.362   6.101  0.8815 -1.4556 -0.9206
 1768THY    HM244197   3.183   4.390   5.937 -0.0296  1.5518 -0.1303
 1768THY    HM344198   3.358   4.366   5.975 -1.3382 -2.6711 -0.7090
 1768THY    CA644199   3.327   4.636   5.930  0.3211 -0.2441 -0.1184
 1768THY    HA644200   3.354   4.589   5.836  2.2811 -2.9736  1.6538
 1769THY      O44201   5.146   1.429   4.591 -0.0957 -0.9334  0.1109
 1769THY     HO44202   5.151   1.421   4.688 -0.4463  0.0308  0.2191
 1769THY    CA144203   5.074   1.539   4.559  0.3262  0.1432  0.4631
 1769THY    CA244204   5.038   1.556   4.423  0.0037  0.1634  0.4569
 1769THY    CP144205   5.076   1.443   4.319 -0.0667  0.5498 -0.7392
 1769THY    HP144206   5.058   1.341   4.356 -0.2185  0.8401 -0.0035
 1769THY    CP244207   4.993   1.462   4.198 -0.1723  0.5780  0.0179
 1769THY    HP244208   4.887   1.483   4.217  0.3883  3.0919  0.7806
 1769THY    HP344209   5.041   1.540   4.137  0.7567  1.2102  1.5023
 1769THY    HP444210   4.994   1.371   4.138 -1.4318  0.2213  0.4978
 1769THY    CP344211   5.227   1.460   4.279 -0.4342 -0.2123 -0.1972
 1769THY    HP544212   5.238   1.555   4.225 -1.9089 -0.6392 -1.3008
 1769THY    HP644213   5.294   1.454   4.366 -0.8657 -1.8225  0.0437
 1769THY    HP744214   5.248   1.375   4.214  0.5750 -0.5480  0.5326
 1769THY    CA344215   4.947   1.662   4.394  0.0266 -0.4755 -0.4053
 1769THY    HA344216   4.912   1.683   4.294 -0.2125  1.6749  0.0843
 1769THY    CA444217   4.913   1.751   4.493  0.1884 -0.4423  0.5918
 1769THY    HA444218   4.849   1.834   4.464  0.2171 -0.9507 -1.0105
 1769THY    CA544219   4.973   1.741   4.617  0.0574 -0.4357  0.4454
 1769THY    CM144220   4.935   1.858   4.714  0.7163  0.5744  0.1594
 1769THY    HM144221   4.828   1.860   4.734  0.3205 -0.1874 -1.6448
 1769THY    HM244222   4.984   1.845   4.811 -1.3810 -1.2275  1.0377
 1769THY    HM344223   4.969   1.952   4.668 -0.4799  0.4030 -1.1495
 1769THY    CA644224   5.053   1.637   4.654 -0.0167  0.0571  0.4908
 1769THY    HA644225   5.081   1.622   4.758 -0.2074  1.7718  0.8099
 1770THY      O44226   4.603   2.039   6.308 -0.8015  0.1589  0.3976
 1770THY     HO44227   4.653   2.092   6.372  0.2387  0.2344 -0.4483
 1770THY    CA144228   4.617   1.920   6.362 -0.7440  0.2320 -0.0623
 1770THY    CA244229   4.533   1.819   6.338  0.5727 -0.2795  0.6494
 1770THY    CP144230   4.426   1.838   6.226 -0.0449  0.3516 -0.5713
 1770THY    HP144231   4.457   1.921   6.162  1.8634 -0.5482 -0.9113
 1770THY    CP244232   4.433   1.716   6.128 -0.0247 -0.1049  0.6770
 1770THY    HP244233   4.531   1.668   6.117  0.4713  1.2388 -1.3958
 1770THY    HP344234   4.371   1.637   6.170 -0.7033 -1.1495 -2.0781
 1770THY    HP444235   4.404   1.735   6.024  0.5108  0.8434  0.6856
 1770THY    CP344236   4.278   1.846   6.277 -0.3963 -0.3001 -0.3691
 1770THY    HP544237   4.236   1.752   6.315  0.6900  0.1020  2.0133
 1770THY    HP644238   4.263   1.918   6.359 -1.4745  0.2119 -0.9994
 1770THY    HP744239   4.218   1.888   6.195  1.8680  1.0789 -1.4244
 1770THY    CA344240   4.530   1.706   6.421 -0.2900 -0.4532 -0.0366
 1770THY    HA344241   4.450   1.633   6.414  0.3167 -1.1789  0.5018
 1770THY    CA444242   4.622   1.695   6.526 -0.2674  0.0042  0.6720
 1770THY    HA444243   4.611   1.616   6.600 -2.5303  0.4139  0.8617
 1770THY    CA544244   4.721   1.798   6.544  0.2692  0.1518  0.4312
 1770THY    CM144245   4.819   1.801   6.658  0.1258 -0.3418  0.1602
 1770THY    HM144246   4.885   1.716   6.678  0.8231  0.2883  0.5667
 1770THY    HM244247   4.892   1.881   6.649  0.4292 -0.5252  0.9512
 1770THY    HM344248   4.761   1.823   6.748  0.4434  0.2979  0.2121
 1770THY    CA644249   4.715   1.906   6.460 -0.1067 -0.1305 -0.1294
 1770THY    HA644250   4.781   1.987   6.489 -0.2443 -0.8823  2.4791
 1771THY      O44251   1.261   6.645   3.498  0.0625  0.4266  0.3575
 1771THY     HO44252   1.312   6.629   3.418 -1.5823 -0.4552 -0.5797
 1771THY    CA144253   1.255   6.776   3.517 -0.0020 -0.0891 -0.3794
 1771THY    CA244254   1.213   6.840   3.633 -0.0598 -0.1396 -0.6721
 1771THY    CP144255   1.182   6.763   3.757 -0.3720  0.3916 -0.5759
 1771THY    HP144256   1.161   6.658   3.737  0.0657 -0.3990  2.5789
 1771THY    CP244257   1.309   6.756   3.848  0.0161 -0.3324 -0.3650
 1771THY    HP244258   1.352   6.849   3.887  1.6334 -2.2834  2.9253
 1771THY    HP344259   1.266   6.697   3.929 -0.3592  0.6641  0.1804
 1771THY    HP444260   1.397   6.708   3.802  0.8614  0.8268 -0.0128
 1771THY    CP344261   1.048   6.811   3.830 -0.1855  0.9496  0.4988
 1771THY    HP544262   0.960   6.796   3.766 -0.4779  1.4956  0.7710
 1771THY    HP644263   1.034   6.748   3.920 -1.3706 -1.2388 -1.0957
 1771THY    HP744264   1.057   6.914   3.864  0.8697  0.1664  2.8466
 1771THY    CA344265   1.202   6.984   3.638  0.3105  0.1908 -0.4629
 1771THY    HA344266   1.182   7.034   3.732 -0.3485  0.0234 -0.5032
 1771THY    CA444267   1.222   7.050   3.518 -0.0406 -0.1905 -0.9765
 1771THY    HA444268   1.222   7.159   3.524  2.3631  0.0215 -2.9729
 1771THY    CA544269   1.271   6.989   3.409  0.2794 -0.4017  0.6064
 1771THY    CM144270   1.304   7.070   3.287  0.1228  0.0521  0.1205
 1771THY    HM144271   1.222   7.059   3.215  0.8157 -1.4940 -0.4728
 1771THY    HM244272   1.338   7.167   3.324  1.0700 -0.9495  2.0542
 1771THY    HM344273   1.393   7.041   3.230 -2.1583 -0.7833 -3.2765
 1771THY    CA644274   1.288   6.849   3.406  0.2955  0.3819  0.7140
 1771THY    HA644275   1.310   6.804   3.309 -0.8715  1.7023 -0.2050
 1772THY      O44276   5.780   4.939   4.993  0.6657 -0.2169 -0.4737
 1772THY     HO44277   5.858   4.887   5.018  0.1263 -0.4803  0.7296
 1772THY    CA144278   5.679   4.848   5.003  1.4842 -0.8864  0.0824
 1772THY    CA244279   5.542   4.885   4.972 -0.2120 -0.0629 -0.6065
 1772THY    CP144280   5.495   5.033   4.945 -0.7604  0.2216 -0.1988
 1772THY    HP144281   5.574   5.108   4.960 -0.2647 -0.3688  0.2320
 1772THY    CP244282   5.441   5.054   4.804  0.3081 -0.3904  0.1593
 1772THY    HP244283   5.452   5.156   4.766  0.7036 -0.9420 -1.2875
 1772THY    HP344284   5.504   5.003   4.730 -1.2225 -0.3757 -1.2146
 1772THY    HP444285   5.344   5.014   4.772  2.6559 -3.7358 -3.7395
 1772THY    CP344286   5.388   5.072   5.034 -0.1268 -0.7178 -0.0922
 1772THY    HP544287   5.420   5.056   5.137 -0.1656  0.6775  0.1559
 1772THY    HP644288   5.355   5.176   5.023 -0.8586 -0.9511 -0.1580
 1772THY    HP744289   5.295   5.018   5.017 -0.7696  0.1280  0.6378
 1772THY    CA344290   5.448   4.779   4.962  0.7825  0.2013 -0.1434
 1772THY    HA344291   5.343   4.799   4.943  0.4609  1.0524  2.2816
 1772THY    CA444292   5.490   4.650   4.992 -0.0880 -0.0840 -0.1086
 1772THY    HA444293   5.418   4.569   4.994  0.5814 -0.7008  2.0796
 1772THY    CA544294   5.622   4.615   5.022 -0.1916  0.1767 -0.2217
 1772THY    CM144295   5.653   4.470   5.055  0.1375  0.2081 -0.0690
 1772THY    HM144296   5.664   4.408   4.965 -1.9963  0.7053 -0.7388
 1772THY    HM244297   5.741   4.466   5.119  1.0701 -0.1376 -1.3264
 1772THY    HM344298   5.566   4.427   5.106 -1.5237  3.0887 -0.2341
 1772THY    CA644299   5.717   4.721   5.025 -0.1134  0.2540  0.2273
 1772THY    HA644300   5.820   4.705   5.055  0.8530  0.8768 -2.4370
 1773THY      O44301   3.943   0.283   3.494  0.0361 -0.4680  0.2268
 1773THY     HO44302   4.040   0.290   3.491  0.1250 -1.2130  0.9460
 1773THY    CA144303   3.914   0.337   3.622  0.9965 -0.0798  0.0826
 1773THY    CA244304   3.786   0.322   3.688 -0.4767 -0.0399 -0.3805
 1773THY    CP144305   3.671   0.262   3.608  0.1501  0.8452  0.1153
 1773THY    HP144306   3.713   0.199   3.528  1.4868  1.0952  0.5841
 1773THY    CP244307   3.575   0.168   3.690  0.2781  0.3649  0.5338
 1773THY    HP244308   3.512   0.222   3.761  1.8656  0.2752  2.0875
 1773THY    HP344309   3.514   0.103   3.626 -1.3905  1.1665  1.2674
 1773THY    HP444310   3.623   0.099   3.760  0.2662 -0.7595 -0.5415
 1773THY    CP344311   3.592   0.374   3.531  0.7829  0.0271 -0.7604
 1773THY    HP544312   3.669   0.448   3.508 -0.2688  2.1012  1.8831
 1773THY    HP644313   3.545   0.344   3.437  0.3398  0.6928 -0.7556
 1773THY    HP744314   3.527   0.423   3.605  1.9952  1.1342 -0.4093
 1773THY    CA344315   3.775   0.373   3.818  0.5739  0.2462 -0.3967
 1773THY    HA344316   3.682   0.371   3.874 -0.1168  0.5644 -1.5095
 1773THY    CA444317   3.879   0.440   3.879 -0.3105  0.0169  0.3173
 1773THY    HA444318   3.871   0.478   3.981 -1.7550 -0.0281  0.2429
 1773THY    CA544319   4.004   0.447   3.820 -0.4110  0.5096  0.2554
 1773THY    CM144320   4.114   0.525   3.879 -0.6940 -0.2466  0.0325
 1773THY    HM144321   4.170   0.584   3.805 -0.8255 -0.9192 -0.6126
 1773THY    HM244322   4.082   0.597   3.955 -0.1821 -0.0970  0.1089
 1773THY    HM344323   4.189   0.455   3.918  0.6963 -0.4911 -2.7645
 1773THY    CA644324   4.016   0.400   3.690 -0.3050 -0.4639  0.1081
 1773THY    HA644325   4.110   0.421   3.640 -0.4836  0.3117  0.0871
 1774THY      O44326   8.386   3.612   0.384 -0.2761 -0.2018  0.1808
 1774THY     HO44327   8.365   3.519   0.405 -0.6286 -0.1242  0.1780
 1774THY    CA144328   8.500   3.602   0.317  0.3106 -0.1965 -0.3533
 1774THY    CA244329   8.562   3.716   0.261  0.4121 -0.4184  0.5018
 1774THY    CP144330   8.494   3.853   0.261  0.5508  0.8886  0.6559
 1774THY    HP144331   8.404   3.844   0.323 -1.5967 -0.9663 -2.4331
 1774THY    CP244332   8.591   3.964   0.307 -0.2296 -0.4176  0.2382
 1774THY    HP244333   8.680   3.989   0.248 -0.5765  1.0748  0.3052
 1774THY    HP344334   8.544   4.063   0.295  0.9781 -0.0879 -2.7696
 1774THY    HP444335   8.627   3.967   0.410 -1.0221  1.5764  0.5171
 1774THY    CP344336   8.437   3.895   0.114  0.2644  1.2990  0.2326
 1774THY    HP544337   8.359   3.969   0.131  1.4894  2.4412  1.0442
 1774THY    HP644338   8.515   3.930   0.045  0.9577 -2.2795 -1.0491
 1774THY    HP744339   8.399   3.802   0.069  2.7156 -1.6130  3.6249
 1774THY    CA344340   8.694   3.703   0.219 -0.8358  0.0814 -0.3346
 1774THY    HA344341   8.751   3.788   0.182  0.0186 -0.4315 -0.2192
 1774THY    CA444342   8.765   3.585   0.223  0.0053  0.2851  0.1386
 1774THY    HA444343   8.867   3.576   0.186 -0.7399 -0.0988 -1.9805
 1774THY    CA544344   8.693   3.469   0.267 -0.1528  0.5191  0.1023
 1774THY    CM144345   8.756   3.337   0.266 -0.1284  0.2608  0.4397
 1774THY    HM144346   8.705   3.262   0.328  1.6386 -0.3636  1.2151
 1774THY    HM244347   8.787   3.296   0.170  0.2663 -0.7838  0.9927
 1774THY    HM344348   8.855   3.358   0.310  0.4423  1.4205 -1.2943
 1774THY    CA644349   8.566   3.478   0.325  0.1057 -0.4036 -0.4243
 1774THY    HA644350   8.518   3.388   0.364  2.9820 -1.0797  1.9554
 1775THY      O44351   1.642   9.050   9.301 -0.2851  0.2475  0.3388
 1775THY     HO44352   1.728   9.005   9.292  1.2957  3.2697 -1.3313
 1775THY    CA144353   1.589   9.021   9.424  0.2226 -0.0539 -0.1846
 1775THY    CA244354   1.463   9.063   9.477  0.1249 -0.0106  0.1668
 1775THY    CP144355   1.362   9.136   9.377  0.1438 -0.6065 -0.2199
 1775THY    HP144356   1.420   9.194   9.305 -0.2723  1.2231  0.8456
 1775THY    CP244357   1.267   9.035   9.313  0.0870 -0.0870  0.1048
 1775THY    HP244358   1.324   8.948   9.279  1.4255  1.4466 -1.8010
 1775THY    HP344359   1.201   8.990   9.388 -1.2747 -2.4811 -2.3720
 1775THY    HP444360   1.209   9.073   9.228  1.7231 -0.0577 -1.0580
 1775THY    CP344361   1.276   9.250   9.449 -0.2845 -0.6611  0.3536
 1775THY    HP544362   1.344   9.319   9.501  0.9182 -0.4470 -1.4000
 1775THY    HP644363   1.208   9.297   9.377  0.4735  1.0329  0.6907
 1775THY    HP744364   1.221   9.203   9.532  1.4157 -0.3795  1.7115
 1775THY    CA344365   1.410   9.013   9.591 -0.1449 -0.2306 -0.5914
 1775THY    HA344366   1.306   9.027   9.617  0.0223 -1.2619  0.6981
 1775THY    CA444367   1.496   8.939   9.673  0.1443  0.3134  0.5430
 1775THY    HA444368   1.471   8.889   9.766 -0.2520 -1.2605 -0.3619
 1775THY    CA544369   1.625   8.904   9.635  0.1759  0.2749  0.3494
 1775THY    CM144370   1.704   8.815   9.729 -0.1580 -0.0934  0.9318
 1775THY    HM144371   1.731   8.878   9.815  0.7735  0.4097  0.2923
 1775THY    HM244372   1.653   8.721   9.753 -0.3330  0.0542  1.1557
 1775THY    HM344373   1.799   8.790   9.679 -0.1982  0.6532  0.4735
 1775THY    CA644374   1.673   8.948   9.513  0.5179  0.5745 -0.6949
 1775THY    HA644375   1.777   8.919   9.498  1.1122  0.8499  2.2863
 1776THY      O44376   7.099   6.134   0.809 -0.7170 -0.3087  0.2208
 1776THY     HO44377   7.112   6.196   0.883  0.4498  1.0541 -1.0631
 1776THY    CA144378   7.047   6.019   0.855 -0.3037 -0.1317  0.0638
 1776THY    CA244379   7.021   5.913   0.763 -0.7041 -0.2252  0.2800
 1776THY    CP144380   7.075   5.923   0.620 -0.2775  0.9458 -0.2172
 1776THY    HP144381   7.122   6.018   0.593  0.1301  0.6006 -0.7702
 1776THY    CP244382   7.185   5.815   0.593 -0.0911  0.2072  0.2391
 1776THY    HP244383   7.224   5.820   0.491 -3.7013  1.4351 -1.2113
 1776THY    HP344384   7.263   5.836   0.667 -1.4380  0.9292  1.4944
 1776THY    HP444385   7.150   5.712   0.603 -1.0570  0.5977  1.0282
 1776THY    CP344386   6.957   5.904   0.517 -1.3964  0.2192  0.1072
 1776THY    HP544387   6.919   5.801   0.512  0.6197 -0.5640 -0.0030
 1776THY    HP644388   6.874   5.968   0.549 -0.3877  1.4300  0.3890
 1776THY    HP744389   6.987   5.939   0.417 -2.6681  2.0126  0.2979
 1776THY    CA344390   6.952   5.802   0.812 -0.0286  0.0380  0.0549
 1776THY    HA344391   6.933   5.716   0.749 -0.0901 -0.3767  0.6291
 1776THY    CA444392   6.894   5.815   0.940 -0.1106 -0.4095  0.3573
 1776THY    HA444393   6.827   5.741   0.983 -2.8380  0.9569 -1.2813
 1776THY    CA544394   6.935   5.913   1.029  0.2439  0.9542 -0.1045
 1776THY    CM144395   6.901   5.896   1.173 -0.3592  0.3531 -0.9956
 1776THY    HM144396   6.980   5.834   1.216 -2.2147 -1.4684 -0.0669
 1776THY    HM244397   6.888   5.989   1.230 -2.0675 -0.8053  0.6269
 1776THY    HM344398   6.808   5.842   1.193 -0.0320  0.9204  2.8971
 1776THY    CA644399   7.011   6.018   0.990 -0.3013 -0.1200 -0.1442
 1776THY    HA644400   7.033   6.101   1.056 -1.0449  0.0265 -0.0743
 1777THY      O44401   6.345   2.619   1.541 -0.6665  0.1518 -0.1869
 1777THY     HO44402   6.378   2.547   1.597 -1.0305  0.1370  0.0072
 1777THY    CA144403   6.451   2.700   1.515 -0.3514 -0.3632  1.0910
 1777THY    CA244404   6.443   2.828   1.455  0.4757  0.2399 -1.0785
 1777THY    CP144405   6.309   2.893   1.425 -0.6746  0.7252  0.0546
 1777THY    HP144406   6.237   2.811   1.428  0.3188 -0.1560  0.4527
 1777THY    CP244407   6.272   2.995   1.540  0.1710 -1.1467 -0.4830
 1777THY    HP244408   6.286   2.955   1.641 -2.8422 -3.3647 -0.8027
 1777THY    HP344409   6.345   3.076   1.525 -0.3592 -0.8457 -1.5820
 1777THY    HP444410   6.170   3.035   1.527  0.1683 -1.7806 -3.0419
 1777THY    CP344411   6.307   2.952   1.286 -0.0939 -0.5771 -0.3877
 1777THY    HP544412   6.203   2.982   1.272  0.3130  2.7979  2.4316
 1777THY    HP644413   6.377   3.036   1.285  1.2307 -1.6369 -1.5849
 1777THY    HP744414   6.338   2.879   1.211  1.1523 -0.8284  0.3353
 1777THY    CA344415   6.571   2.890   1.427  0.3614 -0.3822 -0.3468
 1777THY    HA344416   6.575   2.987   1.378  1.1614 -0.4453 -0.4141
 1777THY    CA444417   6.690   2.835   1.467 -0.3617  0.3768  0.3386
 1777THY    HA444418   6.784   2.887   1.448  0.8252 -1.0035  2.1165
 1777THY    CA544419   6.687   2.717   1.537  0.1171  0.3491 -0.0181
 1777THY    CM144420   6.827   2.660   1.569 -0.2164  0.9102 -0.0339
 1777THY    HM144421   6.826   2.651   1.678  1.5740  2.0515  0.1047
 1777THY    HM244422   6.840   2.560   1.527  3.0371  0.7588  1.1007
 1777THY    HM344423   6.893   2.741   1.536 -0.0428  0.5137 -0.6940
 1777THY    CA644424   6.571   2.646   1.554  0.3655  0.5461 -0.3431
 1777THY    HA644425   6.580   2.548   1.601  1.9504  1.7070  1.9213
 1778THY      O44426   6.409   2.817   4.365 -0.1353 -0.1961  0.1763
 1778THY     HO44427   6.362   2.798   4.282  2.0426 -0.0721 -1.1666
 1778THY    CA144428   6.523   2.741   4.339  0.0362  0.1603 -0.5704
 1778THY    CA244429   6.578   2.662   4.438  0.1172 -0.4254 -0.0293
 1778THY    CP144430   6.521   2.663   4.579 -0.0190 -0.1433 -0.2022
 1778THY    HP144431   6.437   2.733   4.592  0.9397  1.1029 -0.4337
 1778THY    CP244432   6.467   2.521   4.597  0.2667  0.2086 -0.1811
 1778THY    HP244433   6.545   2.445   4.580  0.2711  0.2241 -0.2338
 1778THY    HP344434   6.430   2.504   4.699  1.6744 -0.1281  0.2963
 1778THY    HP444435   6.395   2.478   4.526  1.3615 -3.1527  0.5375
 1778THY    CP344436   6.620   2.684   4.693 -0.0158  0.3887  0.3980
 1778THY    HP544437   6.569   2.664   4.788  0.9951  1.4296  1.1925
 1778THY    HP644438   6.696   2.606   4.685  0.4348  0.9434 -1.3945
 1778THY    HP744439   6.667   2.783   4.687 -0.2569  0.5922  1.7043
 1778THY    CA344440   6.681   2.576   4.400 -0.0822 -0.0235 -0.2163
 1778THY    HA344441   6.727   2.509   4.472 -0.0905  1.7900  1.5958
 1778THY    CA444442   6.728   2.573   4.271  0.0412  0.8688  0.4281
 1778THY    HA444443   6.817   2.516   4.248  0.4320  2.1149 -1.3840
 1778THY    CA544444   6.664   2.650   4.172 -0.9445 -0.2216 -0.0157
 1778THY    CM144445   6.727   2.642   4.034 -0.8950  0.0799 -0.7486
 1778THY    HM144446   6.743   2.742   3.993  1.1988  1.5413  3.1382
 1778THY    HM244447   6.822   2.587   4.033 -0.7675  0.3006 -1.5056
 1778THY    HM344448   6.668   2.578   3.966  2.0874 -0.9692 -2.5657
 1778THY    CA644449   6.564   2.740   4.204 -0.2673  0.6463 -0.3886
 1778THY    HA644450   6.519   2.805   4.129  2.1732 -0.8425 -3.3686
 1779THY      O44451   3.634   1.037   6.798  0.4948 -0.3693 -0.2996
 1779THY     HO44452   3.700   1.024   6.868  0.3776  2.5415  0.4313
 1779THY    CA144453   3.527   1.099   6.856 -0.7203  0.6148  0.0637
 1779THY    CA244454   3.417   1.130   6.774 -0.0846  0.5088  0.7426
 1779THY    CP144455   3.423   1.082   6.624  0.0914 -0.5222  0.4313
 1779THY    HP144456   3.472   0.984   6.620  1.6012  0.2319 -0.0973
 1779THY    CP244457   3.287   1.062   6.550  0.0511 -0.2177 -1.6761
 1779THY    HP244458   3.298   1.013   6.452  0.5068 -1.9179 -0.8097
 1779THY    HP344459   3.229   0.991   6.610 -0.1665  1.0986 -0.2802
 1779THY    HP444460   3.235   1.157   6.532 -1.0891 -0.7208 -1.1988
 1779THY    CP344461   3.503   1.171   6.533  0.7669  0.2767 -0.1746
 1779THY    HP544462   3.610   1.161   6.554  0.7569 -3.5859 -1.3810
 1779THY    HP644463   3.487   1.142   6.429 -1.5864  0.4002  0.0905
 1779THY    HP744464   3.461   1.270   6.555 -2.1462  0.2060 -4.3103
 1779THY    CA344465   3.307   1.197   6.826 -0.0533 -0.1806  0.3839
 1779THY    HA344466   3.219   1.218   6.765 -0.6647 -1.1281  0.9134
 1779THY    CA444467   3.299   1.223   6.965 -0.1183  0.2138  0.0039
 1779THY    HA444468   3.210   1.270   7.006 -1.1592 -2.8293  1.5222
 1779THY    CA544469   3.407   1.181   7.048  0.1616  0.1003 -0.7287
 1779THY    CM144470   3.410   1.193   7.197  0.0553 -0.4070 -0.2024
 1779THY    HM144471   3.507   1.178   7.246  1.1959  2.8222 -1.2000
 1779THY    HM244472   3.359   1.283   7.232 -0.8128 -1.0158  0.1267
 1779THY    HM344473   3.342   1.115   7.233 -0.6534  1.2367  2.3067
 1779THY    CA644474   3.521   1.124   6.987  0.1121 -0.2170 -0.1847
 1779THY    HA644475   3.603   1.086   7.047  1.1681 -1.0522 -2.0562
 1780THY      O44476   6.123   7.100   6.733 -0.4169 -0.6972 -0.2246
 1780THY     HO44477   6.043   7.132   6.779 -1.2890 -4.8213  1.5061
 1780THY    CA144478   6.146   7.198   6.637 -0.4851  0.6482 -1.0147
 1780THY    CA244479   6.224   7.169   6.523 -0.2740  0.0942  0.0085
 1780THY    CP144480   6.297   7.041   6.512 -0.7725  0.2236  0.1444
 1780THY    HP144481   6.314   6.997   6.611 -0.6105 -0.0179  0.0104
 1780THY    CP244482   6.222   6.935   6.429 -0.4035  0.1827 -0.1647
 1780THY    HP244483   6.133   6.906   6.486  2.0909 -3.1908  2.4788
 1780THY    HP344484   6.195   6.968   6.328 -0.0438 -2.0654 -1.0564
 1780THY    HP444485   6.273   6.838   6.422 -0.2800  0.1663  0.8161
 1780THY    CP344486   6.443   7.062   6.467 -0.9351  0.2504  0.1304
 1780THY    HP544487   6.475   7.157   6.510 -1.5777  0.5987 -0.1443
 1780THY    HP644488   6.512   6.980   6.490  0.1576  0.6069 -1.6357
 1780THY    HP744489   6.452   7.069   6.358  1.6246  0.8691  0.3270
 1780THY    CA344490   6.225   7.271   6.425  0.6064 -0.2446  0.7320
 1780THY    HA344491   6.278   7.255   6.332 -0.8074  1.7353 -0.4938
 1780THY    CA444492   6.136   7.385   6.438  0.1814  0.8489 -0.2557
 1780THY    HA444493   6.128   7.451   6.352 -0.5760  0.6609 -0.3328
 1780THY    CA544494   6.055   7.403   6.551  0.2387 -0.6352 -0.0326
 1780THY    CM144495   5.970   7.521   6.558  0.2254  0.1244  0.5710
 1780THY    HM144496   6.028   7.613   6.566 -0.7664  0.7234  1.0983
 1780THY    HM244497   5.900   7.525   6.474 -0.0862 -0.1603  0.8136
 1780THY    HM344498   5.911   7.521   6.650 -1.6362  1.9700 -0.5206
 1780THY    CA644499   6.065   7.309   6.648  0.4545  0.3694 -0.4652
 1780THY    HA644500   6.019   7.330   6.743 -2.4575  1.4373 -1.9978
 1781THY      O44501   9.021   3.434   7.661  0.2450 -0.2434 -0.0488
 1781THY     HO44502   8.936   3.477   7.641 -0.2607 -1.8297 -1.6821
 1781THY    CA144503   9.065   3.507   7.766 -0.0740  0.1456 -0.6290
 1781THY    CA244504   9.156   3.454   7.868  0.5212  0.6040  0.6158
 1781THY    CP144505   9.181   3.302   7.870 -0.1917  0.9493  0.2033
 1781THY    HP144506   9.110   3.244   7.810  0.7827 -1.6407  1.3605
 1781THY    CP244507   9.317   3.272   7.810 -0.1019  0.4099  0.4884
 1781THY    HP244508   9.391   3.322   7.873  0.8926 -0.2854 -0.0882
 1781THY    HP344509   9.342   3.166   7.823 -2.7406 -0.3831 -0.2733
 1781THY    HP444510   9.326   3.305   7.706  0.1828  1.5468  0.8604
 1781THY    CP344511   9.157   3.236   8.005  0.5338 -0.3441  0.2431
 1781THY    HP544512   9.054   3.262   8.034 -0.0968  0.2100 -2.2270
 1781THY    HP644513   9.172   3.127   8.008  0.9170 -0.2778  1.0245
 1781THY    HP744514   9.225   3.269   8.084  0.4506 -2.1942  1.1636
 1781THY    CA344515   9.218   3.544   7.955  0.2904 -0.7752 -0.2466
 1781THY    HA344516   9.294   3.521   8.029  1.1533  1.9005 -0.1980
 1781THY    CA444517   9.179   3.680   7.951 -0.1579  0.9175 -0.3187
 1781THY    HA444518   9.221   3.743   8.029  1.1913 -0.7201  0.3346
 1781THY    CA544519   9.091   3.725   7.855  0.3276 -0.2161  0.0114
 1781THY    CM144520   9.060   3.870   7.849  0.3534 -0.1139 -0.4777
 1781THY    HM144521   9.147   3.933   7.871 -0.5276  1.2062 -0.6353
 1781THY    HM244522   9.020   3.898   7.751  0.8370 -1.2028 -1.0088
 1781THY    HM344523   8.982   3.895   7.922 -0.2775 -0.6362 -0.9556
 1781THY    CA644524   9.040   3.644   7.759  0.1806 -0.4119 -0.2267
 1781THY    HA644525   8.968   3.685   7.689 -1.1113 -0.0505  1.2495
 1782THY      O44526   1.037   5.022   7.870 -0.5069 -0.2333 -0.5398
 1782THY     HO44527   1.108   4.995   7.810 -0.5892 -0.0243 -0.7367
 1782THY    CA144528   0.939   4.936   7.838  0.0691  0.9210  0.0610
 1782THY    CA244529   0.814   4.925   7.913  0.0659 -0.0419  0.1586
 1782THY    CP144530   0.778   5.023   8.025 -0.6816  0.8131  0.3940
 1782THY    HP144531   0.854   5.102   8.036 -1.3169  1.8917 -2.2144
 1782THY    CP244532   0.660   5.106   7.992 -0.2388  0.2022  0.1821
 1782THY    HP244533   0.645   5.186   8.066 -0.8158  0.5201 -0.2624
 1782THY    HP344534   0.676   5.169   7.904 -0.0044  0.5824  0.4947
 1782THY    HP444535   0.566   5.052   7.973 -1.4505  2.5836 -1.0798
 1782THY    CP344536   0.764   4.958   8.160  0.1726  0.1992 -0.3967
 1782THY    HP544537   0.841   4.883   8.183  0.7930  0.3178 -2.0000
 1782THY    HP644538   0.770   5.023   8.248 -1.5313 -0.0450 -0.0585
 1782THY    HP744539   0.665   4.911   8.164  0.9624 -1.4978  0.5624
 1782THY    CA344540   0.723   4.822   7.876 -0.9289  0.2345  0.2370
 1782THY    HA344541   0.634   4.818   7.939 -0.5594 -0.2472  0.7389
 1782THY    CA444542   0.757   4.736   7.770 -0.1816  0.2615 -0.3856
 1782THY    HA444543   0.697   4.650   7.742 -0.6138  1.0381 -1.9829
 1782THY    CA544544   0.879   4.731   7.704  0.0097 -0.3636 -0.4082
 1782THY    CM144545   0.919   4.627   7.607 -0.0855  0.4725  0.0469
 1782THY    HM144546   0.985   4.672   7.532  2.5578  0.0333  1.9799
 1782THY    HM244547   0.975   4.545   7.653 -3.4135 -1.2768  1.3184
 1782THY    HM344548   0.835   4.570   7.566 -0.4587  2.0561 -1.5083
 1782THY    CA644549   0.968   4.837   7.741 -0.5442 -0.0183 -0.0987
 1782THY    HA644550   1.064   4.834   7.692 -0.8033 -2.6417 -0.5725
 1783THY      O44551   6.148   7.285   8.111 -0.3016  0.4700 -0.1022
 1783THY     HO44552   6.213   7.215   8.127 -0.8699 -0.2418 -0.8220
 1783THY    CA144553   6.155   7.377   8.215 -0.1141  0.8228 -0.3508
 1783THY    CA244554   6.084   7.501   8.202 -0.7432 -0.6145 -0.1315
 1783THY    CP144555   5.994   7.524   8.086 -0.0927 -0.7430  0.3651
 1783THY    HP144556   5.996   7.438   8.019 -0.4270 -0.2766 -0.2572
 1783THY    CP244557   5.851   7.537   8.136  0.6101  0.3604 -0.1341
 1783THY    HP244558   5.816   7.632   8.177 -0.2644  0.5192 -1.2092
 1783THY    HP344559   5.779   7.516   8.056 -0.8943  2.5082  0.5864
 1783THY    HP444560   5.827   7.453   8.203 -0.8344  0.0789 -0.9680
 1783THY    CP344561   6.039   7.651   8.000  0.3765  0.5174  0.8392
 1783THY    HP544562   6.139   7.635   7.958  0.3798 -1.9944  1.6530
 1783THY    HP644563   5.975   7.664   7.912  2.0813  1.7141 -0.2658
 1783THY    HP744564   6.025   7.745   8.056 -0.0930  1.2160 -0.4181
 1783THY    CA344565   6.104   7.600   8.306  0.4727 -0.2317 -0.6370
 1783THY    HA344566   6.070   7.703   8.299  0.8314  0.0052  0.8614
 1783THY    CA444567   6.182   7.565   8.419  0.1647 -0.6570 -0.4979
 1783THY    HA444568   6.196   7.638   8.498 -2.4226 -1.7295  1.0912
 1783THY    CA544569   6.247   7.442   8.427  0.3888  0.1231  0.2875
 1783THY    CM144570   6.334   7.411   8.539  0.4747 -0.0380  0.0219
 1783THY    HM144571   6.295   7.334   8.607  0.6068 -1.8503 -1.8592
 1783THY    HM244572   6.425   7.356   8.510  0.9321 -1.9100  4.2075
 1783THY    HM344573   6.361   7.490   8.610  1.0029  0.8654 -1.1541
 1783THY    CA644574   6.225   7.342   8.329  0.5545 -0.2902  0.4929
 1783THY    HA644575   6.271   7.244   8.340  0.6481 -0.5689 -1.9750
 1784THY      O44576   9.606   5.666   1.152  0.6182 -0.5866 -0.3412
 1784THY     HO44577   9.515   5.634   1.140  0.7523 -0.3219 -2.2898
 1784THY    CA144578   9.604   5.732   1.275 -0.3925 -0.3465  0.0017
 1784THY    CA244579   9.717   5.788   1.341 -0.3263  0.0663  0.4901
 1784THY    CP144580   9.853   5.793   1.278 -0.4821  0.0279 -0.2762
 1784THY    HP144581   9.848   5.747   1.178  0.6661  0.5752 -0.6069
 1784THY    CP244582   9.899   5.938   1.272  0.5351 -0.1978 -0.5126
 1784THY    HP244583   9.816   5.996   1.231 -1.3496 -2.1285  0.3748
 1784THY    HP344584   9.925   5.976   1.372 -0.6435 -1.6349  0.3942
 1784THY    HP444585   9.983   5.954   1.203  1.8259  0.6751  1.1826
 1784THY    CP344586   9.972   5.718   1.348 -0.2087  0.0992 -0.4217
 1784THY    HP544587   9.977   5.757   1.450 -1.6159  2.5660 -1.2298
 1784THY    HP644588   9.945   5.611   1.351 -1.5390  0.4363  1.3188
 1784THY    HP744589  10.069   5.722   1.297  0.5400 -0.6994  0.8760
 1784THY    CA344590   9.711   5.832   1.474  0.0935 -0.1424  0.2678
 1784THY    HA344591   9.797   5.871   1.527 -0.6756  0.2770  1.2411
 1784THY    CA444592   9.591   5.813   1.542 -0.0016  0.0369 -0.2982
 1784THY    HA444593   9.584   5.839   1.647  1.1204  2.2158 -0.7083
 1784THY    CA544594   9.490   5.746   1.486 -0.3995 -0.3410 -0.2742
 1784THY    CM144595   9.372   5.717   1.577  0.1030 -0.1525  0.7867
 1784THY    HM144596   9.378   5.774   1.671 -1.2815 -0.1057  0.8711
 1784THY    HM244597   9.279   5.749   1.528 -0.9092  0.4262  2.9154
 1784THY    HM344598   9.374   5.609   1.596  0.9611 -0.1332  0.8428
 1784THY    CA644599   9.497   5.699   1.357  0.8060 -0.2701 -0.1657
 1784THY    HA644600   9.410   5.650   1.313  0.1284  1.8742 -1.3308
 1785THY      O44601   6.247   0.510   8.491 -0.7064 -0.2411 -0.1583
 1785THY     HO44602   6.162   0.476   8.457 -0.8774 -0.7272  0.7086
 1785THY    CA144603   6.226   0.612   8.583  0.0463 -0.1984  0.2483
 1785THY    CA244604   6.326   0.690   8.627  0.1872 -0.1892  0.1389
 1785THY    CP144605   6.472   0.656   8.593  0.2365 -0.1255 -0.3891
 1785THY    HP144606   6.469   0.642   8.484 -0.3764  1.3004 -0.5823
 1785THY    CP244607   6.566   0.776   8.615  0.2955 -0.2847 -0.1452
 1785THY    HP244608   6.664   0.750   8.575 -0.0262  1.4004 -2.2162
 1785THY    HP344609   6.531   0.859   8.552  0.8589  0.9347  1.0933
 1785THY    HP444610   6.579   0.799   8.722  1.1814  1.1325 -0.5214
 1785THY    CP344611   6.526   0.523   8.660  0.2161 -0.1434  0.2262
 1785THY    HP544612   6.531   0.526   8.769  1.6454  0.2202  0.1749
 1785THY    HP644613   6.462   0.435   8.643  1.4082 -1.2839  1.3870
 1785THY    HP744614   6.630   0.507   8.630  1.1025  1.8055  2.0296
 1785THY    CA344615   6.288   0.800   8.713  0.1923 -0.1946 -0.1633
 1785THY    HA344616   6.368   0.856   8.760 -0.3015 -0.4658  1.0306
 1785THY    CA444617   6.156   0.811   8.762  0.0604 -0.2379 -0.4242
 1785THY    HA444618   6.129   0.901   8.818 -2.5319 -0.0640 -1.7902
 1785THY    CA544619   6.061   0.720   8.713  0.1851  0.1839  1.1167
 1785THY    CM144620   5.920   0.739   8.736 -0.0254 -0.2051 -0.3572
 1785THY    HM144621   5.903   0.833   8.790  1.4335 -0.5649  0.7943
 1785THY    HM244622   5.856   0.739   8.647 -0.7862 -0.2007  0.1821
 1785THY    HM344623   5.896   0.652   8.798  0.8365  0.2352  0.6226
 1785THY    CA644624   6.095   0.619   8.623 -0.2601 -0.0576 -0.2078
 1785THY    HA644625   6.020   0.557   8.575 -1.1011  0.5291  0.3187
 1786THY      O44626   9.858   2.199   5.967 -0.4376 -0.0861 -0.1925
 1786THY     HO44627   9.897   2.198   5.878 -1.5907  2.6972 -0.8277
 1786THY    CA144628   9.930   2.116   6.054  0.0111  0.1401 -0.3308
 1786THY    CA244629   9.932   2.143   6.190 -0.9199  0.4753 -0.4041
 1786THY    CP144630   9.848   2.253   6.252 -0.3018  0.3242 -0.5674
 1786THY    HP144631   9.771   2.284   6.181 -0.2628 -0.7634 -1.1039
 1786THY    CP244632   9.778   2.220   6.386 -0.5882 -0.2363  0.3822
 1786THY    HP244633   9.700   2.147   6.361 -0.3866 -0.5449  0.6516
 1786THY    HP344634   9.843   2.205   6.473 -0.0748 -0.0527  0.0379
 1786THY    HP444635   9.725   2.315   6.400  1.9231  1.1081  1.4202
 1786THY    CP344636   9.942   2.369   6.268  0.2161  0.4216  0.3336
 1786THY    HP544637  10.038   2.346   6.316  0.0601  1.7653  1.3470
 1786THY    HP644638   9.965   2.416   6.172  0.0264  1.1070  0.6181
 1786THY    HP744639   9.882   2.449   6.314 -0.2097 -0.4163  1.2694
 1786THY    CA344640  10.025   2.072   6.278  0.1190  0.2970  0.6936
 1786THY    HA344641  10.036   2.100   6.382 -1.9025  2.3540  0.4327
 1786THY    CA444642  10.099   1.966   6.223 -0.2893  0.0582 -0.2722
 1786THY    HA444643  10.149   1.904   6.297  0.7064  0.8818 -0.2215
 1786THY    CA544644  10.083   1.926   6.089  0.1184 -0.1407  0.1538
 1786THY    CM144645  10.160   1.817   6.030  0.4703  0.8162 -1.2582
 1786THY    HM144646  10.266   1.842   6.043  1.2730 -3.2269  2.5108
 1786THY    HM244647  10.142   1.727   6.091 -1.7158  2.3869  0.5659
 1786THY    HM344648  10.135   1.799   5.925 -1.1247 -1.3590 -0.5751
 1786THY    CA644649  10.004   2.005   6.003 -0.1432  0.5179 -0.2386
 1786THY    HA644650   9.999   1.978   5.898 -0.2814 -0.1157 -0.0747
 1787THY      O44651   2.024   4.720   5.155  0.6119 -0.1856 -0.0932
 1787THY     HO44652   1.986   4.656   5.092  0.1388 -1.4932  1.4551
 1787THY    CA144653   1.938   4.721   5.266 -0.3270  0.1602  0.6797
 1787THY    CA244654   1.877   4.839   5.310 -0.4132  0.3533 -1.1792
 1787THY    CP144655   1.907   4.974   5.248  0.3866 -0.3695  0.2890
 1787THY    HP144656   1.975   4.971   5.162  1.0786  0.7923  0.7647
 1787THY    CP244657   1.773   5.036   5.188 -0.1571 -0.3031 -0.4308
 1787THY    HP244658   1.786   5.137   5.150  1.3805  0.1843  1.2430
 1787THY    HP344659   1.751   4.967   5.105  1.8864 -0.8320 -0.5769
 1787THY    HP444660   1.696   5.038   5.267  1.6520  0.3481  1.4116
 1787THY    CP344661   1.955   5.072   5.354 -0.2013 -0.2574 -0.4798
 1787THY    HP544662   1.880   5.083   5.433  2.0765 -2.4838  2.2538
 1787THY    HP644663   2.047   5.036   5.403  0.3137  0.1229 -1.1513
 1787THY    HP744664   1.979   5.166   5.304  0.9710  0.1267  0.7267
 1787THY    CA344665   1.791   4.826   5.424 -0.7584  0.1103  0.0584
 1787THY    HA344666   1.746   4.913   5.470 -1.1384 -0.1137  0.1172
 1787THY    CA444667   1.772   4.704   5.489  0.7513 -1.1236  0.2296
 1787THY    HA444668   1.710   4.690   5.576 -0.2088 -1.5822 -0.5037
 1787THY    CA544669   1.828   4.591   5.432  0.1406 -0.0923 -0.4314
 1787THY    CM144670   1.803   4.466   5.507  0.0869  0.0827  0.3962
 1787THY    HM144671   1.700   4.466   5.543  0.2831  0.6221  0.9758
 1787THY    HM244672   1.792   4.373   5.450 -0.3450  1.3823 -1.7649
 1787THY    HM344673   1.876   4.455   5.589 -0.3595  0.5378  0.8586
 1787THY    CA644674   1.908   4.596   5.320  0.4016  0.5110 -0.2771
 1787THY    HA644675   1.945   4.502   5.279 -1.0178  0.1926 -0.8922
 1788THY      O44676   5.209   2.150   7.435  0.4270 -0.2026  0.3520
 1788THY     HO44677   5.295   2.153   7.480  0.2966 -1.9534  0.8230
 1788THY    CA144678   5.132   2.262   7.463  0.6673 -0.3516  1.0095
 1788THY    CA244679   5.041   2.310   7.367  0.4025  0.2186 -0.0134
 1788THY    CP144680   5.039   2.247   7.226  0.4173  0.5670 -0.3563
 1788THY    HP144681   5.130   2.195   7.194 -0.2050 -1.3323  0.7951
 1788THY    CP244682   4.922   2.149   7.219  0.0140  1.1121  0.5930
 1788THY    HP244683   4.824   2.190   7.246 -2.0626 -1.6147 -2.1974
 1788THY    HP344684   4.897   2.113   7.119 -1.9052  0.9811  1.0853
 1788THY    HP444685   4.929   2.069   7.294 -1.0364  0.7063  0.2636
 1788THY    CP344686   5.013   2.358   7.114 -0.2245  0.2022 -0.0703
 1788THY    HP544687   5.085   2.440   7.120 -0.6632  0.9411 -3.0922
 1788THY    HP644688   5.035   2.320   7.014  1.2690  0.8493 -0.0121
 1788THY    HP744689   4.917   2.410   7.118  0.5168  1.5243  3.2315
 1788THY    CA344690   4.962   2.422   7.395  0.8300  0.0764  0.2495
 1788THY    HA344691   4.891   2.464   7.326  0.5385 -0.0492  0.4715
 1788THY    CA444692   4.972   2.486   7.524  0.3787  0.7917  0.4388
 1788THY    HA444693   4.902   2.562   7.557  0.3881  0.8512  0.3216
 1788THY    CA544694   5.066   2.433   7.615  0.3909  0.0576 -0.0004
 1788THY    CM144695   5.084   2.495   7.751 -0.6715 -0.0344 -0.5240
 1788THY    HM144696   5.191   2.508   7.771 -0.5285 -1.5771 -0.1126
 1788THY    HM244697   5.027   2.588   7.762  1.7567  1.4928  0.0825
 1788THY    HM344698   5.046   2.419   7.820  2.0305 -1.6801 -0.7112
 1788THY    CA644699   5.146   2.326   7.583  0.4821 -0.3954 -0.1231
 1788THY    HA644700   5.200   2.280   7.666  0.2042 -2.4441 -1.0068
 1789THY      O44701   6.144   3.536   1.924 -0.0764 -0.5844  0.4091
 1789THY     HO44702   6.081   3.498   1.861 -0.1615  1.2442 -0.6740
 1789THY    CA144703   6.091   3.496   2.037 -0.1363 -0.5422 -0.3260
 1789THY    CA244704   6.126   3.561   2.160  0.2292  0.6774 -0.2444
 1789THY    CP144705   6.247   3.659   2.164  0.2366  1.0948  0.3959
 1789THY    HP144706   6.309   3.652   2.074 -0.9273  1.5384 -0.4572
 1789THY    CP244707   6.212   3.802   2.172 -0.4444 -0.0221 -0.4949
 1789THY    HP244708   6.159   3.839   2.083  2.3181  5.2193 -0.3269
 1789THY    HP344709   6.153   3.819   2.263  2.1732  1.8073  0.9697
 1789THY    HP444710   6.302   3.865   2.174  1.1512 -2.2157  0.5270
 1789THY    CP344711   6.332   3.626   2.290 -0.1516  0.5680  0.3113
 1789THY    HP544712   6.412   3.698   2.307  0.7874 -0.7284  1.5992
 1789THY    HP644713   6.282   3.637   2.386  0.5947 -0.4041  0.8286
 1789THY    HP744714   6.364   3.522   2.280  0.4654  0.9356 -2.3595
 1789THY    CA344715   6.058   3.513   2.277  0.5853  0.2164 -0.8270
 1789THY    HA344716   6.090   3.558   2.370 -0.2642  2.6822 -1.6295
 1789THY    CA444717   5.956   3.420   2.267 -0.3185  0.0933  0.1932
 1789THY    HA444718   5.916   3.379   2.359 -0.1882 -0.9924 -0.2191
 1789THY    CA544719   5.912   3.367   2.140 -0.4288  0.0136  0.5106
 1789THY    CM144720   5.795   3.278   2.131  0.5260 -0.0187 -0.4335
 1789THY    HM144721   5.780   3.217   2.041  2.0086 -2.3558  0.8117
 1789THY    HM244722   5.782   3.204   2.210  2.0880  0.6820  0.5228
 1789THY    HM344723   5.700   3.332   2.133 -1.0781 -2.6442  2.1764
 1789THY    CA644724   5.984   3.403   2.027 -0.0713 -0.3220 -0.3399
 1789THY    HA644725   5.969   3.350   1.934  1.4013  0.7357 -1.2252
 1790THY      O44726   0.494   6.312   5.763  0.4247  0.3771 -0.3802
 1790THY     HO44727   0.585   6.282   5.780 -0.0288 -0.0771  1.3658
 1790THY    CA144728   0.492   6.450   5.778  0.2571  0.2174  0.1659
 1790THY    CA244729   0.374   6.527   5.760 -0.1033  0.1365 -0.9532
 1790THY    CP144730   0.245   6.451   5.734  0.8826 -0.6271  1.0303
 1790THY    HP144731   0.263   6.343   5.740  1.3536 -0.6932 -1.0002
 1790THY    CP244732   0.131   6.490   5.833  0.9568  0.0625 -0.3274
 1790THY    HP244733   0.162   6.489   5.938  1.1701 -0.3599 -0.3945
 1790THY    HP344734   0.101   6.594   5.816  2.0156  0.3973 -0.2578
 1790THY    HP444735   0.045   6.424   5.822  1.7956 -1.2167  0.5473
 1790THY    CP344736   0.199   6.473   5.588 -0.4424 -0.3540  0.1436
 1790THY    HP544737   0.161   6.575   5.575 -1.0561 -0.6517 -0.4878
 1790THY    HP644738   0.284   6.452   5.523 -0.4716 -1.2231  0.3712
 1790THY    HP744739   0.120   6.405   5.553 -0.1399  0.0612 -1.4399
 1790THY    CA344740   0.381   6.665   5.768  0.3825 -0.5500 -0.5188
 1790THY    HA344741   0.292   6.719   5.737  1.1249  0.0477 -1.6912
 1790THY    CA444742   0.501   6.730   5.805 -0.1075 -0.1860  0.0731
 1790THY    HA444743   0.504   6.838   5.794 -2.5990 -0.2358 -2.1351
 1790THY    CA544744   0.617   6.653   5.828 -0.0989  0.8109 -0.5161
 1790THY    CM144745   0.739   6.722   5.856  0.2265  0.2515 -0.3513
 1790THY    HM144746   0.820   6.666   5.808  0.4634 -0.3477  0.7285
 1790THY    HM244747   0.741   6.826   5.821 -0.9611 -0.1571 -1.7345
 1790THY    HM344748   0.748   6.728   5.965  0.0304 -2.7833 -0.0833
 1790THY    CA644749   0.614   6.512   5.820 -0.6530  0.5174  0.7953
 1790THY    HA644750   0.710   6.464   5.832  1.0946  3.5340 -0.0124
 1791THY      O44751   7.544   0.639   1.029  0.1344  0.4996 -0.2487
 1791THY     HO44752   7.480   0.671   1.095  1.5007 -1.1457  2.0355
 1791THY    CA144753   7.636   0.740   1.038  0.1681 -0.4485 -0.2766
 1791THY    CA244754   7.699   0.800   0.929  0.2228  0.8098 -0.4382
 1791THY    CP144755   7.644   0.764   0.792 -0.1801  0.6360  0.3197
 1791THY    HP144756   7.606   0.661   0.796 -0.2908  0.7101  2.6036
 1791THY    CP244757   7.517   0.848   0.744 -0.1098 -0.9838  0.2495
 1791THY    HP244758   7.464   0.817   0.653 -0.6370  0.3199  0.0951
 1791THY    HP344759   7.436   0.867   0.816 -0.6222  3.1216 -1.1619
 1791THY    HP444760   7.557   0.946   0.716  0.4437 -1.2084  0.2474
 1791THY    CP344761   7.739   0.768   0.677  0.1026  0.0776  0.1879
 1791THY    HP544762   7.702   0.717   0.587  1.4306  1.5193 -1.2317
 1791THY    HP644763   7.771   0.870   0.654  1.2236 -0.5919 -1.4863
 1791THY    HP744764   7.823   0.707   0.713 -1.5526 -1.1118  2.2646
 1791THY    CA344765   7.802   0.889   0.952  0.3195  0.0093  0.3722
 1791THY    HA344766   7.846   0.947   0.872 -1.5639 -2.1952 -2.4517
 1791THY    CA444767   7.836   0.923   1.083 -0.3507 -0.3888  0.3869
 1791THY    HA444768   7.905   1.005   1.100 -0.9787  0.4034 -0.7203
 1791THY    CA544769   7.774   0.863   1.194 -0.8112  0.0069  0.1970
 1791THY    CM144770   7.820   0.904   1.332  0.2066  0.4868 -0.4012
 1791THY    HM144771   7.792   1.008   1.349 -0.5039  0.2253  0.0643
 1791THY    HM244772   7.779   0.844   1.414 -0.1370 -0.1978 -1.0625
 1791THY    HM344773   7.929   0.893   1.333  0.2878  1.1452 -1.1605
 1791THY    CA644774   7.671   0.778   1.167  0.6505 -0.4810 -0.0661
 1791THY    HA644775   7.620   0.734   1.252 -0.3857  0.4449 -0.1847
 1792THY      O44776   7.016   1.973   4.117  0.6770  0.5957 -0.1732
 1792THY     HO44777   6.967   1.909   4.062  0.1937  0.1177  0.7831
 1792THY    CA144778   7.007   1.901   4.237 -0.0246 -0.3698  0.6198
 1792THY    CA244779   7.005   1.962   4.360 -0.2164 -0.2629 -0.0859
 1792THY    CP144780   7.006   2.113   4.369  0.4819 -0.4015  0.8667
 1792THY    HP144781   7.049   2.160   4.280 -1.7194 -1.9320 -1.1201
 1792THY    CP244782   6.857   2.159   4.367  0.2408  0.0774  0.0122
 1792THY    HP244783   6.801   2.096   4.437 -1.6266 -0.1360 -1.5936
 1792THY    HP344784   6.842   2.266   4.384 -0.8740  0.4368 -2.7223
 1792THY    HP444785   6.812   2.145   4.268 -2.4746 -2.1128  1.4282
 1792THY    CP344786   7.065   2.180   4.490  0.6442  0.1454 -0.0032
 1792THY    HP544787   7.056   2.288   4.472  0.4279 -0.2229 -2.6041
 1792THY    HP644788   7.010   2.154   4.581 -0.4006 -1.0343 -0.9138
 1792THY    HP744789   7.171   2.156   4.502  0.5591  0.0926  0.6863
 1792THY    CA344790   7.001   1.875   4.470 -0.6994  0.0414  1.1218
 1792THY    HA344791   7.011   1.917   4.569 -1.0422  0.2777  1.0581
 1792THY    CA444792   6.996   1.733   4.454 -0.0121  0.5464 -0.2670
 1792THY    HA444793   6.998   1.672   4.544  0.7260 -2.2538 -2.0762
 1792THY    CA544794   6.985   1.674   4.325 -0.7756  0.1647 -0.0791
 1792THY    CM144795   6.986   1.522   4.310  0.3069  0.1899 -0.4448
 1792THY    HM144796   6.991   1.494   4.204  2.3277 -2.2522  0.1889
 1792THY    HM244797   7.068   1.473   4.366 -0.4636  0.6602  1.1604
 1792THY    HM344798   6.890   1.494   4.355  0.2266  2.3225  0.8383
 1792THY    CA644799   6.992   1.758   4.215 -0.5849 -0.0234  0.0264
 1792THY    HA644800   7.001   1.728   4.111 -2.1948 -2.3240  0.4699
 1793THY      O44801   0.026   7.602   3.881  0.3409  0.4121 -0.9861
 1793THY     HO44802   0.069   7.661   3.945  3.3541  0.1681 -2.6105
 1793THY    CA144803  -0.102   7.588   3.919 -0.2675  0.4332 -0.4712
 1793THY    CA244804  -0.196   7.527   3.839  0.5127  0.1496  1.2264
 1793THY    CP144805  -0.156   7.473   3.702  0.0172 -0.5996  0.3056
 1793THY    HP144806  -0.087   7.543   3.653 -0.7783  0.0002  0.0275
 1793THY    CP244807  -0.083   7.337   3.722  0.6309 -0.0236  0.6000
 1793THY    HP244808  -0.132   7.272   3.795  0.4097 -2.7516 -1.7720
 1793THY    HP344809  -0.078   7.284   3.626 -1.2579 -1.6962  1.3518
 1793THY    HP444810   0.021   7.357   3.752  0.7679 -2.4249  2.0068
 1793THY    CP344811  -0.274   7.459   3.609 -0.1150 -0.9236 -0.3481
 1793THY    HP544812  -0.342   7.545   3.606  1.0247  0.0589  0.8565
 1793THY    HP644813  -0.245   7.450   3.503  0.0891 -1.3465 -0.2583
 1793THY    HP744814  -0.325   7.367   3.641  2.4447 -1.7507  1.6814
 1793THY    CA344815  -0.328   7.509   3.885 -0.0957  0.2988  0.0525
 1793THY    HA344816  -0.403   7.456   3.826 -1.1039  0.1958  1.3697
 1793THY    CA444817  -0.363   7.545   4.007  0.0783 -0.7816 -0.1609
 1793THY    HA444818  -0.460   7.521   4.051 -0.1091 -0.3770 -0.3552
 1793THY    CA544819  -0.271   7.595   4.092 -0.7843  0.0006 -0.3943
 1793THY    CM144820  -0.316   7.632   4.229  0.2589  0.3395  0.0787
 1793THY    HM144821  -0.419   7.669   4.224  0.2632  0.6312  1.6210
 1793THY    HM244822  -0.316   7.540   4.289  0.0274  0.1548 -0.1990
 1793THY    HM344823  -0.252   7.712   4.266  1.9366 -0.1150 -1.6828
 1793THY    CA644824  -0.138   7.617   4.051  0.5388 -0.3980 -0.9162
 1793THY    HA644825  -0.067   7.651   4.126 -0.4414  0.3094 -0.2739
 1794THY      O44826   4.427   7.758   9.656  0.4151 -0.7806 -0.0260
 1794THY     HO44827   4.368   7.720   9.723 -2.5782  1.4014 -1.2017
 1794THY    CA144828   4.351   7.774   9.544 -0.4480 -0.4510  0.3857
 1794THY    CA244829   4.408   7.854   9.442  0.0977  0.7525  0.5707
 1794THY    CP144830   4.554   7.899   9.444  0.3139 -0.2707  0.1875
 1794THY    HP144831   4.593   7.911   9.546  1.0138  0.6049 -0.1750
 1794THY    CP244832   4.646   7.794   9.377  0.0093 -0.2007 -0.4244
 1794THY    HP244833   4.754   7.813   9.374 -0.4691  2.9138 -0.8391
 1794THY    HP344834   4.626   7.699   9.429  0.2117  0.2126  0.4151
 1794THY    HP444835   4.618   7.786   9.272  0.5113  0.3886 -0.6062
 1794THY    CP344836   4.580   8.031   9.384  0.6487  0.7400  0.1797
 1794THY    HP544837   4.510   8.108   9.418 -1.2268 -0.0410 -1.6812
 1794THY    HP644838   4.678   8.068   9.416  2.0320 -2.4850  0.0840
 1794THY    HP744839   4.580   8.025   9.274  0.3078 -0.3360  0.2283
 1794THY    CA344840   4.326   7.881   9.325 -0.0960 -0.5724 -0.4849
 1794THY    HA344841   4.366   7.946   9.248 -1.3527 -0.1020 -0.7532
 1794THY    CA444842   4.196   7.830   9.312 -0.4240 -0.7219  0.4628
 1794THY    HA444843   4.135   7.851   9.225  0.4210  0.8059  0.1983
 1794THY    CA544844   4.139   7.748   9.413 -0.1126 -0.2331 -0.8550
 1794THY    CM144845   3.995   7.687   9.390 -1.0814 -0.2397  0.5690
 1794THY    HM144846   3.919   7.765   9.378 -1.4593 -0.3255  2.0916
 1794THY    HM244847   3.989   7.621   9.303 -1.3212 -1.2532  1.3321
 1794THY    HM344848   3.968   7.633   9.482  0.0429 -1.6860  0.0886
 1794THY    CA644849   4.218   7.727   9.532  0.0584 -0.8665 -0.8986
 1794THY    HA644850   4.183   7.660   9.611  0.9336  0.8845  1.0502
 1795THY      O44851   5.880   7.251   1.160  0.4290 -0.2566 -0.5594
 1795THY     HO44852   5.807   7.200   1.199  0.0715  0.2322 -0.5818
 1795THY    CA144853   5.988   7.254   1.235  0.1091 -0.1440  0.0321
 1795THY    CA244854   6.097   7.329   1.194 -0.6410 -0.8223  0.7495
 1795THY    CP144855   6.095   7.388   1.055  0.0557 -0.1704  0.1592
 1795THY    HP144856   5.992   7.420   1.034 -0.3293 -1.4430 -0.0335
 1795THY    CP244857   6.176   7.510   1.042 -0.5252  0.0122  0.2727
 1795THY    HP244858   6.145   7.588   1.113  0.2337  0.4043  0.1899
 1795THY    HP344859   6.282   7.488   1.055 -1.0938 -2.3660  1.2283
 1795THY    HP444860   6.161   7.565   0.948  1.9941  0.5163  0.0908
 1795THY    CP344861   6.134   7.288   0.939  0.1221 -0.4496 -0.1478
 1795THY    HP544862   6.054   7.213   0.936 -0.5776  0.2872 -0.0213
 1795THY    HP644863   6.144   7.353   0.851 -0.5639  0.5385  0.4869
 1795THY    HP744864   6.238   7.255   0.956  0.5417  0.4676 -0.8306
 1795THY    CA344865   6.211   7.340   1.278 -0.4232  0.8001 -0.3889
 1795THY    HA344866   6.297   7.403   1.257 -0.9549  1.2564 -1.2344
 1795THY    CA444867   6.212   7.268   1.397  0.3120  0.1897  0.3099
 1795THY    HA444868   6.298   7.266   1.464  0.7071  0.3145 -0.1848
 1795THY    CA544869   6.106   7.192   1.436  0.2762  0.1136  0.0439
 1795THY    CM144870   6.102   7.125   1.569 -0.1287 -0.0540 -0.0123
 1795THY    HM144871   6.014   7.061   1.581  1.8449 -2.4343  4.4024
 1795THY    HM244872   6.179   7.049   1.584 -0.4694 -0.3234  0.4038
 1795THY    HM344873   6.097   7.200   1.649 -2.0727 -1.4643  1.2854
 1795THY    CA644874   5.993   7.177   1.353 -0.4805  0.3434  0.5826
 1795THY    HA644875   5.917   7.101   1.372 -0.5943  0.0509 -0.9243
 1796THY      O44876   9.367   0.669   2.090  0.7105 -0.6586  0.4475
 1796THY     HO44877   9.301   0.740   2.086  3.1241  1.6659 -0.8336
 1796THY    CA144878   9.392   0.650   1.957  0.1324 -0.4473 -0.0140
 1796THY    CA244879   9.468   0.528   1.924  0.6605 -0.3740 -0.6304
 1796THY    CP144880   9.512   0.428   2.031 -0.0002  0.8211  0.2185
 1796THY    HP144881   9.542   0.485   2.120  0.5329  1.6660 -0.4858
 1796THY    CP244882   9.398   0.335   2.069 -0.2061 -0.6463 -0.6362
 1796THY    HP244883   9.360   0.277   1.983  0.2397  0.2182 -1.4347
 1796THY    HP344884   9.425   0.269   2.152 -2.9911 -0.5401  0.4577
 1796THY    HP444885   9.313   0.402   2.087  2.2482  3.8106 -3.6601
 1796THY    CP344886   9.636   0.341   2.004  0.1996 -0.0295 -0.3084
 1796THY    HP544887   9.654   0.275   2.090 -0.2423 -0.2539 -0.3843
 1796THY    HP644888   9.630   0.275   1.916 -1.2090 -0.5651  0.1555
 1796THY    HP744889   9.725   0.403   1.989 -0.9633  1.9149  0.4484
 1796THY    CA344890   9.501   0.508   1.791  0.0044  0.3582  0.0490
 1796THY    HA344891   9.555   0.420   1.758 -0.1394  0.6194 -0.9019
 1796THY    CA444892   9.460   0.605   1.690  0.0405 -0.4461  0.5875
 1796THY    HA444893   9.496   0.599   1.587 -0.0109  3.0443  0.2308
 1796THY    CA544894   9.380   0.715   1.726  0.6970  0.0354  0.7269
 1796THY    CM144895   9.320   0.806   1.620  0.1538 -0.4475 -0.1937
 1796THY    HM144896   9.221   0.770   1.590 -0.1264  2.7433 -3.7497
 1796THY    HM244897   9.303   0.910   1.649 -0.0642 -0.3423 -0.6987
 1796THY    HM344898   9.389   0.826   1.538  0.6406  1.7087  0.6873
 1796THY    CA644899   9.333   0.731   1.859  0.1654  0.2766 -0.2272
 1796THY    HA644900   9.266   0.814   1.880  0.9084  0.4187  1.8105
 1797THY      O44901   1.536   9.237   0.492 -0.2850  0.1149  0.2629
 1797THY     HO44902   1.484   9.213   0.413 -1.9843 -1.4139  1.7497
 1797THY    CA144903   1.523   9.141   0.583 -0.0695  0.7117 -0.8822
 1797THY    CA244904   1.615   9.125   0.687 -0.2499 -0.3323 -0.7134
 1797THY    CP144905   1.733   9.216   0.707  0.0687 -0.1982 -0.3972
 1797THY    HP144906   1.743   9.278   0.617  0.2048  0.4150  0.0369
 1797THY    CP244907   1.710   9.321   0.828 -0.8464  0.7317  0.0430
 1797THY    HP244908   1.768   9.276   0.911  0.0900  1.7836 -0.0247
 1797THY    HP344909   1.744   9.421   0.801  2.7626 -0.1995  0.6602
 1797THY    HP444910   1.605   9.308   0.858 -0.3515 -0.3162  1.4821
 1797THY    CP344911   1.873   9.147   0.720  0.2107 -0.2496 -0.4375
 1797THY    HP544912   1.898   9.083   0.635  1.2478 -0.0274 -0.3136
 1797THY    HP644913   1.948   9.225   0.705  1.5465 -1.6910 -1.6906
 1797THY    HP744914   1.882   9.091   0.814 -0.6657  1.7438  0.9071
 1797THY    CA344915   1.594   9.024   0.786  0.5868  0.2183  0.4976
 1797THY    HA344916   1.664   9.000   0.866  0.0609 -0.4583  0.7560
 1797THY    CA444917   1.480   8.943   0.774 -0.2646 -0.3256 -0.0695
 1797THY    HA444918   1.463   8.864   0.846 -2.3338 -0.1156 -0.2687
 1797THY    CA544919   1.382   8.967   0.680  0.1245  0.1793  0.1288
 1797THY    CM144920   1.259   8.879   0.666  0.1782  0.0580  0.4596
 1797THY    HM144921   1.260   8.826   0.570 -1.0270  0.4962  0.1920
 1797THY    HM244922   1.265   8.799   0.741 -2.0048 -1.0477 -0.4232
 1797THY    HM344923   1.164   8.931   0.684 -0.8703 -2.3371  2.5241
 1797THY    CA644924   1.404   9.066   0.579 -0.1335  0.1855  0.5204
 1797THY    HA644925   1.335   9.086   0.497  1.8297  1.4895 -0.9063
 1798THY      O44926   2.102   9.273   2.262 -0.1313  0.2305  0.4855
 1798THY     HO44927   2.093   9.340   2.192  1.3008  4.0782  3.6116
 1798THY    CA144928   2.126   9.329   2.380 -0.2923 -0.7556  0.0508
 1798THY    CA244929   2.148   9.260   2.496  0.2703  0.0068 -0.1142
 1798THY    CP144930   2.139   9.102   2.501 -0.3913  0.0740  0.7420
 1798THY    HP144931   2.085   9.058   2.416  3.3992 -0.6200 -1.5100
 1798THY    CP244932   2.286   9.051   2.486 -0.1245 -0.4164  0.0014
 1798THY    HP244933   2.355   9.110   2.547  0.3870 -2.1702  1.1986
 1798THY    HP344934   2.294   8.947   2.519  0.7602 -0.3780 -0.0726
 1798THY    HP444935   2.315   9.048   2.380 -0.7336 -0.7545 -0.1565
 1798THY    CP344936   2.076   9.044   2.625 -0.1932 -0.0613  0.0856
 1798THY    HP544937   2.148   9.038   2.708  0.2548  0.2301 -0.2830
 1798THY    HP644938   2.001   9.108   2.673  0.7390 -0.5904  2.4125
 1798THY    HP744939   2.032   8.944   2.614  0.4926 -0.3595 -0.0002
 1798THY    CA344940   2.183   9.335   2.613  0.0846  0.3341  0.7306
 1798THY    HA344941   2.191   9.282   2.708  0.1716  0.7425  0.9508
 1798THY    CA444942   2.189   9.472   2.611  0.1586 -0.3723  0.2761
 1798THY    HA444943   2.209   9.522   2.705 -3.1741  1.3521  0.2010
 1798THY    CA544944   2.176   9.542   2.489  0.0006 -0.6730 -0.1982
 1798THY    CM144945   2.197   9.696   2.491  1.4465  0.6996  0.1141
 1798THY    HM144946   2.160   9.748   2.401 -3.6827  0.0887  1.5866
 1798THY    HM244947   2.150   9.731   2.584  1.5327 -1.2529  0.9353
 1798THY    HM344948   2.305   9.715   2.492  2.2337 -2.8733 -1.4295
 1798THY    CA644949   2.136   9.468   2.380  0.8451 -0.4974 -0.4692
 1798THY    HA644950   2.118   9.523   2.288 -1.5209  1.1298  0.8536
 1799THY      O44951   3.206   1.426   6.436  0.7324  0.0880 -0.2242
 1799THY     HO44952   3.214   1.501   6.498 -0.5586  0.8542 -0.9312
 1799THY    CA144953   3.092   1.357   6.467  0.0130 -0.2294 -0.0958
 1799THY    CA244954   3.045   1.262   6.372 -0.3292 -0.7513  0.0869
 1799THY    CP144955   3.122   1.235   6.242  0.4142 -0.2333  0.0277
 1799THY    HP144956   3.228   1.262   6.243  0.4580 -0.2673  2.2079
 1799THY    CP244957   3.123   1.089   6.193  0.0276 -0.1539  0.4417
 1799THY    HP244958   3.159   1.025   6.275  0.6856  1.5041  1.4939
 1799THY    HP344959   3.020   1.060   6.170  0.3102 -1.4011  0.6512
 1799THY    HP444960   3.194   1.077   6.110 -0.4204  1.0689 -0.1478
 1799THY    CP344961   3.069   1.324   6.131  0.6300  0.1136 -0.1941
 1799THY    HP544962   3.091   1.428   6.159 -1.0356  0.5634 -0.4872
 1799THY    HP644963   3.121   1.294   6.039 -0.1135 -1.3742 -0.1497
 1799THY    HP744964   2.963   1.302   6.116  0.2152  1.6908  0.2379
 1799THY    CA344965   2.935   1.182   6.412  0.2530 -0.2856  0.7915
 1799THY    HA344966   2.895   1.102   6.351 -1.6565 -0.3505  2.0285
 1799THY    CA444967   2.871   1.203   6.534 -0.1656  0.6701 -0.1385
 1799THY    HA444968   2.794   1.131   6.559  0.3814 -0.9716 -2.7772
 1799THY    CA544969   2.915   1.300   6.615 -0.2791  0.1399 -0.7832
 1799THY    CM144970   2.852   1.319   6.754 -0.3717 -0.3748 -0.0720
 1799THY    HM144971   2.793   1.234   6.790 -1.0061  0.8522  1.9318
 1799THY    HM244972   2.932   1.333   6.827  0.7571  1.9025 -1.6201
 1799THY    HM344973   2.785   1.405   6.769  2.0618  1.4054  1.4103
 1799THY    CA644974   3.029   1.376   6.587 -0.7969 -0.3269  0.4154
 1799THY    HA644975   3.065   1.445   6.663 -0.6096  0.9227 -0.7734
 1800THY      O44976   0.860   5.003   0.723 -0.5110 -0.1862 -0.4914
 1800THY     HO44977   0.764   4.996   0.739 -0.3425 -1.1986  0.1254
 1800THY    CA144978   0.891   4.870   0.703  0.1045  0.5072  0.1936
 1800THY    CA244979   1.025   4.821   0.704  0.0607 -0.4130  0.4177
 1800THY    CP144980   1.137   4.920   0.735 -0.2378  0.1074 -0.4853
 1800THY    HP144981   1.102   5.020   0.765 -0.0496  0.2624 -0.7790
 1800THY    CP244982   1.217   4.878   0.859  0.4545 -0.9322  0.8438
 1800THY    HP244983   1.270   4.787   0.832  2.6519  1.1130 -2.4927
 1800THY    HP344984   1.300   4.950   0.872 -0.7586  0.5450  0.7019
 1800THY    HP444985   1.157   4.869   0.950 -1.4682 -0.3210 -0.3132
 1800THY    CP344986   1.211   4.947   0.603 -0.1278  0.2762 -0.7434
 1800THY    HP544987   1.168   5.013   0.526  2.2055  0.9640 -1.5541
 1800THY    HP644988   1.301   5.007   0.623  0.2868 -0.4705 -0.3512
 1800THY    HP744989   1.237   4.859   0.544  0.0785  1.4454 -2.4942
 1800THY    CA344990   1.045   4.690   0.675  0.0338  0.8462  0.0718
 1800THY    HA344991   1.143   4.644   0.674 -1.7795 -3.6693  1.2590
 1800THY    CA444992   0.938   4.608   0.632  0.3281 -0.3113  0.5535
 1800THY    HA444993   0.952   4.504   0.607 -0.8790 -0.3664  0.0033
 1800THY    CA544994   0.810   4.656   0.633 -0.0339  0.1677 -0.3213
 1800THY    CM144995   0.694   4.566   0.615  0.0365  0.3058  0.2224
 1800THY    HM144996   0.719   4.502   0.529  4.0934  0.6083  0.9788
 1800THY    HM244997   0.686   4.513   0.711 -0.8490  2.7492  1.5735
 1800THY    HM344998   0.595   4.612   0.601  0.2567  0.5383 -0.6161
 1800THY    CA644999   0.785   4.787   0.672 -0.6943  0.7423 -0.7234
 1800THY    HA645000   0.683   4.826   0.667 -0.7009  0.5816 -2.0389
 1801THY      O45001   4.828   1.073   8.070 -0.4818  0.4346  0.5347
 1801THY     HO45002   4.875   1.046   7.989 -2.1823  0.1010 -0.3786
 1801THY    CA145003   4.697   1.061   8.046 -0.2600  0.7222 -0.1320
 1801THY    CA245004   4.601   1.080   8.145  0.1727  0.6707 -0.3760
 1801THY    CP145005   4.651   1.114   8.280 -0.5186 -0.9349  0.4608
 1801THY    HP145006   4.753   1.152   8.277 -0.2724 -1.6018 -1.6026
 1801THY    CP245007   4.577   1.230   8.349  0.7321  0.3117 -0.2035
 1801THY    HP245008   4.626   1.262   8.442 -1.1764 -1.5507  1.5525
 1801THY    HP345009   4.566   1.311   8.277 -1.8488 -0.0480 -0.2831
 1801THY    HP445010   4.477   1.188   8.360  0.6645  0.9183  1.8980
 1801THY    CP345011   4.645   0.986   8.369  0.2110  0.2312  0.1962
 1801THY    HP545012   4.701   0.899   8.335 -1.0545  0.2921 -2.3050
 1801THY    HP645013   4.683   1.017   8.467  0.1006 -0.1058  0.3479
 1801THY    HP745014   4.538   0.960   8.373 -0.6446  3.4271  1.5282
 1801THY    CA345015   4.463   1.061   8.119 -0.5296  0.2430 -0.3749
 1801THY    HA345016   4.394   1.064   8.202  2.4665 -1.5660  2.4168
 1801THY    CA445017   4.434   1.011   7.995  0.3024  0.6131  0.0019
 1801THY    HA445018   4.334   0.981   7.962  0.3604  0.6635 -0.2176
 1801THY    CA545019   4.525   0.997   7.893 -0.3846 -0.3653  0.1233
 1801THY    CM145020   4.481   0.953   7.758  0.3062 -0.0935 -0.9555
 1801THY    HM145021   4.524   1.037   7.701  0.8916 -0.5846 -1.2427
 1801THY    HM245022   4.534   0.865   7.720  1.1149 -0.4830  0.9753
 1801THY    HM345023   4.372   0.951   7.746 -0.0513  0.2397  1.6953
 1801THY    CA645024   4.662   1.017   7.920  0.1533 -1.3224  0.2138
 1801THY    HA645025   4.734   1.008   7.838 -0.7304 -2.4842 -0.4697
 1802THY      O45026   2.992   6.649   6.819 -0.1156  0.2124  0.0915
 1802THY     HO45027   2.989   6.681   6.728 -0.5859  0.6373  0.2544
 1802THY    CA145028   2.869   6.602   6.849  0.0437 -0.0950 -0.6305
 1802THY    CA245029   2.811   6.618   6.982 -0.2818 -0.2983 -0.7296
 1802THY    CP145030   2.868   6.704   7.099  0.4500  0.6960  0.8072
 1802THY    HP145031   2.953   6.760   7.058  1.7275 -2.7344 -1.6983
 1802THY    CP245032   2.764   6.798   7.172  0.8282  0.3493  0.3795
 1802THY    HP245033   2.716   6.870   7.105  0.1992  0.3420  0.8184
 1802THY    HP345034   2.681   6.746   7.221  1.5400 -1.3889 -0.1707
 1802THY    HP445035   2.808   6.859   7.252 -1.7559 -0.4831  2.6013
 1802THY    CP345036   2.939   6.610   7.200  0.2652 -0.4000  0.3629
 1802THY    HP545037   2.998   6.532   7.151  1.5166 -0.9012  2.5058
 1802THY    HP645038   2.996   6.682   7.260 -2.3136  2.4425 -0.3620
 1802THY    HP745039   2.867   6.556   7.263  1.4227 -2.1628  0.2315
 1802THY    CA345040   2.688   6.559   7.010  0.3581 -0.8575  0.6797
 1802THY    HA345041   2.643   6.578   7.107  1.8789 -1.2196  1.4742
 1802THY    CA445042   2.624   6.483   6.913  0.3646 -0.5137 -0.5124
 1802THY    HA445043   2.520   6.453   6.926 -0.9828  2.8488 -2.1903
 1802THY    CA545044   2.681   6.468   6.787  0.8042 -0.8220  0.3864
 1802THY    CM145045   2.619   6.375   6.690 -0.3442  0.5012 -0.3006
 1802THY    HM145046   2.679   6.284   6.681 -0.7158  0.0957  0.9797
 1802THY    HM245047   2.523   6.345   6.733 -0.5498 -1.0014 -1.7137
 1802THY    HM345048   2.612   6.424   6.592 -1.7796  1.7290  0.3585
 1802THY    CA645049   2.805   6.518   6.753 -0.2270  0.1057  0.0408
 1802THY    HA645050   2.855   6.500   6.657  2.1222  1.4893  0.9202
 1803THY      O45051   0.149   3.032   1.589  0.1627 -0.0779 -0.2783
 1803THY     HO45052   0.135   2.943   1.627 -3.3270  1.0892  1.5483
 1803THY    CA145053   0.141   3.133   1.682  0.0904  0.7371 -0.2340
 1803THY    CA245054   0.123   3.260   1.641 -0.1459 -0.7450 -0.4669
 1803THY    CP145055   0.104   3.300   1.498  0.3837 -0.2107 -0.5967
 1803THY    HP145056   0.074   3.213   1.439 -1.0362 -0.0539 -0.1348
 1803THY    CP245057  -0.025   3.387   1.477  0.0930  0.0162 -0.2935
 1803THY    HP245058  -0.025   3.477   1.539  2.7552  0.9864 -1.5781
 1803THY    HP345059  -0.033   3.416   1.371 -1.7585 -1.1069 -0.5222
 1803THY    HP445060  -0.117   3.328   1.491  0.3567 -0.2213  0.4385
 1803THY    CP345061   0.222   3.368   1.440 -0.6571 -0.1029  0.1188
 1803THY    HP545062   0.232   3.342   1.334 -3.0072 -1.6868  0.2381
 1803THY    HP645063   0.229   3.476   1.457  2.3413 -0.2863  0.7090
 1803THY    HP745064   0.315   3.326   1.479 -1.0872 -1.2939 -0.1089
 1803THY    CA345065   0.132   3.360   1.738 -0.3903 -0.1513 -0.0393
 1803THY    HA345066   0.136   3.462   1.699 -0.1176  0.5639  1.7722
 1803THY    CA445067   0.134   3.335   1.872  0.2519 -0.4656  0.4231
 1803THY    HA445068   0.132   3.417   1.943 -2.0223 -0.7192  0.7068
 1803THY    CA545069   0.124   3.200   1.912  0.1730  0.1667  0.7619
 1803THY    CM145070   0.102   3.164   2.052 -0.6371  0.0740 -0.6325
 1803THY    HM145071   0.133   3.061   2.075 -1.8856  0.0133  0.9645
 1803THY    HM245072   0.166   3.219   2.122  0.7642  0.1967 -1.9653
 1803THY    HM345073  -0.000   3.194   2.079 -0.1276  0.2242  1.2742
 1803THY    CA645074   0.139   3.098   1.816  0.3605  0.3860  0.1715
 1803THY    HA645075   0.127   2.997   1.853 -2.5602  1.2573  1.9499
 1804THY      O45076   3.600   3.837   3.212 -0.1342 -0.6093 -0.1762
 1804THY     HO45077   3.601   3.835   3.309  0.1604  0.4014 -0.1470
 1804THY    CA145078   3.731   3.812   3.174 -0.2433 -0.1499 -0.0284
 1804THY    CA245079   3.764   3.784   3.039  0.0626  0.1566  0.1823
 1804THY    CP145080   3.651   3.745   2.952  0.4148  0.3732  0.3812
 1804THY    HP145081   3.563   3.709   3.007 -0.3599  1.8149  0.1312
 1804THY    CP245082   3.621   3.863   2.867 -0.6357  0.1093 -0.1267
 1804THY    HP245083   3.613   3.950   2.933  0.2253  0.0585  0.0508
 1804THY    HP345084   3.700   3.892   2.797  0.6216  0.6582  1.4516
 1804THY    HP445085   3.531   3.843   2.808  0.1561  1.3462 -1.8166
 1804THY    CP345086   3.687   3.625   2.867 -0.0212  0.1040  0.3245
 1804THY    HP545087   3.742   3.547   2.919 -0.1261  0.4296  0.9374
 1804THY    HP645088   3.598   3.578   2.824  1.1352 -2.7206  0.7916
 1804THY    HP745089   3.747   3.659   2.782  0.9156 -0.1128  0.8842
 1804THY    CA345090   3.899   3.772   3.004  0.6402 -0.4042  0.1882
 1804THY    HA345091   3.929   3.742   2.904  0.0123  0.8218 -0.3956
 1804THY    CA445092   4.002   3.788   3.101  0.2806  0.3817 -0.3784
 1804THY    HA445093   4.108   3.788   3.078  0.8812  1.2417  2.0141
 1804THY    CA545094   3.966   3.820   3.235 -0.0815 -0.0823 -0.0252
 1804THY    CM145095   4.065   3.852   3.339 -0.7277  0.0513  0.0108
 1804THY    HM145096   4.166   3.816   3.317 -1.2021 -0.7158 -1.0511
 1804THY    HM245097   4.085   3.960   3.343  1.5501 -0.2800 -0.8362
 1804THY    HM345098   4.028   3.811   3.433 -1.4177 -0.5846 -0.5207
 1804THY    CA645099   3.830   3.826   3.275 -0.3668  0.1581  0.2488
 1804THY    HA645100   3.807   3.862   3.374  0.7248  3.3554 -0.5590
 1805THY      O45101   6.968   8.849   3.571 -0.0571  0.5941  0.2489
 1805THY     HO45102   6.878   8.868   3.604  0.0496  0.7585  0.4456
 1805THY    CA145103   7.036   8.964   3.588 -0.1336  0.1747 -0.1059
 1805THY    CA245104   7.161   8.988   3.528  0.3572 -0.5332 -0.9735
 1805THY    CP145105   7.231   8.870   3.465 -0.0120  0.1471 -0.2011
 1805THY    HP145106   7.175   8.782   3.499  2.0083 -0.9732  0.3467
 1805THY    CP245107   7.229   8.876   3.311 -0.1649 -0.0265  0.1254
 1805THY    HP245108   7.290   8.792   3.279  0.8868  1.2604 -1.3799
 1805THY    HP345109   7.136   8.860   3.256 -0.2082  2.5754 -0.6849
 1805THY    HP445110   7.273   8.970   3.278 -0.0240  0.1058  0.6721
 1805THY    CP345111   7.380   8.855   3.521  0.1439  0.0219  1.0624
 1805THY    HP545112   7.436   8.948   3.500 -1.5333  0.9817  0.6208
 1805THY    HP645113   7.379   8.829   3.627 -1.4717 -2.8242  0.4340
 1805THY    HP745114   7.430   8.777   3.464 -1.2629  1.7068 -2.8151
 1805THY    CA345115   7.220   9.110   3.560 -0.8637  0.7054  0.3593
 1805THY    HA345116   7.319   9.127   3.518 -0.4537 -1.4505  0.3149
 1805THY    CA445117   7.159   9.206   3.628  0.4855 -0.0050 -0.6662
 1805THY    HA445118   7.209   9.299   3.656  2.5052 -1.5393  1.1277
 1805THY    CA545119   7.032   9.181   3.686 -0.8626 -0.5181 -0.4162
 1805THY    CM145120   6.962   9.281   3.770  0.4221  0.3230  0.1696
 1805THY    HM145121   6.940   9.259   3.875 -0.8182  2.3494  0.3696
 1805THY    HM245122   7.017   9.375   3.784 -2.3348  2.1633 -0.5221
 1805THY    HM345123   6.874   9.321   3.719 -0.8813 -2.2440  0.2021
 1805THY    CA645124   6.977   9.060   3.664  0.6324  0.4870  0.6837
 1805THY    HA645125   6.883   9.042   3.715 -0.8619 -0.0420 -2.0442
 1806THY      O45126   9.384   5.829   1.061  0.3128 -0.2214 -0.0023
 1806THY     HO45127   9.354   5.759   1.000  2.5627  0.6010 -2.2426
 1806THY    CA145128   9.305   5.936   1.056  0.2954  0.6383  0.2330
 1806THY    CA245129   9.331   6.050   1.129  0.1837 -0.3096  1.0387
 1806THY    CP145130   9.451   6.061   1.224 -0.5201  0.2906 -0.0734
 1806THY    HP145131   9.509   5.968   1.222  2.0145  1.7753 -1.0210
 1806THY    CP245132   9.541   6.157   1.164 -0.4147  0.1479 -0.4567
 1806THY    HP245133   9.573   6.113   1.069  3.0720 -1.1455  1.1595
 1806THY    HP345134   9.500   6.255   1.135 -0.9787  0.3382  0.9203
 1806THY    HP445135   9.634   6.174   1.219  0.4657 -2.3909 -1.0380
 1806THY    CP345136   9.408   6.103   1.365  0.1378  0.2607 -0.5334
 1806THY    HP545137   9.381   6.012   1.419  1.8472  0.8171  1.3802
 1806THY    HP645138   9.488   6.150   1.422 -0.1397 -0.0385  0.1151
 1806THY    HP745139   9.319   6.167   1.366 -0.5197 -0.6233  0.6672
 1806THY    CA345140   9.250   6.164   1.099  0.2682  0.4597 -0.0775
 1806THY    HA345141   9.263   6.263   1.142  0.0417  0.7343 -0.6341
 1806THY    CA445142   9.150   6.157   1.002  0.6291 -0.0718  0.6817
 1806THY    HA445143   9.088   6.244   0.982 -1.4782 -1.9224 -1.4631
 1806THY    CA545144   9.121   6.038   0.933 -0.5035 -0.0214 -0.0386
 1806THY    CM145145   9.015   6.032   0.822  0.0395  0.5319  0.2919
 1806THY    HM145146   9.057   6.046   0.722 -0.0253  0.4096  0.2466
 1806THY    HM245147   8.955   5.940   0.834  2.8345 -1.3492  0.7926
 1806THY    HM345148   8.950   6.118   0.838  1.1904  1.6105 -0.6583
 1806THY    CA645149   9.206   5.925   0.957 -0.0033 -0.0563 -0.6825
 1806THY    HA645150   9.188   5.831   0.904  0.3647 -0.0605 -0.8055
 1807THY      O45151   7.273   0.184   2.850  0.1645 -0.5377 -0.4097
 1807THY     HO45152   7.225   0.194   2.934 -1.5811 -0.3317 -1.3909
 1807THY    CA145153   7.296   0.313   2.815  0.3642  0.6536  0.6060
 1807THY    CA245154   7.355   0.353   2.699 -0.3528  0.0699  0.1273
 1807THY    CP145155   7.419   0.248   2.607 -0.4980 -0.9333  0.3044
 1807THY    HP145156   7.457   0.176   2.681  0.7809 -1.2140 -0.5930
 1807THY    CP245157   7.311   0.185   2.525  0.6045 -0.1302  0.0268
 1807THY    HP245158   7.223   0.152   2.581  1.1154  0.1166  0.9960
 1807THY    HP345159   7.275   0.246   2.441 -0.2800  0.0825  0.5500
 1807THY    HP445160   7.355   0.097   2.476  0.3827  2.2357 -5.0431
 1807THY    CP345161   7.537   0.298   2.513  0.1050 -0.7917  0.1255
 1807THY    HP545162   7.593   0.207   2.492  0.3139 -0.7632  0.5553
 1807THY    HP645163   7.505   0.346   2.420  0.3858  1.8689  1.2922
 1807THY    HP745164   7.608   0.361   2.568  0.4096 -2.2334  1.4307
 1807THY    CA345165   7.365   0.499   2.675  0.5738  0.3382 -0.7011
 1807THY    HA345166   7.409   0.544   2.586 -0.8881 -1.3996 -2.4091
 1807THY    CA445167   7.320   0.590   2.770  0.5045 -0.5264  0.1720
 1807THY    HA445168   7.347   0.695   2.762  1.7763 -0.7369  1.1931
 1807THY    CA545169   7.267   0.539   2.885  1.1307  0.0724  1.0009
 1807THY    CM145170   7.241   0.625   3.007 -0.6673 -0.4184 -0.0639
 1807THY    HM145171   7.335   0.649   3.059 -0.2461 -0.3678 -0.8377
 1807THY    HM245172   7.191   0.721   2.988 -0.4203  0.2674  2.3509
 1807THY    HM345173   7.168   0.574   3.071 -1.1464 -0.9852 -1.0473
 1807THY    CA645174   7.245   0.406   2.904  0.0715  0.0974 -0.2844
 1807THY    HA645175   7.191   0.376   2.993  0.3181  1.5574  0.3858
 1808THY      O45176   8.081   7.127   3.484  0.6113  0.1641  0.1145
 1808THY     HO45177   8.088   7.222   3.504 -0.2870  0.1449  0.5508
 1808THY    CA145178   8.009   7.121   3.373 -0.2261  0.3936  0.4604
 1808THY    CA245179   7.968   6.998   3.317  0.5209 -0.1344 -0.1678
 1808THY    CP145180   8.008   6.872   3.400 -0.1246  0.0340  0.0160
 1808THY    HP145181   8.045   6.894   3.501  0.3242  2.5694 -0.6256
 1808THY    CP245182   7.903   6.762   3.408 -0.4678 -0.3887  0.0450
 1808THY    HP245183   7.934   6.680   3.474 -1.9657 -0.8573  0.2142
 1808THY    HP345184   7.811   6.813   3.441  1.0606  1.0827  2.3091
 1808THY    HP445185   7.878   6.721   3.309 -2.8045 -1.9344  1.1653
 1808THY    CP345186   8.145   6.813   3.353  0.5844  0.3923  0.3715
 1808THY    HP545187   8.223   6.889   3.346  0.5154  0.5031  0.7610
 1808THY    HP645188   8.190   6.741   3.422  2.0822  0.1408 -0.8061
 1808THY    HP745189   8.136   6.769   3.253 -2.4792  0.8355  0.3558
 1808THY    CA345190   7.886   6.997   3.200 -0.3268  0.0706  1.2064
 1808THY    HA345191   7.851   6.901   3.162 -0.0702  0.7721 -0.8956
 1808THY    CA445192   7.857   7.117   3.140  0.5785 -0.5246  0.1182
 1808THY    HA445193   7.798   7.117   3.048 -0.8315  0.0053  0.9894
 1808THY    CA545194   7.897   7.238   3.192 -0.4006 -0.0022 -0.6290
 1808THY    CM145195   7.858   7.372   3.127  0.3261 -0.2968  0.5263
 1808THY    HM145196   7.939   7.445   3.123 -2.0505  2.5014 -0.5807
 1808THY    HM245197   7.838   7.349   3.022  0.4022 -1.0193  0.6670
 1808THY    HM345198   7.769   7.408   3.180  0.4783 -0.8845  1.1917
 1808THY    CA645199   7.973   7.240   3.310 -0.3055 -0.0089 -0.4191
 1808THY    HA645200   8.005   7.331   3.359 -2.6229  0.9121 -0.5254
 1809THY      O45201   3.714   5.425   0.415  0.0839 -0.4390 -0.7155
 1809THY     HO45202   3.646   5.357   0.403  0.0794 -0.9907  1.8557
 1809THY    CA145203   3.733   5.484   0.293  0.6220 -0.4257 -0.1189
 1809THY    CA245204   3.777   5.616   0.268  0.0631  0.2671  0.0262
 1809THY    CP145205   3.785   5.714   0.382 -0.3423  0.3932  0.9257
 1809THY    HP145206   3.788   5.662   0.479  0.4473 -0.9419  0.2143
 1809THY    CP245207   3.916   5.802   0.378 -0.0372  0.2503 -0.2979
 1809THY    HP245208   3.947   5.823   0.481  1.1946  0.1743 -0.6423
 1809THY    HP345209   4.006   5.751   0.342  0.1261  0.8089 -0.6998
 1809THY    HP445210   3.908   5.890   0.312 -0.9096  0.1711 -0.3099
 1809THY    CP345211   3.668   5.809   0.387 -0.0373 -0.5124  0.2377
 1809THY    HP545212   3.591   5.757   0.446 -0.2700 -0.2453  0.1686
 1809THY    HP645213   3.676   5.905   0.439 -4.5647  1.2557 -1.7630
 1809THY    HP745214   3.632   5.837   0.288  0.5359  1.3794  0.5308
 1809THY    CA345215   3.801   5.666   0.134 -0.0243  0.3507  0.1595
 1809THY    HA345216   3.839   5.766   0.114  0.5610  0.7046  2.7301
 1809THY    CA445217   3.766   5.582   0.025  0.5030  0.2675  0.0506
 1809THY    HA445218   3.773   5.614  -0.079 -3.5596 -0.3119 -0.5664
 1809THY    CA545219   3.705   5.460   0.049  0.3775 -0.2446 -0.0196
 1809THY    CM145220   3.645   5.382  -0.070  0.5169  0.2021 -0.0461
 1809THY    HM145221   3.631   5.433  -0.166 -1.7964 -0.3353 -0.0594
 1809THY    HM245222   3.697   5.289  -0.094 -0.7784 -0.5327 -0.1135
 1809THY    HM345223   3.552   5.330  -0.041  0.6752 -1.1481 -1.8410
 1809THY    CA645224   3.696   5.407   0.182  0.1440  0.0003 -0.0036
 1809THY    HA645225   3.656   5.307   0.196 -1.2635 -0.0420 -3.2978
 1810THY      O45226   0.883   9.362   0.756 -0.1363  0.6930 -0.3271
 1810THY     HO45227   0.923   9.447   0.780 -1.1227  1.1744 -0.2992
 1810THY    CA145228   0.951   9.257   0.814  0.2699 -0.7022  0.1727
 1810THY    CA245229   0.905   9.125   0.803 -0.2336 -0.0662 -0.3536
 1810THY    CP145230   0.773   9.102   0.743 -0.4194  0.1475  0.2608
 1810THY    HP145231   0.739   9.195   0.697  0.1024 -0.5283 -1.5634
 1810THY    CP245232   0.790   9.009   0.630 -1.1780  0.2369  0.4494
 1810THY    HP245233   0.719   9.028   0.549 -1.5413  0.0162  0.7127
 1810THY    HP345234   0.884   9.018   0.574 -1.7728  2.0778 -0.3533
 1810THY    HP445235   0.786   8.903   0.657  0.5658 -1.0212 -3.4757
 1810THY    CP345236   0.661   9.067   0.835 -0.0727  0.2065  0.5468
 1810THY    HP545237   0.561   9.070   0.790  0.9610  2.8536 -1.8877
 1810THY    HP645238   0.675   8.964   0.870  1.5304  0.8623  1.9837
 1810THY    HP745239   0.662   9.130   0.924  3.1963 -0.7278  1.2997
 1810THY    CA345240   0.977   9.013   0.856 -0.6830 -0.3085  0.4915
 1810THY    HA345241   0.950   8.908   0.852  1.9898 -1.0479 -0.0520
 1810THY    CA445242   1.097   9.044   0.919 -0.0837 -0.0152 -0.4953
 1810THY    HA445243   1.150   8.965   0.971  0.6449  1.0873  0.4999
 1810THY    CA545244   1.145   9.178   0.925  0.0450 -0.4558  0.3096
 1810THY    CM145245   1.282   9.225   0.981  0.7018  0.3830 -0.0031
 1810THY    HM145246   1.316   9.164   1.066  0.0072 -0.1561 -0.1005
 1810THY    HM245247   1.353   9.202   0.901  0.2037 -2.5281  0.2947
 1810THY    HM345248   1.294   9.333   0.999  3.3756  0.0275  0.7682
 1810THY    CA645249   1.076   9.276   0.863  0.0005 -0.5499  0.4522
 1810THY    HA645250   1.119   9.376   0.867  1.1268 -0.8612 -1.9913
 1811THY      O45251   2.276   7.407   0.804  0.5134 -0.4188 -0.5669
 1811THY     HO45252   2.289   7.379   0.712  3.1879 -0.3241 -0.2988
 1811THY    CA145253   2.244   7.545   0.794 -0.8536 -0.4892  0.0735
 1811THY    CA245254   2.274   7.640   0.890 -0.5118 -0.2112  0.3666
 1811THY    CP145255   2.336   7.607   1.029  0.0995  0.5984 -0.0500
 1811THY    HP145256   2.387   7.511   1.021  0.0020  0.5445 -0.0273
 1811THY    CP245257   2.450   7.700   1.063  0.5729 -0.1017  0.3498
 1811THY    HP245258   2.521   7.701   0.980  0.3700 -1.6107  0.1302
 1811THY    HP345259   2.413   7.800   1.090  0.1040 -0.1738 -0.0035
 1811THY    HP445260   2.495   7.660   1.154 -1.6029 -0.9770  1.1199
 1811THY    CP345261   2.233   7.611   1.142  0.0123  0.4103  0.0667
 1811THY    HP545262   2.278   7.566   1.231 -2.2934  0.2478  1.2014
 1811THY    HP645263   2.195   7.710   1.168  0.7612  0.7743 -0.1950
 1811THY    HP745264   2.151   7.550   1.101  0.3849 -0.7541  0.9849
 1811THY    CA345265   2.235   7.774   0.862  0.1061  1.1738 -0.2701
 1811THY    HA345266   2.247   7.847   0.941 -1.3932  1.5300 -0.3422
 1811THY    CA445267   2.202   7.813   0.732 -0.7786  0.9754 -0.0523
 1811THY    HA445268   2.179   7.915   0.704  0.7091  1.1771 -0.6107
 1811THY    CA545269   2.182   7.716   0.638 -0.3171  0.2230  0.5482
 1811THY    CM145270   2.154   7.753   0.492  0.6660  0.4259 -0.6995
 1811THY    HM145271   2.050   7.789   0.487  0.6070  0.5031  0.6076
 1811THY    HM245272   2.220   7.835   0.462  0.0528  0.6728 -1.3966
 1811THY    HM345273   2.155   7.675   0.415 -0.8249  1.3391 -1.6890
 1811THY    CA645274   2.195   7.585   0.665 -0.0703  0.7003 -0.0593
 1811THY    HA645275   2.182   7.514   0.584  2.2150 -0.1272  0.2124
 1812THY      O45276   0.205   3.906   0.339 -0.2276 -0.1272  0.2201
 1812THY     HO45277   0.300   3.903   0.319  0.2503 -0.1956  2.2757
 1812THY    CA145278   0.178   3.826   0.445  0.0581  0.0703  1.0370
 1812THY    CA245279   0.054   3.827   0.513 -0.4222  0.2301 -0.9267
 1812THY    CP145280  -0.062   3.923   0.474  0.2788 -0.8940  0.0646
 1812THY    HP145281  -0.032   3.995   0.398 -1.1531 -2.2949 -1.9132
 1812THY    CP245282  -0.187   3.846   0.409  0.5819  0.0256 -0.2039
 1812THY    HP245283  -0.178   3.814   0.305  1.7419  0.0410 -0.1253
 1812THY    HP345284  -0.215   3.756   0.465  1.4011 -0.0779  0.0501
 1812THY    HP445285  -0.266   3.921   0.399 -0.3415 -0.6737  1.4249
 1812THY    CP345286  -0.097   4.011   0.595 -0.7507  0.2679 -0.5945
 1812THY    HP545287  -0.003   4.048   0.638 -0.8772  0.4232 -0.4506
 1812THY    HP645288  -0.180   4.082   0.580 -2.4477 -1.4070  0.4215
 1812THY    HP745289  -0.128   3.940   0.673  0.1772 -0.7704 -1.1432
 1812THY    CA345290   0.030   3.724   0.604 -0.2847 -0.2962  0.1331
 1812THY    HA345291  -0.067   3.710   0.650  0.7320  0.9729  2.8745
 1812THY    CA445292   0.134   3.634   0.633 -0.3293 -0.1960 -0.7103
 1812THY    HA445293   0.125   3.551   0.703  1.7925  0.2355  0.1333
 1812THY    CA545294   0.263   3.642   0.574 -0.1137 -0.4277 -0.5725
 1812THY    CM145295   0.364   3.535   0.610  0.0934  0.5168 -0.1670
 1812THY    HM145296   0.429   3.507   0.526 -1.5637 -0.8757 -1.0473
 1812THY    HM245297   0.421   3.558   0.701 -1.5932  1.5310  0.6801
 1812THY    HM345298   0.314   3.443   0.641 -1.1389  0.5738 -1.8608
 1812THY    CA645299   0.279   3.740   0.477 -0.2068  0.0499 -0.0962
 1812THY    HA645300   0.368   3.753   0.418  0.4149 -1.3603  0.5021
 1813THY      O45301   4.487   9.322   1.348 -0.4834 -0.3911  0.5400
 1813THY     HO45302   4.553   9.375   1.397 -1.4184  1.5121 -0.1627
 1813THY    CA145303   4.490   9.200   1.391 -0.1616  0.3418  0.2657
 1813THY    CA245304   4.388   9.111   1.369  0.8826 -0.1767  0.1156
 1813THY    CP145305   4.249   9.170   1.339 -0.4152 -0.4812  0.2303
 1813THY    HP145306   4.245   9.269   1.292  0.6303  0.0157  1.1520
 1813THY    CP245307   4.167   9.089   1.248 -0.4520 -0.0445  0.1340
 1813THY    HP245308   4.216   9.063   1.154  0.1982 -3.4091  1.2411
 1813THY    HP345309   4.138   8.997   1.302 -1.1417 -0.5493 -1.0491
 1813THY    HP445310   4.080   9.152   1.225 -0.4404 -0.3555 -0.8107
 1813THY    CP345311   4.178   9.179   1.477  0.2525 -0.2523 -1.1826
 1813THY    HP545312   4.220   9.255   1.542 -0.1017 -0.3949 -0.7802
 1813THY    HP645313   4.074   9.210   1.460 -0.4351 -2.6074 -1.7584
 1813THY    HP745314   4.172   9.085   1.533  0.9518 -0.0658 -0.7948
 1813THY    CA345315   4.399   8.977   1.410 -0.4396 -0.0756  0.1457
 1813THY    HA345316   4.313   8.912   1.410 -0.1204 -0.5149 -0.4534
 1813THY    CA445317   4.512   8.944   1.481 -0.5858 -1.5149  0.2093
 1813THY    HA445318   4.516   8.845   1.525 -0.8159 -1.6846 -0.1475
 1813THY    CA545319   4.620   9.030   1.488 -0.0721  0.3200  0.3246
 1813THY    CM145320   4.749   8.990   1.551 -0.0596 -0.3619  0.4575
 1813THY    HM145321   4.836   9.002   1.486  0.1166 -1.4475  0.4594
 1813THY    HM245322   4.764   9.038   1.649 -0.8379 -0.4564  0.6272
 1813THY    HM345323   4.738   8.885   1.583 -0.3969 -0.8619 -1.1853
 1813THY    CA645324   4.608   9.160   1.445 -0.1470  0.1523  0.1382
 1813THY    HA645325   4.687   9.234   1.452  1.8258 -1.6358 -1.4360
 1814THY      O45326   1.138   7.349   0.540 -0.3933  0.3328 -0.1738
 1814THY     HO45327   1.066   7.316   0.483  0.4030 -0.6901 -0.6269
 1814THY    CA145328   1.125   7.282   0.657 -0.8990  0.3517  0.6739
 1814THY    CA245329   1.225   7.287   0.755 -0.2254 -0.6742 -0.7778
 1814THY    CP145330   1.356   7.370   0.725  0.8021  0.8394 -0.2237
 1814THY    HP145331   1.348   7.425   0.631 -0.5031 -1.0241 -1.2867
 1814THY    CP245332   1.376   7.480   0.833 -0.0084  0.4770 -0.1853
 1814THY    HP245333   1.384   7.437   0.934  0.2483 -0.9072 -0.7664
 1814THY    HP345334   1.460   7.547   0.814  1.2309 -1.5498 -2.4582
 1814THY    HP445335   1.283   7.539   0.835  0.4067  1.1981 -1.3210
 1814THY    CP345336   1.470   7.274   0.732  0.2989 -0.3423  0.7247
 1814THY    HP545337   1.471   7.211   0.642  1.7470  0.2725  0.2961
 1814THY    HP645338   1.561   7.334   0.731 -1.6116  2.7681 -1.3514
 1814THY    HP745339   1.468   7.207   0.819  0.1139  0.3905  1.2883
 1814THY    CA345340   1.205   7.223   0.873 -0.4091  0.2417 -0.5616
 1814THY    HA345341   1.271   7.230   0.959 -0.8693 -2.2150  0.0554
 1814THY    CA445342   1.084   7.151   0.897  0.1716 -0.1478 -0.1765
 1814THY    HA445343   1.071   7.096   0.990  0.9200 -2.2212 -1.2375
 1814THY    CA545344   0.979   7.158   0.802 -0.1151  0.5123  0.1617
 1814THY    CM145345   0.847   7.085   0.830 -0.2848 -0.2151  0.0926
 1814THY    HM145346   0.872   6.979   0.838 -1.6104 -0.4042  3.0959
 1814THY    HM245347   0.802   7.114   0.925  2.9621  1.5182  1.2737
 1814THY    HM345348   0.780   7.093   0.743  0.2261 -1.3591 -0.4196
 1814THY    CA645349   1.002   7.223   0.685  0.1185  0.4171  0.0649
 1814THY    HA645350   0.927   7.229   0.607 -0.0962 -0.7583  0.1631
 1815THY      O45351   9.367   5.910   0.267  0.4409 -0.0882  0.7949
 1815THY     HO45352   9.381   6.004   0.248 -0.4088 -0.3523 -1.3087
 1815THY    CA145353   9.476   5.838   0.227 -0.3668 -0.4045 -0.5275
 1815THY    CA245354   9.476   5.698   0.205 -0.3915 -0.5535 -0.8189
 1815THY    CP145355   9.347   5.618   0.210  0.4374 -0.0902 -0.4975
 1815THY    HP145356   9.365   5.520   0.163  1.7534 -0.8498  1.4374
 1815THY    CP245357   9.290   5.583   0.351 -0.2888  0.0905  0.1221
 1815THY    HP245358   9.369   5.530   0.405 -0.9755  1.2518  2.3727
 1815THY    HP345359   9.273   5.679   0.401  1.0256  1.0832 -1.2332
 1815THY    HP445360   9.210   5.509   0.343  1.1837 -1.7652  1.5120
 1815THY    CP345361   9.242   5.683   0.116  0.0105  0.6216 -0.4945
 1815THY    HP545362   9.196   5.775   0.153 -2.9813 -1.0745  0.3461
 1815THY    HP645363   9.284   5.697   0.016  1.3432 -1.7000 -0.3306
 1815THY    HP745364   9.156   5.614   0.113 -0.0875  0.4844  2.6470
 1815THY    CA345365   9.601   5.633   0.183  0.5897  0.2704  0.0214
 1815THY    HA345366   9.605   5.525   0.167 -1.6345  0.2295 -0.5307
 1815THY    CA445367   9.715   5.706   0.191  0.6343 -0.6463  0.4520
 1815THY    HA445368   9.812   5.658   0.190  0.5585 -0.8513  1.5983
 1815THY    CA545369   9.711   5.851   0.190 -0.2065  0.6029 -0.1089
 1815THY    CM145370   9.838   5.925   0.176 -0.4785  0.0227  0.1871
 1815THY    HM145371   9.888   5.919   0.274 -1.6612 -3.9429  0.7458
 1815THY    HM245372   9.912   5.886   0.106  1.2538  0.6997  1.5689
 1815THY    HM345373   9.815   6.027   0.144 -1.5662 -0.6746 -1.3814
 1815THY    CA645374   9.591   5.911   0.215  0.8597  0.2683  0.6851
 1815THY    HA645375   9.594   6.017   0.236  0.7812  1.0065 -2.4356
 1816THY      O45376   8.395   2.747   9.432 -0.1100  0.1294 -0.1015
 1816THY     HO45377   8.417   2.731   9.526  0.2494  2.8018  0.3239
 1816THY    CA145378   8.386   2.624   9.376 -0.2621  0.0697 -0.4490
 1816THY    CA245379   8.385   2.605   9.237  0.4883  0.3413 -0.0172
 1816THY    CP145380   8.375   2.726   9.141 -0.1342 -0.1087 -0.2893
 1816THY    HP145381   8.409   2.813   9.197 -0.5225  0.8155 -1.4404
 1816THY    CP245382   8.456   2.727   9.017  0.4415  0.2059 -0.2383
 1816THY    HP245383   8.552   2.692   9.056 -0.3398  1.0390  2.7310
 1816THY    HP345384   8.410   2.659   8.944 -1.4469  1.5384 -0.3499
 1816THY    HP445385   8.469   2.822   8.965  2.0035  1.3029  1.9839
 1816THY    CP345386   8.229   2.762   9.117  0.5465 -0.2202 -0.0486
 1816THY    HP545387   8.221   2.848   9.051  2.0392 -0.4013 -0.4876
 1816THY    HP645388   8.177   2.674   9.077  1.9682 -1.0535 -0.1226
 1816THY    HP745389   8.179   2.794   9.210 -1.3973  0.1584 -1.1615
 1816THY    CA345390   8.383   2.469   9.188  0.3572 -0.1245 -0.1012
 1816THY    HA345391   8.375   2.462   9.080  3.1657  1.1674 -0.4780
 1816THY    CA445392   8.398   2.365   9.282  0.1101  0.0275  0.4793
 1816THY    HA445393   8.392   2.261   9.251  1.5093 -0.1032  0.5966
 1816THY    CA545394   8.397   2.387   9.424 -0.0318  0.6997  0.1740
 1816THY    CM145395   8.379   2.268   9.521 -1.0044  0.4375  0.5796
 1816THY    HM145396   8.408   2.172   9.477  2.9419  1.6649  0.1791
 1816THY    HM245397   8.448   2.284   9.604  0.2205  0.7249 -0.4632
 1816THY    HM345398   8.274   2.255   9.551 -2.2807 -1.2082 -3.7884
 1816THY    CA645399   8.400   2.517   9.466 -1.0571  0.2108  0.5239
 1816THY    HA645400   8.411   2.525   9.574 -0.3624  0.4928  0.4378
 1817THY      O45401   6.505   5.705   9.452  0.8109 -0.4560 -0.1493
 1817THY     HO45402   6.532   5.665   9.537  1.1523  1.3433  0.6178
 1817THY    CA145403   6.371   5.708   9.444 -0.0014 -0.1257 -0.0006
 1817THY    CA245404   6.306   5.693   9.318 -0.7943 -0.0864 -0.1673
 1817THY    CP145405   6.393   5.656   9.196 -0.1219  0.4233  0.3020
 1817THY    HP145406   6.497   5.636   9.223  0.4926  2.6910 -0.1921
 1817THY    CP245407   6.327   5.539   9.127  0.1080 -0.4990  0.0958
 1817THY    HP245408   6.228   5.572   9.093  0.8863  0.9373 -0.9145
 1817THY    HP345409   6.386   5.512   9.038 -0.2259 -1.2728  0.1061
 1817THY    HP445410   6.322   5.454   9.195 -0.0305  0.2010  0.9710
 1817THY    CP345411   6.401   5.774   9.094 -0.5531  0.1777  0.3222
 1817THY    HP545412   6.303   5.788   9.046  0.0482  1.9824 -0.4495
 1817THY    HP645413   6.429   5.861   9.154  1.2118 -1.3390  1.8461
 1817THY    HP745414   6.471   5.763   9.010  1.1790  0.9332  1.6035
 1817THY    CA345415   6.171   5.715   9.315  0.1843  0.4508  0.6920
 1817THY    HA345416   6.119   5.706   9.220  1.6875 -1.6294  0.0030
 1817THY    CA445417   6.104   5.764   9.428 -0.7669 -1.1245  0.4793
 1817THY    HA445418   6.002   5.800   9.420 -0.1555  0.4386 -1.0165
 1817THY    CA545419   6.174   5.791   9.540  0.0299 -0.4001 -0.3196
 1817THY    CM145420   6.117   5.866   9.658  0.1416  0.5097  0.0960
 1817THY    HM145421   6.047   5.945   9.628 -2.2146 -1.4244  0.1400
 1817THY    HM245422   6.035   5.805   9.700  0.5851 -1.4176 -1.7002
 1817THY    HM345423   6.192   5.907   9.727 -0.0979  0.1938  0.5487
 1817THY    CA645424   6.306   5.763   9.552 -0.0368 -0.5888 -0.2330
 1817THY    HA645425   6.365   5.795   9.638  1.9096  1.3435 -2.1624
 1818THY      O45426   3.190   1.912   2.085 -0.1805  0.2927  0.1967
 1818THY     HO45427   3.114   1.889   2.141 -0.1822  2.2335  1.0598
 1818THY    CA145428   3.136   1.976   1.982  0.8308 -0.1418 -0.5868
 1818THY    CA245429   3.220   2.045   1.891  0.4173  0.0101 -1.0781
 1818THY    CP145430   3.377   2.057   1.911  0.5155 -0.9633  0.0543
 1818THY    HP145431   3.404   2.018   2.010  2.0871  0.1252  0.1027
 1818THY    CP245432   3.442   1.971   1.794  0.0295  0.2251 -0.3727
 1818THY    HP245433   3.395   1.872   1.794 -1.6775  0.9864  0.1361
 1818THY    HP345434   3.414   2.022   1.701  0.4888 -0.4987 -0.9132
 1818THY    HP445435   3.551   1.960   1.800 -0.0375 -0.0557  0.3809
 1818THY    CP345436   3.425   2.202   1.904  0.8395 -0.9599  0.3403
 1818THY    HP545437   3.534   2.206   1.913  1.0567  3.2979 -1.7213
 1818THY    HP645438   3.403   2.253   1.809 -2.9284 -0.8413  1.1037
 1818THY    HP745439   3.386   2.268   1.983  0.3111 -0.2983 -0.4555
 1818THY    CA345440   3.162   2.112   1.779 -0.7668  0.2218 -0.2881
 1818THY    HA345441   3.222   2.170   1.709  1.0061 -0.9404  0.2036
 1818THY    CA445442   3.029   2.090   1.754  0.0517 -0.1782  0.0614
 1818THY    HA445443   2.985   2.159   1.682  2.0318  1.5484  0.3944
 1818THY    CA545444   2.954   2.007   1.832  1.2464 -0.0888 -0.1082
 1818THY    CM145445   2.801   2.007   1.820 -0.5092 -0.1135  0.6540
 1818THY    HM145446   2.762   2.105   1.791 -1.9207 -0.9278 -0.3458
 1818THY    HM245447   2.775   1.927   1.749 -0.2994 -0.1808  0.6538
 1818THY    HM345448   2.757   1.988   1.919 -1.1665 -0.7643  0.2540
 1818THY    CA645449   3.003   1.961   1.947 -0.1986 -0.5233 -0.5926
 1818THY    HA645450   2.934   1.903   2.007  2.1386  0.4409  3.3620
 1819THY      O45451   8.416   5.562   7.023 -0.0618 -0.4483 -0.1054
 1819THY     HO45452   8.487   5.601   7.077  2.1596  0.6549 -3.4794
 1819THY    CA145453   8.417   5.429   7.025 -0.5923 -0.2118  0.0769
 1819THY    CA245454   8.340   5.354   6.936  0.4225  0.2238  0.7001
 1819THY    CP145455   8.242   5.409   6.838  0.1916  0.1761  0.3970
 1819THY    HP145456   8.244   5.519   6.841 -0.5310  0.2219 -0.2496
 1819THY    CP245457   8.277   5.371   6.697 -0.4330 -0.4906 -0.4991
 1819THY    HP245458   8.271   5.266   6.666 -0.4825 -0.6729  0.1182
 1819THY    HP345459   8.208   5.417   6.625 -0.1894  0.0364 -0.3973
 1819THY    HP445460   8.381   5.402   6.681 -0.3131  0.2812  1.4748
 1819THY    CP345461   8.098   5.369   6.873  0.3247 -0.5120  0.3726
 1819THY    HP545462   8.097   5.265   6.909  3.0964 -0.6738  0.1845
 1819THY    HP645463   8.060   5.438   6.949  0.4901 -0.0020 -0.0048
 1819THY    HP745464   8.029   5.371   6.787  0.7557 -1.1116  0.0012
 1819THY    CA345465   8.346   5.215   6.947  0.3878 -0.3008 -0.3354
 1819THY    HA345466   8.280   5.150   6.890 -2.0817  1.4013  0.4427
 1819THY    CA445467   8.441   5.155   7.037 -0.1455  0.2156 -0.1989
 1819THY    HA445468   8.426   5.051   7.063 -0.8195  0.2201 -0.5638
 1819THY    CA545469   8.514   5.232   7.130 -0.4728  0.3809  0.0704
 1819THY    CM145470   8.587   5.174   7.248 -0.2819  0.1914  0.5725
 1819THY    HM145471   8.612   5.253   7.321  0.5341 -0.4096  0.9652
 1819THY    HM245472   8.524   5.107   7.307  2.3722 -1.4174  1.7738
 1819THY    HM345473   8.679   5.120   7.223  0.4474  0.7167  2.0070
 1819THY    CA645474   8.497   5.369   7.120 -0.6188 -0.2808  0.6059
 1819THY    HA645475   8.563   5.431   7.180 -0.4937  1.1348 -0.9011
 1820THY      O45476   9.737   8.593   1.428  0.1080 -0.9836 -0.7101
 1820THY     HO45477   9.728   8.497   1.418  0.3163 -1.0591 -0.1779
 1820THY    CA145478   9.860   8.613   1.381 -0.2084 -0.1405  0.2139
 1820THY    CA245479   9.876   8.689   1.262  0.3650  0.1886  0.5350
 1820THY    CP145480   9.754   8.755   1.203  0.6193  0.3190  0.9407
 1820THY    HP145481   9.663   8.714   1.248  1.7652 -1.8501  1.3813
 1820THY    CP245482   9.746   8.908   1.235 -0.4165 -0.1677 -0.4455
 1820THY    HP245483   9.746   8.919   1.344 -0.7231  1.8415 -0.6046
 1820THY    HP345484   9.837   8.954   1.194  0.8395 -3.0167 -1.0965
 1820THY    HP445485   9.650   8.953   1.205 -0.9149 -0.6711  0.3584
 1820THY    CP345486   9.742   8.745   1.046  0.0305 -0.3366  0.3544
 1820THY    HP545487   9.833   8.791   1.006  0.4009 -1.2165  0.1612
 1820THY    HP645488   9.757   8.640   1.018  0.7487  0.1590 -1.1924
 1820THY    HP745489   9.651   8.789   1.005  0.6308  2.3910  1.6865
 1820THY    CA345490  10.008   8.691   1.198  0.0594  0.4258 -0.7819
 1820THY    HA345491  10.026   8.761   1.117  0.8661  1.7225  0.4630
 1820THY    CA445492  10.114   8.635   1.269 -0.1748  0.4364 -0.3147
 1820THY    HA445493  10.218   8.645   1.241  0.8696 -2.6389  1.9777
 1820THY    CA545494  10.089   8.558   1.386  0.3234  0.0082 -0.4998
 1820THY    CM145495  10.198   8.470   1.440 -0.6435  0.0775 -0.4274
 1820THY    HM145496  10.228   8.397   1.364 -0.2819 -0.9365  0.6685
 1820THY    HM245497  10.278   8.538   1.469 -1.6794  0.4540  1.7424
 1820THY    HM345498  10.183   8.413   1.533  1.6115 -2.8249 -1.6744
 1820THY    CA645499   9.964   8.545   1.442 -0.4427  0.0941  0.3396
 1820THY    HA645500   9.958   8.479   1.528  3.5768  0.6170  1.2263
 1821THY      O45501   7.386   1.069   3.519 -0.1356  0.0789 -0.3554
 1821THY     HO45502   7.480   1.093   3.518  0.3000 -1.2918 -3.4053
 1821THY    CA145503   7.378   1.016   3.393 -0.4523 -0.4961 -0.2935
 1821THY    CA245504   7.266   0.949   3.346 -0.2781  0.4619  0.5312
 1821THY    CP145505   7.148   0.929   3.439  0.1033 -0.2962 -0.0711
 1821THY    HP145506   7.148   0.999   3.523 -1.6734  2.3566 -2.0637
 1821THY    CP245507   7.007   0.962   3.375  0.3150 -0.2725 -0.1346
 1821THY    HP245508   6.937   0.948   3.458  0.1902 -0.3430 -0.2501
 1821THY    HP345509   7.003   1.069   3.350 -1.2617 -0.0435  0.9588
 1821THY    HP445510   6.983   0.902   3.286 -1.8665  1.2523 -0.6535
 1821THY    CP345511   7.155   0.790   3.496  0.6399  0.1025 -0.6471
 1821THY    HP545512   7.175   0.721   3.413 -2.4685 -0.6817 -0.8983
 1821THY    HP645513   7.242   0.778   3.561  0.1232  0.5257  0.1390
 1821THY    HP745514   7.064   0.755   3.547  2.1588 -0.1969  2.0694
 1821THY    CA345515   7.265   0.906   3.211  0.9128 -0.5252 -0.4602
 1821THY    HA345516   7.177   0.853   3.173  0.8100 -2.6640  2.4423
 1821THY    CA445517   7.378   0.920   3.139 -0.2671  0.2509  0.2187
 1821THY    HA445518   7.377   0.884   3.036  0.5949  1.1704 -0.1274
 1821THY    CA545519   7.491   0.986   3.194 -0.0911  0.0092  0.6585
 1821THY    CM145520   7.611   0.996   3.103 -0.8954 -0.4406  0.4067
 1821THY    HM145521   7.648   0.894   3.086  1.0455  0.7988 -4.5758
 1821THY    HM245522   7.589   1.028   3.000  0.1827  1.5423  0.7467
 1821THY    HM345523   7.686   1.064   3.143 -0.8108 -2.0845  3.2863
 1821THY    CA645524   7.490   1.036   3.317 -0.3444  0.5396 -0.6124
 1821THY    HA645525   7.581   1.090   3.344 -0.0862 -0.5775  0.8698
 1822THY      O45526   5.836   0.120   2.015 -0.1181  0.4640  0.4947
 1822THY     HO45527   5.804   0.206   1.985 -0.0505 -0.0653 -1.1924
 1822THY    CA145528   5.728   0.044   2.008  0.6318 -0.1002  0.8090
 1822THY    CA245529   5.725  -0.087   2.046 -0.5068  0.3414  0.1095
 1822THY    CP145530   5.857  -0.137   2.097 -0.3348  0.3251  0.0504
 1822THY    HP145531   5.941  -0.090   2.046 -1.3224  0.8487 -1.1390
 1822THY    CP245532   5.872  -0.112   2.246  0.6084 -1.2859 -0.6973
 1822THY    HP245533   5.960  -0.165   2.284  0.4707 -0.8554  0.2703
 1822THY    HP345534   5.892  -0.005   2.262  1.1555 -1.7798  2.5893
 1822THY    HP445535   5.788  -0.159   2.299 -1.5321  0.4561 -2.2972
 1822THY    CP345536   5.871  -0.284   2.062 -0.5063  0.4647 -0.5810
 1822THY    HP545537   5.784  -0.337   2.103  0.2001 -1.0865 -1.0202
 1822THY    HP645538   5.880  -0.301   1.954 -2.4490  0.6368 -0.8151
 1822THY    HP745539   5.965  -0.329   2.094  0.1433  0.8573 -1.8407
 1822THY    CA345540   5.604  -0.151   2.064  0.2023  0.1919 -0.7788
 1822THY    HA345541   5.596  -0.249   2.108 -1.2518  1.1888  1.3306
 1822THY    CA445542   5.488  -0.084   2.034 -0.1517  0.4387 -0.0045
 1822THY    HA445543   5.396  -0.131   2.066  0.5429 -1.6027 -0.8654
 1822THY    CA545544   5.489   0.054   1.993  0.0384  0.4471 -0.2488
 1822THY    CM145545   5.358   0.130   1.969 -0.5421 -0.2664 -0.3442
 1822THY    HM145546   5.371   0.204   1.888  0.7401  0.1586  0.2241
 1822THY    HM245547   5.269   0.074   1.935 -0.6163  0.1133 -0.8004
 1822THY    HM345548   5.340   0.180   2.065  2.8615  1.6786 -0.5655
 1822THY    CA645549   5.612   0.114   1.978 -0.5711 -0.3642 -0.1385
 1822THY    HA645550   5.606   0.219   1.952  0.1157 -0.7013 -1.8435
 1823THY      O45551   4.435   7.072   4.047 -0.2724 -0.0385 -0.4289
 1823THY     HO45552   4.456   7.155   4.001  0.2939  0.2666  0.3716
 1823THY    CA145553   4.509   6.986   3.969  0.8430 -0.0853 -0.0588
 1823THY    CA245554   4.553   6.859   4.016  0.2892 -0.7146  0.2101
 1823THY    CP145555   4.526   6.817   4.163  0.6429  0.8305  0.3197
 1823THY    HP145556   4.494   6.904   4.223 -0.4946  1.4764 -1.1613
 1823THY    CP245557   4.396   6.732   4.179  0.6747  1.2124 -0.0534
 1823THY    HP245558   4.316   6.790   4.132 -0.0818  0.7502  0.6367
 1823THY    HP345559   4.410   6.634   4.132 -0.9275  0.9693 -0.0825
 1823THY    HP445560   4.352   6.717   4.278 -0.1995 -2.3134 -0.8323
 1823THY    CP345561   4.648   6.748   4.237 -0.1724 -0.3582  0.0186
 1823THY    HP545562   4.731   6.814   4.262 -0.2575 -0.5251  0.7515
 1823THY    HP645563   4.604   6.718   4.333 -2.1354  0.8101 -0.4610
 1823THY    HP745564   4.690   6.666   4.176  0.5461  1.0036 -1.3810
 1823THY    CA345565   4.629   6.772   3.936  0.4070 -0.3345  0.5194
 1823THY    HA345566   4.658   6.674   3.972  1.2467 -0.4199 -0.3452
 1823THY    CA445567   4.657   6.822   3.807  0.5046 -0.1733  0.0124
 1823THY    HA445568   4.704   6.755   3.736 -2.9218 -0.3842 -2.2693
 1823THY    CA545569   4.614   6.947   3.763 -0.4243  0.2914  0.2746
 1823THY    CM145570   4.647   6.983   3.622  1.0175  0.5454 -0.1297
 1823THY    HM145571   4.626   7.090   3.619 -0.1864  0.3092 -1.5591
 1823THY    HM245572   4.754   6.971   3.601  0.9115 -2.4821  0.5287
 1823THY    HM345573   4.580   6.928   3.555  0.4626  1.0580 -0.0024
 1823THY    CA645574   4.542   7.028   3.841 -0.5258  0.2389  0.4011
 1823THY    HA645575   4.509   7.126   3.807  0.6266  0.9277  1.1777
 1824THY      O45576   6.800   6.957   3.259 -0.6481 -0.5268  0.4913
 1824THY     HO45577   6.728   6.963   3.193  0.2307  0.3381 -0.4221
 1824THY    CA145578   6.900   7.037   3.222 -0.3799 -0.7197  0.4554
 1824THY    CA245579   7.006   7.066   3.307 -0.4893 -0.1482  0.9891
 1824THY    CP145580   7.007   7.010   3.449 -0.0804  0.5998  0.0764
 1824THY    HP145581   6.906   6.971   3.469  0.6141 -1.2647  0.1208
 1824THY    CP245582   7.107   6.900   3.457 -0.1954  0.2800 -0.5268
 1824THY    HP245583   7.207   6.944   3.462 -0.9426  2.0861 -0.2945
 1824THY    HP345584   7.091   6.846   3.551  0.6794 -1.7036 -1.4739
 1824THY    HP445585   7.095   6.848   3.361  0.3912  2.2518 -1.7255
 1824THY    CP345586   7.030   7.121   3.549  0.2871  0.2248  0.0669
 1824THY    HP545587   6.958   7.204   3.539 -0.5672 -0.7527 -3.0560
 1824THY    HP645588   7.030   7.085   3.652 -1.5318  0.8365  0.3143
 1824THY    HP745589   7.126   7.174   3.538  0.7470 -0.7308 -0.5902
 1824THY    CA345590   7.111   7.143   3.265 -0.3688 -0.0010  0.0003
 1824THY    HA345591   7.180   7.178   3.341 -0.9332 -2.5637  1.8201
 1824THY    CA445592   7.116   7.193   3.135 -0.1053  0.0717 -0.1160
 1824THY    HA445593   7.200   7.260   3.119  2.0948 -1.6807  2.9675
 1824THY    CA545594   7.019   7.155   3.047  0.2981  0.0069 -0.0214
 1824THY    CM145595   7.021   7.208   2.904  1.0100  0.3444 -0.9845
 1824THY    HM145596   7.122   7.242   2.880  1.5383  0.3078  1.0144
 1824THY    HM245597   6.986   7.133   2.832 -0.3667  0.6200 -0.6407
 1824THY    HM345598   6.957   7.296   2.891  2.2495  1.1854 -1.5312
 1824THY    CA645599   6.912   7.077   3.091 -0.0661 -0.0286 -0.3271
 1824THY    HA645600   6.835   7.042   3.023 -0.9732  0.7553  0.2879
 1825THY      O45601   9.527   2.771   7.362 -0.4451 -0.4480  0.0183
 1825THY     HO45602   9.457   2.766   7.294  1.8101 -2.2005 -2.3925
 1825THY    CA145603   9.639   2.838   7.307  0.3131 -0.1240  0.0029
 1825THY    CA245604   9.779   2.811   7.349  0.5294  0.0232 -0.0148
 1825THY    CP145605   9.807   2.689   7.433  0.3454 -0.3824  0.0255
 1825THY    HP145606   9.746   2.690   7.524  0.2135 -0.3969 -0.0620
 1825THY    CP245607   9.789   2.550   7.370  0.1990  0.3308 -0.3051
 1825THY    HP245608   9.834   2.461   7.415  0.1101 -0.3074 -1.4308
 1825THY    HP345609   9.683   2.521   7.375 -0.1786  1.5206 -0.9956
 1825THY    HP445610   9.816   2.555   7.264 -0.8036 -3.5775 -0.9345
 1825THY    CP345611   9.944   2.698   7.499  0.5162  0.1056  0.2197
 1825THY    HP545612   9.947   2.798   7.542  1.4468  0.2528 -0.1703
 1825THY    HP645613   9.961   2.629   7.583 -0.1769  0.0943  0.3614
 1825THY    HP745614  10.030   2.685   7.433  0.8413 -1.7691  0.9333
 1825THY    CA345615   9.879   2.870   7.276  0.0793  0.3939  0.2360
 1825THY    HA345616   9.985   2.862   7.300  0.0074  2.7293  1.6279
 1825THY    CA445617   9.858   2.963   7.182  0.4928  0.3370 -0.2945
 1825THY    HA445618   9.941   3.021   7.144  2.0162 -1.7399 -0.2749
 1825THY    CA545619   9.734   3.006   7.148 -0.5206 -0.5384 -0.7707
 1825THY    CM145620   9.705   3.120   7.057 -0.1279 -0.0714  0.7019
 1825THY    HM145621   9.600   3.151   7.061 -0.6866 -1.4502 -1.3105
 1825THY    HM245622   9.762   3.211   7.079  1.8275 -0.8038 -0.9833
 1825THY    HM345623   9.719   3.102   6.950 -0.6732  1.3666  0.3632
 1825THY    CA645624   9.624   2.933   7.203 -0.4951  0.2220 -0.3790
 1825THY    HA645625   9.521   2.952   7.172 -0.9031 -0.6756  0.3660
 1826THY      O45626   9.005   7.644   3.259  0.2960 -0.1915 -0.0216
 1826THY     HO45627   9.032   7.570   3.202 -1.0064 -0.7641  0.0578
 1826THY    CA145628   8.934   7.734   3.183  0.5988  0.7403  0.5099
 1826THY    CA245629   8.850   7.832   3.234  0.0465  0.7824 -0.4410
 1826THY    CP145630   8.836   7.846   3.384 -0.0217 -0.0296  0.4966
 1826THY    HP145631   8.902   7.771   3.430 -0.3882  0.1000  1.2438
 1826THY    CP245632   8.902   7.984   3.433  0.6941  0.5799 -0.7394
 1826THY    HP245633   8.989   8.000   3.368  0.7849  1.6407 -0.3652
 1826THY    HP345634   8.840   8.073   3.425  1.1622  1.2097  1.6815
 1826THY    HP445635   8.923   7.971   3.540 -2.0753 -1.1422 -0.3168
 1826THY    CP345636   8.693   7.814   3.445  0.0840  0.0700  0.2893
 1826THY    HP545637   8.665   7.710   3.426  0.4751  0.2147 -1.2453
 1826THY    HP645638   8.709   7.821   3.553 -1.1123 -0.4751  0.5115
 1826THY    HP745639   8.622   7.894   3.421  2.4804  1.6554 -2.2892
 1826THY    CA345640   8.781   7.925   3.151 -0.3785  0.0498 -0.4651
 1826THY    HA345641   8.714   7.997   3.198  1.4482 -0.6902  3.6771
 1826THY    CA445642   8.795   7.905   3.007  0.5147  0.1830 -0.3229
 1826THY    HA445643   8.748   7.974   2.937 -2.6866 -1.4432  0.0300
 1826THY    CA545644   8.870   7.801   2.957  0.3131  0.8487  0.1392
 1826THY    CM145645   8.892   7.801   2.809 -0.0116  0.2491 -0.3034
 1826THY    HM145646   8.796   7.804   2.757 -0.6987  0.7828  0.9259
 1826THY    HM245647   8.927   7.899   2.774 -0.0779  0.2332 -0.4138
 1826THY    HM345648   8.950   7.716   2.772 -0.7220  0.2366 -1.4185
 1826THY    CA645649   8.939   7.721   3.045  0.3137 -0.0391 -0.3280
 1826THY    HA645650   9.008   7.645   3.009 -0.0028 -0.3786 -0.2285
 1827THY      O45651   0.114   4.856   6.441 -0.0944 -0.5621 -0.4690
 1827THY     HO45652   0.098   4.847   6.536  2.4512  2.2468  0.3924
 1827THY    CA145653   0.245   4.886   6.432  0.0210 -0.1801 -0.2995
 1827THY    CA245654   0.296   4.978   6.338 -0.1780 -0.5643  0.1912
 1827THY    CP145655   0.197   5.044   6.237  0.0996  0.1048  0.0555
 1827THY    HP145656   0.096   5.023   6.273  0.0168 -1.4218 -0.9272
 1827THY    CP245657   0.207   5.195   6.226 -0.0561  0.2450 -0.0753
 1827THY    HP245658   0.219   5.237   6.326  0.3357  3.0542 -1.2096
 1827THY    HP345659   0.292   5.230   6.166  1.1064 -1.4601  0.4976
 1827THY    HP445660   0.116   5.236   6.182  0.3693  1.4766  0.1564
 1827THY    CP345661   0.200   4.983   6.098 -0.1750 -0.0385  0.2575
 1827THY    HP545662   0.122   5.025   6.033  0.3099  3.0781  1.4816
 1827THY    HP645663   0.299   4.999   6.054 -0.1246  0.1516  0.4351
 1827THY    HP745664   0.186   4.875   6.102 -1.1781  0.1170  1.5357
 1827THY    CA345665   0.438   5.003   6.332 -0.1307  0.1150 -0.7907
 1827THY    HA345666   0.483   5.071   6.261 -0.6006  1.6474  0.3003
 1827THY    CA445667   0.528   4.940   6.417 -0.7310  0.5174 -0.0422
 1827THY    HA445668   0.632   4.964   6.401 -0.1654 -0.6953  1.4435
 1827THY    CA545669   0.475   4.858   6.519 -0.0864  0.3433 -0.4190
 1827THY    CM145670   0.576   4.796   6.606  0.1808 -0.0828 -0.1158
 1827THY    HM145671   0.540   4.707   6.658 -3.0453  0.6936 -0.7962
 1827THY    HM245672   0.655   4.756   6.542  0.8021  0.7335  0.1221
 1827THY    HM345673   0.638   4.859   6.671 -0.4083 -0.2255  0.6055
 1827THY    CA645674   0.335   4.829   6.529 -0.2914  0.3165 -0.1011
 1827THY    HA645675   0.314   4.750   6.599  0.0536  0.1926 -0.1330
 1828THY      O45676   1.784   5.198   4.076  0.5079  0.2111 -0.1406
 1828THY     HO45677   1.709   5.151   4.119  0.6971 -2.4541 -2.4196
 1828THY    CA145678   1.798   5.326   4.110  0.2083  0.1882  0.4650
 1828THY    CA245679   1.878   5.414   4.034  0.0279  0.1796 -0.8612
 1828THY    CP145680   1.947   5.363   3.915 -0.2147  0.3760  0.4358
 1828THY    HP145681   1.912   5.264   3.884  2.7592 -0.2146 -1.4452
 1828THY    CP245682   1.907   5.454   3.797  0.4285  0.1575  0.0510
 1828THY    HP245683   1.968   5.544   3.787 -0.7261  1.1982  1.9146
 1828THY    HP345684   1.921   5.404   3.700  0.4744 -0.3466  0.3132
 1828THY    HP445685   1.800   5.478   3.806  0.7252  1.2500  0.9124
 1828THY    CP345686   2.100   5.344   3.930  0.2173 -1.0809 -0.2019
 1828THY    HP545687   2.124   5.276   4.012  2.8768  0.6968  0.6231
 1828THY    HP645688   2.140   5.299   3.838  0.2723 -0.9636 -0.2357
 1828THY    HP745689   2.144   5.444   3.938 -3.8684  0.8388  1.6635
 1828THY    CA345690   1.893   5.547   4.080 -0.6036  0.1612 -1.2501
 1828THY    HA345691   1.953   5.622   4.028  0.9341 -0.2865 -0.1787
 1828THY    CA445692   1.825   5.591   4.194  0.6441  0.3999 -0.0521
 1828THY    HA445693   1.838   5.692   4.232 -0.2296  0.0627  1.2167
 1828THY    CA545694   1.756   5.493   4.272 -0.4394  0.3070 -0.4645
 1828THY    CM145695   1.694   5.520   4.410 -0.1091  0.0359 -0.6380
 1828THY    HM145696   1.706   5.427   4.466  4.0598  0.8367  0.1032
 1828THY    HM245697   1.747   5.595   4.470  1.3546 -0.1595 -1.6401
 1828THY    HM345698   1.590   5.555   4.407 -1.0377 -2.3812  0.4587
 1828THY    CA645699   1.736   5.361   4.227  0.7047  0.3625  0.1584
 1828THY    HA645700   1.685   5.287   4.288  2.5838  1.5202  3.3551
 1829THY      O45701   7.355   5.663   4.118 -0.1695 -0.1244  0.0640
 1829THY     HO45702   7.302   5.744   4.120  1.7441  1.1863 -0.4480
 1829THY    CA145703   7.458   5.684   4.199 -0.3605  0.2090 -0.4836
 1829THY    CA245704   7.483   5.620   4.325  0.0158 -0.3061  0.2281
 1829THY    CP145705   7.374   5.517   4.377  0.4074  0.2523  0.1103
 1829THY    HP145706   7.302   5.504   4.295  2.3634 -2.3444 -1.3657
 1829THY    CP245707   7.431   5.372   4.387 -0.5147 -0.1672  0.2113
 1829THY    HP245708   7.507   5.375   4.465  1.4446 -0.6089 -1.6001
 1829THY    HP345709   7.347   5.304   4.406 -0.8781  0.3404  0.4615
 1829THY    HP445710   7.484   5.343   4.296  1.0821  2.1553  0.3188
 1829THY    CP345711   7.307   5.550   4.507 -0.4775  0.4584  0.0617
 1829THY    HP545712   7.387   5.581   4.575 -0.5230 -1.2370  0.9465
 1829THY    HP645713   7.241   5.635   4.488  0.7563  1.2548 -0.8817
 1829THY    HP745714   7.245   5.470   4.550 -1.2964  2.1720  2.2955
 1829THY    CA345715   7.600   5.651   4.402 -0.2150  0.2497  0.3926
 1829THY    HA345716   7.603   5.612   4.504 -1.9161 -3.9828 -0.9403
 1829THY    CA445717   7.705   5.722   4.339 -0.4250 -0.4190 -0.7843
 1829THY    HA445718   7.800   5.740   4.389  1.1289 -2.6963 -2.6896
 1829THY    CA545719   7.689   5.778   4.210  0.4852 -0.5576 -0.2354
 1829THY    CM145720   7.802   5.859   4.142  0.1688  0.1480  0.0492
 1829THY    HM145721   7.854   5.931   4.206 -0.5489 -0.1474  0.9905
 1829THY    HM245722   7.878   5.797   4.092  1.6524  1.2851  0.8080
 1829THY    HM345723   7.754   5.912   4.060  1.0121 -0.4149 -0.8263
 1829THY    CA645724   7.564   5.753   4.142  0.8747 -0.6541 -0.6912
 1829THY    HA645725   7.551   5.798   4.044  0.8204  0.5694 -0.1344
 1830THY      O45726   2.882   5.292   2.667  0.6921  0.1674 -0.2190
 1830THY     HO45727   2.914   5.325   2.581  2.6889 -0.6346  0.1516
 1830THY    CA145728   2.753   5.318   2.667  0.0419 -0.1719  0.4015
 1830THY    CA245729   2.674   5.305   2.784  0.6138  0.2111  0.2036
 1830THY    CP145730   2.730   5.250   2.919 -0.2871 -0.2389  0.2633
 1830THY    HP145731   2.840   5.251   2.920 -0.1358  1.6598 -2.9698
 1830THY    CP245732   2.696   5.347   3.034 -0.6755  0.0616  0.4110
 1830THY    HP245733   2.722   5.304   3.132 -0.3322  1.6922  1.0848
 1830THY    HP345734   2.757   5.436   3.010  1.6173 -1.3635  0.6385
 1830THY    HP445735   2.591   5.377   3.039 -0.6378  0.0100  2.2476
 1830THY    CP345736   2.677   5.111   2.937 -0.0822  0.4831  0.9021
 1830THY    HP545737   2.697   5.051   2.846  1.1026  1.4420  0.5112
 1830THY    HP645738   2.730   5.051   3.011  2.1641 -0.1844 -1.1319
 1830THY    HP745739   2.570   5.096   2.957  0.2115 -1.7496  1.1216
 1830THY    CA345740   2.533   5.328   2.774  0.5035  0.7085  0.0960
 1830THY    HA345741   2.462   5.332   2.857 -2.4232  3.3710 -2.2356
 1830THY    CA445742   2.482   5.374   2.651  0.0815 -0.3683 -0.8725
 1830THY    HA445743   2.378   5.406   2.647 -0.4705 -1.2083  3.2190
 1830THY    CA545744   2.563   5.387   2.538 -0.5564  0.5902  0.0498
 1830THY    CM145745   2.501   5.433   2.410 -0.0978 -0.5400 -0.4031
 1830THY    HM145746   2.407   5.381   2.390  0.3949 -1.7287  0.2474
 1830THY    HM245747   2.489   5.542   2.407 -0.4715 -0.5050  1.4555
 1830THY    HM345748   2.565   5.398   2.328  2.5766  1.0566  0.8730
 1830THY    CA645749   2.699   5.358   2.544  0.2000  0.1359  0.2632
 1830THY    HA645750   2.759   5.379   2.456  0.4339 -0.0704  0.3721
 1831THY      O45751   6.816   1.930   3.859  0.2943  0.4025  0.4938
 1831THY     HO45752   6.889   1.927   3.795 -0.3108 -2.0362 -0.1964
 1831THY    CA145753   6.792   1.804   3.894  0.1336 -0.3888 -0.7587
 1831THY    CA245754   6.674   1.779   3.967  0.0152 -0.3168 -0.3089
 1831THY    CP145755   6.605   1.892   4.032 -0.3062 -0.2675  0.4522
 1831THY    HP145756   6.679   1.969   4.057 -0.2261  0.0220 -0.6637
 1831THY    CP245757   6.505   1.942   3.938  0.2275  0.7360  0.4841
 1831THY    HP245758   6.437   1.860   3.912  0.5291  0.4120  0.7145
 1831THY    HP345759   6.452   2.027   3.983 -0.9739  0.3008 -0.0565
 1831THY    HP445760   6.544   1.978   3.842 -0.8639  1.2315  0.2164
 1831THY    CP345761   6.529   1.858   4.162 -0.4454  0.1553  0.6657
 1831THY    HP545762   6.448   1.787   4.144  1.4735 -2.0850  0.4240
 1831THY    HP645763   6.599   1.813   4.233 -0.3619 -0.4770  0.1902
 1831THY    HP745764   6.486   1.943   4.217 -2.0628 -0.0562 -0.2353
 1831THY    CA345765   6.633   1.639   3.995 -0.3969 -0.4326 -0.5704
 1831THY    HA345766   6.549   1.621   4.061 -0.0640  1.7249  0.5440
 1831THY    CA445767   6.706   1.533   3.935 -0.1354 -0.7273 -0.3609
 1831THY    HA445768   6.665   1.437   3.965 -1.3959  0.7259  3.1491
 1831THY    CA545769   6.815   1.566   3.847 -0.1343  0.2972  0.2079
 1831THY    CM145770   6.887   1.467   3.761  0.2455 -0.4328 -0.2188
 1831THY    HM145771   6.959   1.406   3.817  1.8183  0.2651 -1.3883
 1831THY    HM245772   6.823   1.411   3.692  1.9284 -0.5780 -1.7476
 1831THY    HM345773   6.947   1.523   3.689 -0.2022  1.8555  1.0989
 1831THY    CA645774   6.852   1.699   3.829  0.6510 -0.2439 -0.1350
 1831THY    HA645775   6.918   1.729   3.748 -0.1593 -0.0916 -0.7487
 1832THY      O45776   4.966   3.256   3.131  0.1957 -0.4531  0.5838
 1832THY     HO45777   4.877   3.293   3.115  0.0972 -1.3974 -1.3094
 1832THY    CA145778   5.000   3.190   3.010  0.4666 -0.5159  0.5830
 1832THY    CA245779   5.127   3.129   2.986 -0.6426  0.3516 -0.0227
 1832THY    CP145780   5.220   3.108   3.103 -0.3476  0.3091 -0.5629
 1832THY    HP145781   5.200   3.180   3.184  1.4709  2.4148 -1.8605
 1832THY    CP245782   5.198   2.967   3.158  0.1213  0.0900  0.0572
 1832THY    HP245783   5.252   2.952   3.252  2.0341  2.4432 -0.5594
 1832THY    HP345784   5.090   2.953   3.166  0.0690  0.9070  0.7906
 1832THY    HP445785   5.245   2.898   3.086 -0.0045  0.6004 -0.5179
 1832THY    CP345786   5.364   3.134   3.071 -0.5765  0.3628  0.1275
 1832THY    HP545787   5.370   3.219   3.001  1.2256 -1.3620 -1.9729
 1832THY    HP645788   5.416   3.152   3.166  1.6254 -0.6649 -0.8130
 1832THY    HP745789   5.405   3.043   3.027 -2.0887  0.0027 -0.5881
 1832THY    CA345790   5.160   3.073   2.862  0.1527 -0.0656  0.1505
 1832THY    HA345791   5.259   3.028   2.860  0.1442 -0.0738 -0.5703
 1832THY    CA445792   5.075   3.089   2.758  0.8764  0.2427 -0.3745
 1832THY    HA445793   5.097   3.037   2.665  0.0006 -1.7943  0.4913
 1832THY    CA545794   4.942   3.132   2.789  0.4869  0.3290  0.3613
 1832THY    CM145795   4.839   3.122   2.683 -0.6293  0.6180  0.4116
 1832THY    HM145796   4.879   3.129   2.581  1.1010  1.8847  1.1511
 1832THY    HM245797   4.774   3.033   2.683  1.0327 -0.6500  0.4815
 1832THY    HM345798   4.761   3.199   2.686 -1.8733 -0.6278  2.8729
 1832THY    CA645799   4.904   3.187   2.908  0.2111  0.9889 -0.4424
 1832THY    HA645800   4.810   3.239   2.918  0.4775  1.2469  0.8262
 1833THY      O45801   2.062   6.534   5.089  0.5340 -0.0297 -0.0027
 1833THY     HO45802   2.020   6.534   5.002  0.7751  1.1552 -0.1323
 1833THY    CA145803   2.005   6.641   5.159 -0.2597  0.0110 -0.7357
 1833THY    CA245804   1.970   6.638   5.297  0.7884 -0.6278  0.0999
 1833THY    CP145805   2.010   6.518   5.380  0.7594 -0.1956  0.5011
 1833THY    HP145806   2.111   6.485   5.349  1.9081  2.5354  1.0364
 1833THY    CP245807   2.025   6.552   5.531 -0.7445 -0.6061  0.1459
 1833THY    HP245808   2.083   6.644   5.523 -1.4620 -0.2283 -0.8454
 1833THY    HP345809   1.926   6.570   5.575 -0.9608 -1.2678 -0.0592
 1833THY    HP445810   2.085   6.480   5.589  0.2104 -0.7521 -0.9855
 1833THY    CP345811   1.903   6.416   5.345  0.0655  0.5750 -0.8843
 1833THY    HP545812   1.879   6.409   5.239 -1.5887  3.0415 -0.7630
 1833THY    HP645813   1.932   6.318   5.384 -2.4324  0.1177  0.0545
 1833THY    HP745814   1.804   6.449   5.381 -1.5435 -2.5627 -2.1284
 1833THY    CA345815   1.898   6.750   5.350 -0.9424 -0.2964  0.1677
 1833THY    HA345816   1.864   6.746   5.453 -1.2292  0.2043  0.0942
 1833THY    CA445817   1.869   6.861   5.271 -0.3051  0.4231 -0.1453
 1833THY    HA445818   1.805   6.942   5.304 -1.3995  0.5776 -2.4438
 1833THY    CA545819   1.902   6.849   5.132  0.0205  0.1520  0.0568
 1833THY    CM145820   1.871   6.966   5.042  0.6599 -0.4972 -0.7600
 1833THY    HM145821   1.929   6.967   4.948  1.3274  0.1530 -0.3571
 1833THY    HM245822   1.764   6.974   5.020  0.1407  2.2879  2.1362
 1833THY    HM345823   1.901   7.057   5.095 -2.9706  0.2724  0.2617
 1833THY    CA645824   1.970   6.742   5.080  0.4074 -0.0410 -0.2553
 1833THY    HA645825   1.997   6.740   4.975  1.3613  1.8886 -0.1009
 1834THY      O45826   7.548   1.429   6.529  0.4105  0.7133  0.4021
 1834THY     HO45827   7.474   1.481   6.494 -0.0280  0.6762  1.2479
 1834THY    CA145828   7.502   1.373   6.642  0.2182 -0.1449  1.4260
 1834THY    CA245829   7.574   1.271   6.706 -0.1677 -0.0526  0.2899
 1834THY    CP145830   7.710   1.221   6.648 -0.4385 -0.1467  0.0329
 1834THY    HP145831   7.711   1.233   6.539  0.9620 -2.3225 -0.2600
 1834THY    CP245832   7.827   1.300   6.702  0.3555  0.1534 -0.1494
 1834THY    HP245833   7.816   1.291   6.810 -0.1119 -3.0263 -0.3696
 1834THY    HP345834   7.919   1.252   6.668  0.1918 -1.1617  1.1582
 1834THY    HP445835   7.816   1.408   6.682 -0.0958  0.7040  2.7306
 1834THY    CP345836   7.734   1.074   6.679 -0.6438  0.4868  0.5290
 1834THY    HP545837   7.658   1.006   6.637  1.2844 -1.2249 -0.3602
 1834THY    HP645838   7.831   1.046   6.637 -1.2502 -0.9060 -0.0057
 1834THY    HP745839   7.743   1.062   6.788  1.7202  0.5180  0.3905
 1834THY    CA345840   7.529   1.227   6.835 -0.9161  0.1590 -0.0540
 1834THY    HA345841   7.582   1.154   6.895  0.3104  1.2445  0.2220
 1834THY    CA445842   7.411   1.283   6.889  0.8388  0.2407 -0.3271
 1834THY    HA445843   7.391   1.252   6.991  0.8325 -0.7601 -0.6258
 1834THY    CA545844   7.339   1.375   6.819  0.5267  0.1245 -0.1650
 1834THY    CM145845   7.206   1.430   6.864 -0.2409 -0.2411 -0.5502
 1834THY    HM145846   7.126   1.356   6.876  0.9538 -1.5151 -0.1793
 1834THY    HM245847   7.231   1.476   6.960  1.5166 -1.3956 -0.4088
 1834THY    HM345848   7.178   1.512   6.797  0.1243 -0.2251 -0.6826
 1834THY    CA645849   7.391   1.427   6.700 -0.1002  0.0604  0.5787
 1834THY    HA645850   7.340   1.504   6.643  2.9325  0.6347 -1.5613
 1835THY      O45851   4.719   2.786   2.432  0.0550  0.0547  0.0471
 1835THY     HO45852   4.653   2.853   2.407  0.3101  0.4645  0.4553
 1835THY    CA145853   4.853   2.823   2.404  0.2958  0.2226 -0.4080
 1835THY    CA245854   4.961   2.738   2.410 -0.0081 -0.2543  0.4526
 1835THY    CP145855   4.937   2.597   2.454 -0.0343  0.4544 -0.9048
 1835THY    HP145856   4.842   2.598   2.510  0.4801 -1.6473  0.0768
 1835THY    CP245857   4.909   2.499   2.347 -0.3043  0.1492  0.7062
 1835THY    HP245858   4.884   2.400   2.388 -0.7979  0.8543  2.1651
 1835THY    HP345859   4.818   2.535   2.297  0.1872  0.5317  0.0775
 1835THY    HP445860   5.001   2.495   2.288  1.0174  1.5211  2.5862
 1835THY    CP345861   5.037   2.541   2.562  0.0574 -0.1502 -0.5711
 1835THY    HP545862   5.135   2.517   2.521  0.3726 -0.7040  0.4733
 1835THY    HP645863   5.060   2.614   2.640 -0.6493 -1.3329  0.8085
 1835THY    HP745864   5.009   2.442   2.601 -0.1578  0.1332  0.0103
 1835THY    CA345865   5.089   2.783   2.383 -0.2845 -0.5551 -0.5008
 1835THY    HA345866   5.173   2.714   2.385  0.7775  0.6268  2.6619
 1835THY    CA445867   5.117   2.917   2.358  0.5003 -0.1801 -0.6044
 1835THY    HA445868   5.216   2.960   2.345  0.5547 -0.4422 -1.1025
 1835THY    CA545869   5.010   3.010   2.362  0.5638 -0.1603 -0.0467
 1835THY    CM145870   5.030   3.159   2.337 -0.0190  0.4475  0.5130
 1835THY    HM145871   5.066   3.205   2.429 -1.0763 -0.7896  1.5818
 1835THY    HM245872   5.095   3.178   2.250  2.8631  0.0279  2.4319
 1835THY    HM345873   4.938   3.210   2.307  0.2766  0.6426 -0.0929
 1835THY    CA645874   4.882   2.962   2.396  0.6192 -0.5856 -0.0208
 1835THY    HA645875   4.803   3.037   2.398  0.5606 -0.6468  1.6909
 1836THY      O45876   1.545   5.930   6.691  0.3534  0.6982 -0.4774
 1836THY     HO45877   1.530   5.905   6.598 -0.7696 -1.4717  0.2103
 1836THY    CA145878   1.613   6.046   6.688  0.4784 -0.6811 -0.1012
 1836THY    CA245879   1.534   6.168   6.666  0.0663  0.0555 -0.4854
 1836THY    CP145880   1.381   6.172   6.635  0.0373 -0.6786  0.2310
 1836THY    HP145881   1.344   6.071   6.612 -0.9840  0.0902 -1.7899
 1836THY    CP245882   1.306   6.235   6.739  0.0196  0.3530  0.1105
 1836THY    HP245883   1.199   6.231   6.715  0.0519  2.8632 -0.7303
 1836THY    HP345884   1.319   6.178   6.832  1.1988 -1.4169 -1.0836
 1836THY    HP445885   1.344   6.337   6.748 -0.8790  0.6872  0.1981
 1836THY    CP345886   1.365   6.249   6.501  0.3072  0.1550 -0.0867
 1836THY    HP545887   1.393   6.355   6.503 -3.6459  1.3255  1.1391
 1836THY    HP645888   1.422   6.192   6.426  0.7223  2.6419 -1.7917
 1836THY    HP745889   1.263   6.243   6.462  0.6978  1.4600 -1.4138
 1836THY    CA345890   1.608   6.289   6.653  0.0100  0.0907 -0.5561
 1836THY    HA345891   1.557   6.385   6.640 -0.5217  0.2678  2.2573
 1836THY    CA445892   1.753   6.285   6.664 -0.2634 -0.1616 -0.0553
 1836THY    HA445893   1.814   6.374   6.648  2.8239 -2.4954 -2.5227
 1836THY    CA545894   1.823   6.169   6.690 -0.1604  0.1594  0.3488
 1836THY    CM145895   1.969   6.163   6.695 -0.3931 -0.3677 -0.4792
 1836THY    HM145896   2.002   6.091   6.771 -2.1530 -0.7090  0.0046
 1836THY    HM245897   2.019   6.147   6.599  1.1963  0.0158  0.2466
 1836THY    HM345898   2.007   6.260   6.729 -1.1577 -0.0259 -0.5830
 1836THY    CA645899   1.752   6.045   6.698  0.1861 -0.1348 -1.0012
 1836THY    HA645900   1.806   5.954   6.719  2.4265  1.5344  1.0525
 1837THY      O45901   9.159   3.232   6.576  0.4238 -0.0050 -0.1669
 1837THY     HO45902   9.137   3.314   6.527 -1.9929 -0.8426 -0.6477
 1837THY    CA145903   9.133   3.258   6.709 -0.0942 -0.7300  0.3431
 1837THY    CA245904   9.160   3.169   6.819  0.3264 -0.2258 -0.3373
 1837THY    CP145905   9.222   3.036   6.794  0.2219  0.3902 -0.0074
 1837THY    HP145906   9.260   3.027   6.692  0.3992  0.6007  0.0402
 1837THY    CP245907   9.329   3.016   6.897  0.0143 -0.4612  0.5150
 1837THY    HP245908   9.292   2.971   6.990  2.1877 -0.7064  1.3171
 1837THY    HP345909   9.407   2.948   6.863 -0.0816 -1.3944  2.0345
 1837THY    HP445910   9.384   3.107   6.925 -0.1808  0.1886 -1.0759
 1837THY    CP345911   9.108   2.939   6.792  0.0306  0.2243 -0.1311
 1837THY    HP545912   9.047   2.946   6.883 -0.8284  0.9110 -0.7423
 1837THY    HP645913   9.036   2.952   6.709  1.6780  0.1171 -1.6359
 1837THY    HP745914   9.144   2.836   6.782 -0.8990  0.0503 -2.7512
 1837THY    CA345915   9.106   3.203   6.940  0.2419  0.4372  0.1842
 1837THY    HA345916   9.109   3.133   7.023 -0.8316  0.8485  0.5806
 1837THY    CA445917   9.048   3.329   6.967  0.3411 -0.0296 -0.0445
 1837THY    HA445918   9.014   3.348   7.069  0.7288 -1.7735  0.4430
 1837THY    CA545919   9.039   3.426   6.864  0.2907  0.3229  0.3372
 1837THY    CM145920   8.962   3.555   6.882 -0.7377  0.3190  0.2621
 1837THY    HM145921   8.854   3.539   6.884 -0.6461 -0.4131 -0.3872
 1837THY    HM245922   8.984   3.596   6.982 -0.2184 -0.5847  0.5374
 1837THY    HM345923   8.983   3.612   6.791  2.2339 -0.1619  0.5446
 1837THY    CA645924   9.081   3.384   6.736  0.6790  0.2604  0.5136
 1837THY    HA645925   9.062   3.440   6.645  0.0280 -2.0653 -0.8844
 1838THY      O45926   2.807   9.803   5.563  0.0663  0.1559 -0.2624
 1838THY     HO45927   2.789   9.734   5.629  0.7362  0.3121  0.0870
 1838THY    CA145928   2.690   9.866   5.533 -0.4593  0.0076 -0.1000
 1838THY    CA245929   2.680   9.961   5.433 -0.3029 -0.1833  0.7729
 1838THY    CP145930   2.809  10.006   5.365  0.2944  0.4982 -0.6441
 1838THY    HP145931   2.893   9.971   5.426 -1.4463 -0.3755  1.4027
 1838THY    CP245932   2.813   9.937   5.231 -0.0682 -0.2755 -0.4622
 1838THY    HP245933   2.722   9.962   5.176  0.3595  2.9159  0.1116
 1838THY    HP345934   2.892   9.992   5.179  1.8281 -0.9122  1.5688
 1838THY    HP445935   2.838   9.830   5.230 -2.4440 -0.8974 -1.4457
 1838THY    CP345936   2.818  10.153   5.343 -0.5097  0.1323  0.0618
 1838THY    HP545937   2.744  10.193   5.272 -1.1265 -1.1663 -0.0647
 1838THY    HP645938   2.802  10.197   5.442  0.2648  0.9459 -0.1635
 1838THY    HP745939   2.921  10.169   5.311  0.3501 -2.3235  1.3381
 1838THY    CA345940   2.553  10.012   5.399 -0.2275 -0.9906 -0.3322
 1838THY    HA345941   2.543  10.085   5.319 -3.0061  0.1552  0.9034
 1838THY    CA445942   2.437   9.981   5.470 -0.0732  0.4277 -0.6333
 1838THY    HA445943   2.336  10.008   5.440  0.1759  0.9058 -1.0588
 1838THY    CA545944   2.455   9.892   5.580 -0.2840 -0.1641  0.1082
 1838THY    CM145945   2.335   9.875   5.660  0.3679  0.2402 -0.5504
 1838THY    HM145946   2.320   9.971   5.712 -0.9596  0.6686 -1.6730
 1838THY    HM245947   2.251   9.828   5.609 -0.2770 -0.1099  0.8022
 1838THY    HM345948   2.349   9.808   5.746 -2.1807  0.6402  0.2683
 1838THY    CA645949   2.577   9.831   5.609  0.6073  0.3726  0.9619
 1838THY    HA645950   2.592   9.770   5.698 -0.9717  0.3807  1.2610
 1839THY      O45951   3.066   6.895   9.948  0.2195  0.2746 -0.3492
 1839THY     HO45952   3.004   6.946   9.893 -1.3175 -1.2345 -0.1257
 1839THY    CA145953   2.988   6.794  10.006 -0.3483 -0.4164 -0.1163
 1839THY    CA245954   3.041   6.663  10.028  0.3617 -0.3210  0.2920
 1839THY    CP145955   3.191   6.636  10.007  0.1625 -0.0492  0.7492
 1839THY    HP145956   3.233   6.737  10.015 -0.7227  0.5466 -1.4344
 1839THY    CP245957   3.254   6.559  10.123 -0.4027  0.4102  0.0491
 1839THY    HP245958   3.222   6.596  10.221 -0.9733  0.6124 -0.2055
 1839THY    HP345959   3.220   6.454  10.128  1.5001 -0.3261 -1.2236
 1839THY    HP445960   3.363   6.557  10.115 -0.3704  0.4226  0.4792
 1839THY    CP345961   3.229   6.580   9.869  0.3128 -0.3209 -0.1230
 1839THY    HP545962   3.337   6.573   9.852  0.2339 -1.7816 -0.1338
 1839THY    HP645963   3.181   6.483   9.858 -0.6173 -0.0861  1.5376
 1839THY    HP745964   3.201   6.658   9.798 -2.2987 -0.1007  1.0613
 1839THY    CA345965   2.948   6.569  10.074 -0.3423  0.3536 -0.2197
 1839THY    HA345966   2.993   6.471  10.087  0.2241  0.5433 -0.7053
 1839THY    CA445967   2.815   6.597  10.105  0.5309  0.6897 -0.2193
 1839THY    HA445968   2.744   6.533  10.157  0.0997 -0.1044 -1.7005
 1839THY    CA545969   2.769   6.729  10.094  0.1519  0.7063  0.3849
 1839THY    CM145970   2.625   6.767  10.120 -0.2296  0.4552 -0.3109
 1839THY    HM145971   2.580   6.695  10.189  0.5004 -0.4144 -0.7248
 1839THY    HM245972   2.627   6.863  10.174 -1.7461  0.3776 -0.0728
 1839THY    HM345973   2.574   6.767  10.023 -0.6386 -0.3895 -0.1037
 1839THY    CA645974   2.858   6.823  10.038 -0.1341 -0.1318 -0.1210
 1839THY    HA645975   2.815   6.922  10.023 -2.0935 -1.1471 -1.8487
 1840THY      O45976   1.782   8.187   1.116 -0.1530  0.1050  0.2977
 1840THY     HO45977   1.720   8.170   1.042  1.0566  1.7269 -1.1794
 1840THY    CA145978   1.718   8.271   1.198 -0.1476 -0.1032  0.2373
 1840THY    CA245979   1.758   8.318   1.324  0.2030  0.5437 -0.5212
 1840THY    CP145980   1.899   8.287   1.363  0.1137 -0.3761 -0.4122
 1840THY    HP145981   1.962   8.234   1.291  0.8559  1.1232 -0.9177
 1840THY    CP245982   1.973   8.418   1.401  0.1437  0.3456  0.0619
 1840THY    HP245983   1.934   8.463   1.492  0.0635  1.8274 -0.6679
 1840THY    HP345984   2.077   8.395   1.426  0.1751  0.6440  0.2062
 1840THY    HP445985   1.983   8.488   1.317  0.5632 -0.6689 -0.7618
 1840THY    CP345986   1.900   8.192   1.485  0.3536 -0.2290 -0.6255
 1840THY    HP545987   1.884   8.243   1.581  1.9513  0.5088 -0.7284
 1840THY    HP645988   1.819   8.119   1.470  0.8606 -0.7008 -1.0941
 1840THY    HP745989   1.999   8.145   1.496  0.4270  0.1595  0.5483
 1840THY    CA345990   1.674   8.402   1.405 -0.4990  0.1641 -0.4502
 1840THY    HA345991   1.708   8.440   1.502  0.1914 -1.4078 -0.0426
 1840THY    CA445992   1.550   8.424   1.353  0.7040  0.2946 -0.6533
 1840THY    HA445993   1.477   8.476   1.415 -1.6648 -0.9655 -2.2317
 1840THY    CA545994   1.505   8.384   1.231  0.3631  0.0415 -0.0834
 1840THY    CM145995   1.367   8.415   1.189  0.0004  0.2777 -0.2590
 1840THY    HM145996   1.296   8.347   1.236  0.0519 -1.1120 -2.0574
 1840THY    HM245997   1.342   8.522   1.195 -1.1545 -0.0423  1.1243
 1840THY    HM345998   1.357   8.391   1.082  0.6912  1.4921 -0.6183
 1840THY    CA645999   1.591   8.310   1.150  0.0945 -0.6536  0.4181
 1840THY    HA646000   1.554   8.270   1.055  0.1092 -3.2084  1.4122
 1841THY      O46001   6.522   7.224   0.957 -0.0467  0.1403  0.7434
 1841THY     HO46002   6.492   7.156   0.894 -1.9403  2.3220 -0.8823
 1841THY    CA146003   6.641   7.193   1.008 -0.2260 -1.0496  0.2167
 1841THY    CA246004   6.692   7.252   1.121 -0.1978  0.3278 -0.0294
 1841THY    CP146005   6.607   7.343   1.210  0.2217 -0.2483 -0.0681
 1841THY    HP146006   6.506   7.353   1.170  0.7225  1.7972 -0.9542
 1841THY    CP246007   6.593   7.308   1.364 -0.4686  0.0021  0.5029
 1841THY    HP246008   6.550   7.208   1.370  0.2035 -0.3771 -0.5701
 1841THY    HP346009   6.687   7.320   1.419 -0.8166  0.5361  0.9965
 1841THY    HP446010   6.524   7.379   1.411 -0.4070  0.5668 -0.2379
 1841THY    CP346011   6.642   7.490   1.192 -0.2488 -0.3175  0.3379
 1841THY    HP546012   6.749   7.512   1.194 -0.4607  1.0253 -1.0061
 1841THY    HP646013   6.617   7.520   1.089  2.6457  0.4174 -0.2250
 1841THY    HP746014   6.578   7.549   1.259 -1.2705 -1.2520  0.2225
 1841THY    CA346015   6.814   7.207   1.173  0.6631  0.2507  0.7711
 1841THY    HA346016   6.861   7.241   1.265  0.7983  1.2738  0.3428
 1841THY    CA446017   6.877   7.102   1.111  0.0797  0.1518  0.1534
 1841THY    HA446018   6.966   7.052   1.147 -1.3588 -2.2302  0.7032
 1841THY    CA546019   6.831   7.050   0.981 -0.3361 -0.7509  0.2231
 1841THY    CM146020   6.908   6.953   0.889  0.8303  0.4709 -0.7144
 1841THY    HM146021   6.970   6.997   0.810  1.1930  1.6574  0.2101
 1841THY    HM246022   6.960   6.877   0.949  1.3458 -0.7393 -2.6033
 1841THY    HM346023   6.839   6.891   0.831  1.8459 -0.8262 -0.5901
 1841THY    CA646024   6.707   7.091   0.941 -0.4018  0.8671  0.1975
 1841THY    HA646025   6.665   7.052   0.850 -1.6032  0.3838  0.9381
 1842THY      O46026   9.296   7.098   9.590  0.3536  0.4756 -0.0706
 1842THY     HO46027   9.379   7.133   9.627  0.0299  2.2928 -0.9514
 1842THY    CA146028   9.277   6.972   9.632  0.3294  0.1604 -0.1692
 1842THY    CA246029   9.154   6.904   9.615 -0.3276 -0.4989  0.7263
 1842THY    CP146030   9.042   6.972   9.532  0.4047 -0.0112  0.0034
 1842THY    HP146031   9.071   7.076   9.513  0.7342 -0.1414 -0.2197
 1842THY    CP246032   9.002   6.908   9.396  0.2647 -0.0908  0.3279
 1842THY    HP246033   8.968   6.805   9.413  0.6818 -0.2577  0.1553
 1842THY    HP346034   8.923   6.963   9.345  1.1608  1.0997  0.1900
 1842THY    HP446035   9.079   6.907   9.319 -0.8055  1.4062 -0.8087
 1842THY    CP346036   8.920   6.983   9.613  0.6003 -0.3271 -0.5722
 1842THY    HP546037   8.947   7.023   9.712 -0.8947 -0.9015  0.0992
 1842THY    HP646038   8.848   7.053   9.570 -1.3324 -1.4915  0.5800
 1842THY    HP746039   8.865   6.889   9.611 -1.2416  0.7043 -0.2800
 1842THY    CA346040   9.144   6.775   9.660  0.8240  0.1947  0.5216
 1842THY    HA346041   9.051   6.726   9.631  1.4139 -0.7769  0.2476
 1842THY    CA446042   9.249   6.704   9.718 -0.1793  0.2254 -0.4408
 1842THY    HA446043   9.248   6.599   9.744  1.0995  0.0003 -1.2170
 1842THY    CA546044   9.371   6.775   9.731  0.4834  0.3760  0.0100
 1842THY    CM146045   9.488   6.702   9.787 -0.4148  0.0895 -0.5131
 1842THY    HM146046   9.542   6.650   9.708  2.6193  1.1863  0.6930
 1842THY    HM246047   9.561   6.775   9.824 -1.1117  0.7142 -0.3478
 1842THY    HM346048   9.462   6.634   9.869  1.0208  1.5245  1.2309
 1842THY    CA646049   9.382   6.904   9.694  0.8207 -0.0051 -0.0538
 1842THY    HA646050   9.482   6.945   9.704  1.6894 -2.1247  0.5423
 1843THY      O46051   1.972   6.792   9.753 -0.0404 -0.2519 -0.2216
 1843THY     HO46052   1.956   6.749   9.668  1.6520  0.5692 -1.0067
 1843THY    CA146053   2.019   6.703   9.843 -1.1061 -0.2528 -0.4373
 1843THY    CA246054   2.065   6.741   9.968  0.0478  0.2663 -0.4350
 1843THY    CP146055   2.074   6.892  10.005  0.0098 -0.1039  0.7140
 1843THY    HP146056   2.045   6.956   9.921 -0.1523  2.2926  2.4655
 1843THY    CP246057   1.971   6.935  10.105  0.3415  0.2285 -0.0043
 1843THY    HP246058   1.994   6.887  10.201  1.8739  0.1363 -0.3830
 1843THY    HP346059   1.982   7.041  10.129 -2.2809 -0.1463  3.6458
 1843THY    HP446060   1.867   6.906  10.086  0.3929 -0.1465  0.2633
 1843THY    CP346061   2.206   6.929  10.056 -0.2376 -0.8179 -0.7816
 1843THY    HP546062   2.225   6.866  10.143 -1.1506 -0.1443 -0.0684
 1843THY    HP646063   2.291   6.902   9.992 -1.4963 -0.8548 -2.5480
 1843THY    HP746064   2.208   7.031  10.095 -1.4351 -1.4165  0.9717
 1843THY    CA346065   2.121   6.644  10.055  0.4992  0.5183  0.2386
 1843THY    HA346066   2.174   6.658  10.149  2.0322  0.0773 -0.5202
 1843THY    CA446067   2.122   6.509  10.012 -0.5492 -0.4695  0.3934
 1843THY    HA446068   2.170   6.429  10.069 -0.5349  0.0900  1.1815
 1843THY    CA546069   2.071   6.474   9.882 -0.0547  0.3732  0.0058
 1843THY    CM146070   2.075   6.328   9.838  0.4881 -0.7417 -0.4571
 1843THY    HM146071   2.077   6.261   9.925 -2.1138 -1.0631 -0.5713
 1843THY    HM246072   1.984   6.312   9.780 -0.5232  0.4546  0.7491
 1843THY    HM346073   2.164   6.303   9.778 -0.1531 -1.2585 -1.2043
 1843THY    CA646074   2.020   6.574   9.798  0.9208 -0.2697 -0.0330
 1843THY    HA646075   1.960   6.545   9.712 -2.9957  1.6150  1.7877
 1844THY      O46076   8.540   4.496   8.041  0.1244 -0.6366  0.9331
 1844THY     HO46077   8.626   4.458   8.015 -0.1068 -0.4625 -0.1254
 1844THY    CA146078   8.444   4.411   8.018  0.1596 -0.3364 -0.1822
 1844THY    CA246079   8.311   4.439   8.049  0.5834 -0.3267 -0.9203
 1844THY    CP146080   8.264   4.577   8.097 -0.8990 -0.3973 -0.5537
 1844THY    HP146081   8.336   4.659   8.088 -0.9632 -0.1562  0.9164
 1844THY    CP246082   8.142   4.611   8.005 -0.0060  0.2454  0.0547
 1844THY    HP246083   8.121   4.716   8.024  0.0863 -0.1830  2.9699
 1844THY    HP346084   8.169   4.593   7.900  0.3467 -0.6267  0.2802
 1844THY    HP446085   8.052   4.558   8.037  1.9886 -2.9864  0.8535
 1844THY    CP346086   8.234   4.580   8.247  0.4026  0.0630  0.3933
 1844THY    HP546087   8.316   4.532   8.301  0.3007 -1.2907 -0.6024
 1844THY    HP646088   8.205   4.679   8.284  0.8653  0.4317 -0.2206
 1844THY    HP746089   8.147   4.514   8.258  0.1905  0.4735  1.3393
 1844THY    CA346090   8.214   4.333   8.049 -0.1525 -0.1533  1.2597
 1844THY    HA346091   8.109   4.353   8.065 -0.5888 -0.4850 -0.8869
 1844THY    CA446092   8.257   4.203   8.023  0.0716  0.0456 -0.4359
 1844THY    HA446093   8.189   4.118   8.032 -1.0122  0.9694  0.4050
 1844THY    CA546094   8.386   4.181   7.985 -0.5882 -0.0424  0.4135
 1844THY    CM146095   8.417   4.046   7.939  0.9184 -0.5659 -0.1190
 1844THY    HM146096   8.406   4.038   7.831  2.8257 -1.2853 -0.2975
 1844THY    HM246097   8.522   4.023   7.960  1.0118 -1.9945 -1.9490
 1844THY    HM346098   8.362   3.962   7.983  2.6198 -1.6980 -0.0651
 1844THY    CA646099   8.480   4.283   7.981  0.5970  0.6099  0.6062
 1844THY    HA646100   8.578   4.266   7.938  1.6035  0.2273  2.8717
 1845THY      O46101   5.886   5.170   6.602  0.6765  0.4883  0.0468
 1845THY     HO46102   5.891   5.186   6.698  0.0480 -0.8853  0.3327
 1845THY    CA146103   5.945   5.279   6.551  0.5307 -0.1825  0.0286
 1845THY    CA246104   5.934   5.318   6.418  0.6175 -0.2363  0.7835
 1845THY    CP146105   5.826   5.238   6.333 -0.6415 -0.2337 -0.1343
 1845THY    HP146106   5.824   5.135   6.371  0.3203  0.0857  0.8556
 1845THY    CP246107   5.685   5.287   6.351  0.4786 -0.0619 -0.3891
 1845THY    HP246108   5.619   5.224   6.289  0.2338  0.1692 -0.3677
 1845THY    HP346109   5.664   5.267   6.456  2.5899 -1.4162 -0.1906
 1845THY    HP446110   5.687   5.390   6.312  0.7595 -1.1237 -3.5262
 1845THY    CP346111   5.865   5.237   6.186  0.0983 -0.2175  0.2408
 1845THY    HP546112   5.791   5.166   6.149 -2.3010  2.3665 -0.2691
 1845THY    HP646113   5.847   5.333   6.136 -2.5679  0.1961  1.7973
 1845THY    HP746114   5.966   5.196   6.179  0.3145  0.5575 -2.0811
 1845THY    CA346115   5.999   5.434   6.373  0.6676  0.2332 -0.2930
 1845THY    HA346116   5.997   5.459   6.268  1.6260 -0.3507 -0.4595
 1845THY    CA446117   6.086   5.502   6.461  0.7385  0.1108  0.0150
 1845THY    HA446118   6.148   5.587   6.433 -2.3561  2.6766  0.3327
 1845THY    CA546119   6.092   5.463   6.592  0.4098  0.4195 -0.1634
 1845THY    CM146120   6.180   5.542   6.677 -0.3126  0.0722  0.1840
 1845THY    HM146121   6.127   5.633   6.708  0.8452  0.8152  0.0371
 1845THY    HM246122   6.214   5.488   6.766  1.1738  2.5081  1.1879
 1845THY    HM346123   6.269   5.576   6.623  0.3499 -2.5226 -0.5401
 1845THY    CA646124   6.020   5.356   6.641 -1.1276 -0.0782  0.3455
 1845THY    HA646125   6.035   5.328   6.745  0.2671  0.7844  0.4083
 1846THY      O46126   8.649   6.191   3.262  0.2744 -0.2116 -0.3119
 1846THY     HO46127   8.706   6.257   3.306  0.6561 -1.3717  0.9853
 1846THY    CA146128   8.528   6.201   3.322 -0.0083 -0.5453 -0.2415
 1846THY    CA246129   8.443   6.093   3.360  0.2183  0.9125 -0.0649
 1846THY    CP146130   8.494   5.953   3.329 -0.2005 -0.1686 -0.2204
 1846THY    HP146131   8.544   5.933   3.233  1.9274 -0.4945  0.8979
 1846THY    CP246132   8.606   5.916   3.429 -1.1455  0.4866 -1.1587
 1846THY    HP246133   8.618   5.807   3.429  2.4061  0.7654 -1.0626
 1846THY    HP346134   8.697   5.962   3.389  0.1118  0.3292  1.3568
 1846THY    HP446135   8.580   5.943   3.532  0.4191 -0.1626 -0.5639
 1846THY    CP346136   8.380   5.846   3.339  0.0535  0.7464 -0.0255
 1846THY    HP546137   8.334   5.843   3.439 -0.5505  0.6791 -0.3028
 1846THY    HP646138   8.301   5.863   3.265 -0.2058 -1.9671 -0.4891
 1846THY    HP746139   8.416   5.745   3.318 -0.3886  0.1544  1.8190
 1846THY    CA346140   8.330   6.125   3.443  0.1157  0.0340 -0.2912
 1846THY    HA346141   8.269   6.044   3.483 -0.7084  0.5288 -0.5263
 1846THY    CA446142   8.291   6.253   3.465  0.5750  0.1109  0.3195
 1846THY    HA446143   8.198   6.270   3.518  0.2431  1.4498 -0.6403
 1846THY    CA546144   8.364   6.366   3.412 -0.1626  0.2160  0.5529
 1846THY    CM146145   8.313   6.504   3.414  0.2423 -0.4101 -0.2320
 1846THY    HM146146   8.205   6.521   3.423  0.4035  0.9176 -0.4506
 1846THY    HM246147   8.353   6.548   3.506  1.6828 -3.9578  0.9939
 1846THY    HM346148   8.344   6.560   3.324 -1.1229  2.0735  0.7263
 1846THY    CA646149   8.487   6.337   3.352 -0.1900 -1.4246  0.2921
 1846THY    HA646150   8.555   6.420   3.341  0.6346 -2.2383 -1.0436
 1847THY      O46151   2.402   6.368   5.261  0.6815  0.1512 -0.0613
 1847THY     HO46152   2.353   6.408   5.187 -0.4895  0.1639  0.6892
 1847THY    CA146153   2.409   6.470   5.347  0.1450 -0.0108 -0.4153
 1847THY    CA246154   2.436   6.459   5.484  0.1740  0.6982  0.4833
 1847THY    CP146155   2.484   6.320   5.540  0.7892 -0.9642 -0.3303
 1847THY    HP146156   2.429   6.242   5.486 -0.6242 -0.3668  0.2139
 1847THY    CP246157   2.634   6.315   5.496 -0.1837 -0.9278  0.3857
 1847THY    HP246158   2.693   6.234   5.540  0.0086  1.1856  4.5030
 1847THY    HP346159   2.635   6.302   5.387 -1.6426 -0.9234  0.3609
 1847THY    HP446160   2.695   6.402   5.522  1.5637 -1.8856 -0.3283
 1847THY    CP346161   2.480   6.296   5.687  0.3799  0.1671 -0.1871
 1847THY    HP546162   2.568   6.337   5.738  1.3370 -0.7428 -1.0479
 1847THY    HP646163   2.389   6.325   5.739 -0.3080 -0.3311 -1.0836
 1847THY    HP746164   2.490   6.188   5.706 -1.9358  0.1223  1.0265
 1847THY    CA346165   2.404   6.566   5.567  0.0371  0.4790 -0.2750
 1847THY    HA346166   2.413   6.554   5.674  0.6621 -1.0473 -0.4753
 1847THY    CA446167   2.358   6.686   5.510  0.0034  0.7060  0.1359
 1847THY    HA446168   2.336   6.770   5.575 -2.2008  0.5584 -0.3224
 1847THY    CA546169   2.329   6.698   5.380  0.0671 -0.1555  0.3544
 1847THY    CM146170   2.289   6.834   5.316 -0.6366  0.0016 -0.5877
 1847THY    HM146171   2.385   6.880   5.291  0.5453 -0.9041  1.9578
 1847THY    HM246172   2.237   6.816   5.221  2.0656 -1.1963 -1.9585
 1847THY    HM346173   2.236   6.899   5.387  2.4686  1.6140  0.4338
 1847THY    CA646174   2.357   6.588   5.301 -0.6741 -0.2711  0.3025
 1847THY    HA646175   2.324   6.596   5.198 -1.4629 -0.5348  0.5344
 1848THY      O46176   3.826   6.413   0.026 -0.2323  0.7266 -0.0772
 1848THY     HO46177   3.784   6.429   0.113 -0.3976  0.6366 -0.1405
 1848THY    CA146178   3.959   6.431   0.056 -0.9258 -0.3447  0.1334
 1848THY    CA246179   4.063   6.407  -0.045  0.2731 -0.2432 -0.2031
 1848THY    CP146180   4.023   6.379  -0.197 -0.0464  0.2775  0.8035
 1848THY    HP146181   3.921   6.339  -0.202  0.5938 -1.3571  0.2981
 1848THY    CP246182   4.047   6.506  -0.272  0.9441  0.9346 -1.1569
 1848THY    HP246183   4.145   6.541  -0.237  0.9517 -0.0003 -0.1888
 1848THY    HP346184   4.030   6.498  -0.380 -1.2711  0.7599 -0.8440
 1848THY    HP446185   3.979   6.581  -0.231  0.4385 -0.5904  0.9833
 1848THY    CP346186   4.114   6.263  -0.262  0.2002  0.1253 -0.6343
 1848THY    HP546187   4.218   6.292  -0.281  0.5035 -1.6353 -1.9669
 1848THY    HP646188   4.120   6.185  -0.186 -2.5848  0.7400  0.3203
 1848THY    HP746189   4.069   6.200  -0.340 -1.3356  1.0067 -0.4813
 1848THY    CA346190   4.194   6.414  -0.001  0.3654  0.2441 -0.1641
 1848THY    HA346191   4.268   6.397  -0.079 -0.3862  1.0918 -1.0975
 1848THY    CA446192   4.221   6.455   0.136 -0.0966  0.4899 -0.0104
 1848THY    HA446193   4.326   6.474   0.156 -0.7339  2.7822  1.4390
 1848THY    CA546194   4.126   6.478   0.229  0.3165  0.1922 -0.1297
 1848THY    CM146195   4.166   6.527   0.372  0.3614 -0.0134 -0.3982
 1848THY    HM146196   4.098   6.600   0.418 -1.0288 -2.8039  2.3801
 1848THY    HM246197   4.176   6.445   0.444  0.9034 -0.7182 -1.2587
 1848THY    HM346198   4.264   6.573   0.356 -0.1997  0.3423 -3.3004
 1848THY    CA646199   3.995   6.464   0.187 -0.1156  0.2109  0.3126
 1848THY    HA646200   3.915   6.487   0.257 -0.1130  0.9453  0.0909
 1849THY      O46201   8.907   6.101   4.865  0.1066  0.1461 -0.1458
 1849THY     HO46202   8.930   6.030   4.928  0.6736 -0.4164 -0.9511
 1849THY    CA146203   8.995   6.074   4.766  0.3119 -0.3486  0.2281
 1849THY    CA246204   9.034   6.180   4.673  0.3170 -0.0527 -0.1792
 1849THY    CP146205   8.972   6.322   4.678  0.0281  0.4319 -0.1234
 1849THY    HP146206   8.913   6.336   4.769  0.1489  1.7848 -0.2439
 1849THY    CP246207   9.091   6.410   4.701  0.0620 -0.6621 -0.5871
 1849THY    HP246208   9.053   6.513   4.702  1.9449  0.1162 -2.0553
 1849THY    HP346209   9.148   6.390   4.792  0.1405  1.6076 -0.0900
 1849THY    HP446210   9.156   6.424   4.614  0.6698 -0.7174 -0.1469
 1849THY    CP346211   8.892   6.359   4.549  0.2905  0.6392  0.1240
 1849THY    HP546212   8.857   6.463   4.554 -2.2145 -0.1652  0.9302
 1849THY    HP646213   8.960   6.360   4.463  0.2359 -0.3203  0.0641
 1849THY    HP746214   8.810   6.296   4.513  0.1824  1.8216 -1.8431
 1849THY    CA346215   9.128   6.148   4.577 -0.0908  0.2853  0.0073
 1849THY    HA346216   9.166   6.226   4.511 -1.9393  2.3495  1.2170
 1849THY    CA446217   9.181   6.018   4.575 -0.3853  0.1892  0.4978
 1849THY    HA446218   9.264   5.999   4.508  0.1876  0.8017  1.0241
 1849THY    CA546219   9.134   5.915   4.653  0.1459 -0.0479 -0.3031
 1849THY    CM146220   9.185   5.773   4.639 -0.0720 -0.6796 -0.3681
 1849THY    HM146221   9.137   5.723   4.553 -0.6565  2.0414 -1.7525
 1849THY    HM246222   9.294   5.773   4.627  0.2327  0.3913  1.8646
 1849THY    HM346223   9.162   5.716   4.730  1.5557 -1.3345 -0.3367
 1849THY    CA646224   9.046   5.947   4.759  0.0009  0.2127 -0.2865
 1849THY    HA646225   9.015   5.867   4.825 -1.3590  0.4916 -0.5544
 1850THY      O46226   1.858   4.827   4.246  0.7052 -0.7400 -0.4322
 1850THY     HO46227   1.901   4.902   4.202 -1.2851  0.7095 -0.0458
 1850THY    CA146228   1.846   4.735   4.150 -0.2524  0.1999  0.0246
 1850THY    CA246229   1.827   4.597   4.179 -0.1046 -0.0463 -0.2614
 1850THY    CP146230   1.796   4.547   4.315  0.6023 -0.1770  0.2125
 1850THY    HP146231   1.778   4.637   4.376 -2.4426  2.7536 -4.4217
 1850THY    CP246232   1.653   4.479   4.319 -0.6741 -0.3870  0.1550
 1850THY    HP246233   1.621   4.461   4.422 -2.3285  0.2638 -0.1980
 1850THY    HP346234   1.585   4.556   4.279  0.5700  0.7403  0.1523
 1850THY    HP446235   1.640   4.387   4.261 -1.9792  0.0282 -0.2547
 1850THY    CP346236   1.905   4.466   4.388 -0.3591  0.4828  0.0777
 1850THY    HP546237   1.895   4.359   4.369 -0.8414  0.8976 -2.3435
 1850THY    HP646238   2.007   4.505   4.377 -1.3850  3.6881  0.7546
 1850THY    HP746239   1.876   4.458   4.493  1.6320 -3.0813  0.5212
 1850THY    CA346240   1.817   4.507   4.065 -0.1020  0.2509  0.1155
 1850THY    HA346241   1.787   4.404   4.077 -0.4394  0.3256 -0.0668
 1850THY    CA446242   1.852   4.555   3.939  0.3986 -0.0715 -0.1757
 1850THY    HA446243   1.862   4.489   3.853  0.8239 -1.1281  0.6801
 1850THY    CA546244   1.888   4.689   3.912 -0.6224  0.5558  0.3386
 1850THY    CM146245   1.930   4.747   3.780  0.4577  0.5835  0.8332
 1850THY    HM146246   2.022   4.805   3.794  2.4941 -2.0794 -0.5654
 1850THY    HM246247   1.955   4.655   3.726 -1.8476 -0.0691  0.7658
 1850THY    HM346248   1.854   4.808   3.731  2.5333  0.8585 -2.3111
 1850THY    CA646249   1.876   4.777   4.019 -0.2686 -0.0826  0.5565
 1850THY    HA646250   1.891   4.881   3.994 -1.6527 -0.2721 -1.2426
 1851THY      O46251   7.577   6.446   7.622  0.1781 -0.0380 -0.2696
 1851THY     HO46252   7.524   6.500   7.561  1.4043  0.6893 -0.7185
 1851THY    CA146253   7.600   6.334   7.546  0.2031 -0.1993  0.0796
 1851THY    CA246254   7.727   6.278   7.520  0.2000  0.0536  0.0776
 1851THY    CP146255   7.845   6.365   7.567  0.8830  0.2728  0.3947
 1851THY    HP146256   7.814   6.466   7.593  2.1075  0.2233  2.2006
 1851THY    CP246257   7.891   6.310   7.697  0.2620 -0.3346 -0.2935
 1851THY    HP246258   7.900   6.201   7.692 -1.4750 -0.4926 -0.2861
 1851THY    HP346259   7.976   6.363   7.742  0.1511 -0.0255 -0.4417
 1851THY    HP446260   7.811   6.324   7.770  1.1089 -0.9447  0.7784
 1851THY    CP346261   7.950   6.376   7.455  0.3850  0.1296  0.5387
 1851THY    HP546262   7.906   6.411   7.361 -2.0939 -0.0173  1.5548
 1851THY    HP646263   8.024   6.455   7.474  1.1450 -0.0644 -1.3749
 1851THY    HP746264   8.003   6.281   7.441 -0.2841 -0.3621  1.2502
 1851THY    CA346265   7.739   6.158   7.457  0.0433  0.1730 -0.3012
 1851THY    HA346266   7.836   6.110   7.450 -0.0275  0.1781 -1.4020
 1851THY    CA446267   7.625   6.090   7.415  0.0641 -0.5571 -0.5965
 1851THY    HA446268   7.624   5.990   7.373  1.8279 -0.2986 -1.3296
 1851THY    CA546269   7.498   6.146   7.441  0.5566 -0.6462  0.7644
 1851THY    CM146270   7.374   6.081   7.394  0.4518 -0.1129 -0.2492
 1851THY    HM146271   7.381   5.972   7.387 -1.4928 -0.2780 -0.2974
 1851THY    HM246272   7.289   6.103   7.461 -0.7933 -0.3295 -1.7208
 1851THY    HM346273   7.345   6.110   7.292  0.1024  0.5326  0.0213
 1851THY    CA646274   7.485   6.270   7.506  0.1849 -0.3606  0.3511
 1851THY    HA646275   7.387   6.315   7.517  0.3837  0.8777 -2.1661
 1852THY      O46276   7.892   8.543   7.912  0.0293 -0.0902  0.0776
 1852THY     HO46277   7.856   8.458   7.943 -1.2443  0.1022 -0.7891
 1852THY    CA146278   7.911   8.542   7.779  0.5780 -0.6957 -0.1114
 1852THY    CA246279   7.899   8.659   7.694 -0.3651  0.5429  0.4774
 1852THY    CP146280   7.886   8.801   7.760  0.4604 -0.1787 -0.1366
 1852THY    HP146281   7.954   8.811   7.846 -0.7164 -2.3489  1.1379
 1852THY    CP246282   7.916   8.917   7.663 -0.3144 -0.3408 -0.3421
 1852THY    HP246283   7.920   9.014   7.715  0.7447 -0.0873 -0.8602
 1852THY    HP346284   8.016   8.912   7.617  0.6564  1.4064  1.4135
 1852THY    HP446285   7.842   8.939   7.584 -0.2240  1.5356  0.0518
 1852THY    CP346286   7.743   8.831   7.812  0.5997 -0.1582  0.7700
 1852THY    HP546287   7.706   8.739   7.857  0.8570 -1.7144 -1.9918
 1852THY    HP646288   7.747   8.915   7.883  0.3441 -0.0766  0.6868
 1852THY    HP746289   7.676   8.866   7.733  2.5653  1.7897 -0.1480
 1852THY    CA346290   7.900   8.634   7.552 -0.2046 -0.7806 -0.1933
 1852THY    HA346291   7.906   8.713   7.478  0.7626 -0.9517 -0.2977
 1852THY    CA446292   7.905   8.501   7.507  0.5796 -0.3216  0.6090
 1852THY    HA446293   7.904   8.479   7.401  1.1310 -1.1748  0.7724
 1852THY    CA546294   7.901   8.391   7.595  0.1819 -0.2048 -0.1005
 1852THY    CM146295   7.903   8.246   7.552  0.1114 -0.0927  0.7970
 1852THY    HM146296   8.005   8.225   7.517  0.0613  0.1225  0.5262
 1852THY    HM246297   7.885   8.176   7.634 -1.0118 -0.0341  0.6062
 1852THY    HM346298   7.842   8.230   7.462  2.1778 -1.3659 -0.4629
 1852THY    CA646299   7.913   8.415   7.730  0.0702  0.3145  0.7276
 1852THY    HA646300   7.914   8.329   7.798 -1.0606 -0.7355 -0.5333
 1853THY      O46301   9.340   9.725   8.932  0.7465 -0.2410  0.3525
 1853THY     HO46302   9.300   9.720   8.843  0.5786 -2.2263  0.4903
 1853THY    CA146303   9.234   9.697   9.007 -0.4373 -0.7352 -0.3222
 1853THY    CA246304   9.239   9.615   9.120 -0.4350 -0.0773 -0.0829
 1853THY    CP146305   9.370   9.549   9.160 -0.0412  0.2374 -0.4131
 1853THY    HP146306   9.450   9.607   9.112  0.5799  1.9082  2.3661
 1853THY    CP246307   9.402   9.541   9.308  0.1683 -0.6251 -0.6783
 1853THY    HP246308   9.487   9.476   9.331  0.4072 -0.0985 -0.0218
 1853THY    HP346309   9.419   9.643   9.343  0.3896 -0.1605 -2.0760
 1853THY    HP446310   9.319   9.502   9.368  1.3650  0.5658  1.8947
 1853THY    CP346311   9.371   9.398   9.114 -0.2774  0.7067 -0.1708
 1853THY    HP546312   9.465   9.347   9.138  0.1928  0.9518 -1.4172
 1853THY    HP646313   9.301   9.336   9.171  1.5679  0.1122  1.5471
 1853THY    HP746314   9.360   9.395   9.005  1.7235 -0.4182 -0.3852
 1853THY    CA346315   9.119   9.586   9.189  0.2286  0.3603 -0.1468
 1853THY    HA346316   9.121   9.502   9.258  3.8936  0.2198 -0.2389
 1853THY    CA446317   9.004   9.651   9.151  0.3335  0.6704  0.5622
 1853THY    HA446318   8.906   9.622   9.186 -0.5639 -1.0795 -2.8987
 1853THY    CA546319   9.000   9.743   9.042  0.1967  0.5089  0.3147
 1853THY    CM146320   8.872   9.813   8.998  0.0276 -0.8040  0.3428
 1853THY    HM146321   8.841   9.805   8.893  1.5968  1.6491 -0.4076
 1853THY    HM246322   8.785   9.775   9.053 -0.7302 -0.9449 -0.9211
 1853THY    HM346323   8.878   9.921   9.016  1.4777 -0.2113 -2.9341
 1853THY    CA646324   9.117   9.750   8.963 -0.2789 -0.3086 -0.0115
 1853THY    HA646325   9.120   9.824   8.883  1.7669  0.7497  0.9792
 1854THY      O46326   5.567   5.399   7.628 -0.1820  0.0294 -1.0893
 1854THY     HO46327   5.660   5.407   7.657 -0.1671 -1.9671 -0.4575
 1854THY    CA146328   5.544   5.266   7.620  0.5085  1.0404  0.5045
 1854THY    CA246329   5.408   5.222   7.607  0.7055  0.2162 -0.0290
 1854THY    CP146330   5.291   5.329   7.609 -0.2575  0.4026 -0.1118
 1854THY    HP146331   5.325   5.433   7.621 -0.2635  0.1982  2.0525
 1854THY    CP246332   5.206   5.314   7.482  0.2928 -0.7067  0.1600
 1854THY    HP246333   5.276   5.319   7.397 -0.9954 -2.0834 -1.0299
 1854THY    HP346334   5.146   5.222   7.481 -2.6382  1.0777 -0.2427
 1854THY    HP446335   5.123   5.385   7.470 -1.1111 -2.2430  0.4128
 1854THY    CP346336   5.203   5.313   7.728  0.8826 -0.0395 -0.3272
 1854THY    HP546337   5.151   5.217   7.735 -0.0795  0.5259  0.6025
 1854THY    HP646338   5.263   5.307   7.819  0.1838  0.9398  0.2231
 1854THY    HP746339   5.119   5.382   7.744  1.7150  1.1276 -0.8483
 1854THY    CA346340   5.383   5.086   7.615  0.3592  0.2413 -0.4728
 1854THY    HA346341   5.280   5.053   7.627  0.2297  0.8368  0.1021
 1854THY    CA446342   5.487   4.995   7.615 -0.0695  0.1671  0.2409
 1854THY    HA446343   5.474   4.888   7.617  0.6185  0.0902  1.6739
 1854THY    CA546344   5.621   5.035   7.612  0.1809 -0.4931  0.9863
 1854THY    CM146345   5.729   4.932   7.624 -0.3312 -0.3717 -0.3529
 1854THY    HM146346   5.798   4.962   7.704 -0.2827 -0.9127 -0.1907
 1854THY    HM246347   5.693   4.831   7.649 -0.1829 -0.2868  0.2277
 1854THY    HM346348   5.788   4.928   7.533 -1.4860  1.4924 -1.2353
 1854THY    CA646349   5.644   5.177   7.622 -1.1557  0.4406  0.3570
 1854THY    HA646350   5.745   5.205   7.648 -0.4576 -1.8404  0.3450
 1855THY      O46351   5.872   1.091   4.946 -0.0284  0.1534  0.2087
 1855THY     HO46352   5.866   0.994   4.950  1.4594  0.0659  1.4533
 1855THY    CA146353   5.747   1.129   4.983  0.1356  0.1180  0.4060
 1855THY    CA246354   5.692   1.255   4.944 -0.1245  0.4713 -0.5018
 1855THY    CP146355   5.765   1.342   4.837  0.3000  0.4787  0.4290
 1855THY    HP146356   5.850   1.297   4.785 -0.3359  1.3505 -1.4604
 1855THY    CP246357   5.665   1.380   4.724 -0.4793  0.1124 -0.4360
 1855THY    HP246358   5.602   1.463   4.759  1.0208  1.6136 -1.1549
 1855THY    HP346359   5.710   1.405   4.627 -1.6398  1.3610 -0.6861
 1855THY    HP446360   5.599   1.295   4.704  0.2780 -0.1960 -1.6715
 1855THY    CP346361   5.822   1.471   4.898 -0.1112  0.1136  0.1497
 1855THY    HP546362   5.880   1.518   4.818  0.2664 -2.1872 -0.9924
 1855THY    HP646363   5.737   1.536   4.922  0.3235  0.9730 -0.5762
 1855THY    HP746364   5.892   1.451   4.981  0.1391 -0.0850 -0.1080
 1855THY    CA346365   5.571   1.296   5.005 -0.0927  0.2052 -0.5986
 1855THY    HA346366   5.526   1.391   4.977 -1.2520 -0.6345 -1.6879
 1855THY    CA446367   5.500   1.209   5.092  0.5247  0.0831  0.3957
 1855THY    HA446368   5.410   1.238   5.146 -0.7603  0.3949 -1.7824
 1855THY    CA546369   5.552   1.087   5.125 -0.1367 -0.8761 -0.0658
 1855THY    CM146370   5.491   0.991   5.227  0.4162  0.4459  0.4983
 1855THY    HM146371   5.494   0.888   5.190  1.5912  1.5522 -2.8101
 1855THY    HM246372   5.534   1.001   5.327  0.7084  3.4557  0.1723
 1855THY    HM346373   5.385   1.018   5.231  0.5608  1.0823  0.2196
 1855THY    CA646374   5.679   1.050   5.076  0.0226  0.2799  0.0205
 1855THY    HA646375   5.725   0.962   5.120  0.0344  1.1288  1.8001
 1856THY      O46376   0.143   7.001   4.509  1.0683  0.4974  0.4106
 1856THY     HO46377   0.186   7.062   4.447  3.8823  1.4041  3.0350
 1856THY    CA146378   0.021   6.986   4.449  0.2216  0.3424 -0.3195
 1856THY    CA246379  -0.062   6.879   4.461 -0.4199  0.2228  0.1242
 1856THY    CP146380  -0.030   6.762   4.549 -0.4710  0.2215 -0.4740
 1856THY    HP146381   0.077   6.740   4.549 -0.1774  1.5490 -1.2849
 1856THY    CP246382  -0.062   6.794   4.692 -0.3938 -0.2613 -0.0708
 1856THY    HP246383  -0.168   6.790   4.721 -0.0186 -0.9126  1.2738
 1856THY    HP346384  -0.011   6.730   4.765 -0.2430  0.4353  0.4467
 1856THY    HP446385  -0.019   6.895   4.700  0.9496 -0.4506 -3.4736
 1856THY    CP346386  -0.102   6.628   4.508 -0.5503  0.3571  0.1687
 1856THY    HP546387  -0.053   6.547   4.563  0.9446  0.5344 -0.8723
 1856THY    HP646388  -0.209   6.632   4.531 -0.3415  0.7700  1.1312
 1856THY    HP746389  -0.085   6.619   4.400  0.1810  2.1779  0.0992
 1856THY    CA346390  -0.197   6.888   4.399  0.1353 -0.0894 -0.0852
 1856THY    HA346391  -0.270   6.807   4.399 -0.5518  0.5037 -1.0518
 1856THY    CA446392  -0.232   7.013   4.353 -0.2679  0.4421  0.0550
 1856THY    HA446393  -0.335   7.026   4.320  0.0374 -0.3822 -1.2972
 1856THY    CA546394  -0.139   7.116   4.341  0.2892 -1.1936 -0.2912
 1856THY    CM146395  -0.184   7.258   4.292  0.3378 -0.0937  0.2169
 1856THY    HM146396  -0.111   7.287   4.216 -0.9135 -0.7908 -1.2924
 1856THY    HM246397  -0.279   7.262   4.238  1.1309  3.1964 -1.1944
 1856THY    HM346398  -0.180   7.337   4.368 -0.2422 -2.1208  2.4897
 1856THY    CA646399  -0.014   7.104   4.391 -0.1038  0.2544  0.0267
 1856THY    HA646400   0.058   7.184   4.387  2.1394 -1.3352  3.5689
 1857THY      O46401   6.889   1.841   4.913  0.2933  0.3608 -1.0036
 1857THY     HO46402   6.912   1.913   4.974 -1.3907 -0.3378  0.5529
 1857THY    CA146403   6.779   1.777   4.957  0.6135  0.5772  0.3919
 1857THY    CA246404   6.700   1.694   4.874  0.0657 -0.7307 -0.1876
 1857THY    CP146405   6.744   1.661   4.733 -0.5885 -0.1181  0.1449
 1857THY    HP146406   6.852   1.678   4.730 -0.3881 -1.3122  0.1207
 1857THY    CP246407   6.727   1.514   4.727  0.2770  0.8135 -0.6712
 1857THY    HP246408   6.782   1.463   4.807  0.5943  0.3101 -1.2046
 1857THY    HP346409   6.622   1.487   4.745  0.3717  1.9237  2.1864
 1857THY    HP446410   6.756   1.475   4.629 -2.8072 -0.3689 -1.2355
 1857THY    CP346411   6.656   1.732   4.629  0.3259  0.2026 -0.4315
 1857THY    HP546412   6.669   1.841   4.625  2.1149  0.0476  0.1108
 1857THY    HP646413   6.678   1.684   4.534  1.0017 -0.3379 -0.0104
 1857THY    HP746414   6.552   1.710   4.655  0.4789 -0.1873 -0.1527
 1857THY    CA346415   6.571   1.654   4.930  0.3345 -0.8448  0.0576
 1857THY    HA346416   6.499   1.597   4.872  0.4975 -2.1375  1.0882
 1857THY    CA446417   6.539   1.688   5.061 -0.0390 -0.0545  0.1374
 1857THY    HA446418   6.446   1.647   5.099 -0.6096  1.6672  0.7006
 1857THY    CA546419   6.625   1.762   5.137 -0.2109 -0.1596 -0.3078
 1857THY    CM146420   6.584   1.803   5.279  0.3345 -0.1720  0.0264
 1857THY    HM146421   6.525   1.724   5.328  1.2855  1.1412  3.6317
 1857THY    HM246422   6.679   1.810   5.332  0.8179 -0.8786 -0.7275
 1857THY    HM346423   6.530   1.898   5.271 -1.7958 -1.4459 -2.2302
 1857THY    CA646424   6.749   1.802   5.089  0.3746 -0.3744  0.1291
 1857THY    HA646425   6.818   1.869   5.138 -0.7843  0.4154  0.7245
 1858THY      O46426   3.652   4.794   5.757  0.1459 -0.4421 -0.0849
 1858THY     HO46427   3.616   4.802   5.667 -2.3858  3.4027  1.0160
 1858THY    CA146428   3.759   4.711   5.762 -0.0232 -0.4752  0.8297
 1858THY    CA246429   3.790   4.646   5.877  0.1740  0.1582  0.4861
 1858THY    CP146430   3.721   4.687   6.007 -0.0591  0.2101 -0.6504
 1858THY    HP146431   3.614   4.688   5.985  0.0142 -1.1753 -1.2129
 1858THY    CP246432   3.719   4.569   6.106 -0.4264 -0.6095 -0.0491
 1858THY    HP246433   3.658   4.581   6.196  0.7454  1.9603  0.4915
 1858THY    HP346434   3.686   4.485   6.044  0.7744  0.0716 -1.6885
 1858THY    HP446435   3.823   4.550   6.136 -0.6566  0.7172  1.7225
 1858THY    CP346436   3.783   4.812   6.079  0.9112  0.3935  0.0511
 1858THY    HP546437   3.804   4.895   6.010  2.7306  0.5057  0.6869
 1858THY    HP646438   3.714   4.850   6.155  1.3674  1.1198  0.1175
 1858THY    HP746439   3.886   4.787   6.110  0.8094  0.8221  0.7551
 1858THY    CA346440   3.893   4.557   5.873 -0.5596 -0.0200 -0.2519
 1858THY    HA346441   3.921   4.498   5.959 -0.7520  0.7027  0.3104
 1858THY    CA446442   3.955   4.524   5.753 -0.6160  0.5511 -0.3122
 1858THY    HA446443   4.035   4.452   5.761 -1.8130 -0.7417  0.4801
 1858THY    CA546444   3.923   4.588   5.633 -0.6237  0.6745  0.1615
 1858THY    CM146445   3.991   4.552   5.501  0.3471 -0.0438 -1.2543
 1858THY    HM146446   3.941   4.608   5.421 -1.0118 -2.2744 -2.0817
 1858THY    HM246447   4.098   4.574   5.506  0.6207 -1.1910 -1.6115
 1858THY    HM346448   3.987   4.447   5.468  1.0757 -1.0191  1.5048
 1858THY    CA646449   3.825   4.683   5.638  0.1014 -0.3578 -0.2083
 1858THY    HA646450   3.785   4.738   5.554  1.2187 -0.3910 -0.7762
 1859THY      O46451   7.205   0.386   1.095  0.0360  0.1346  0.3363
 1859THY     HO46452   7.240   0.350   1.012  1.1537 -0.8617  1.2072
 1859THY    CA146453   7.158   0.287   1.171  0.8313  0.0952  0.0294
 1859THY    CA246454   7.089   0.312   1.289 -0.5126 -0.9791  0.5113
 1859THY    CP146455   7.059   0.454   1.323  0.4242  0.5497 -0.4993
 1859THY    HP146456   7.046   0.511   1.231 -3.9093  1.3191  0.3802
 1859THY    CP246457   6.930   0.476   1.407  0.2419 -0.1605 -0.2893
 1859THY    HP246458   6.842   0.447   1.348 -1.8800  4.3848  0.2065
 1859THY    HP346459   6.939   0.428   1.505  1.3368 -0.7474 -0.6653
 1859THY    HP446460   6.917   0.581   1.437  1.5286 -0.5016  1.6352
 1859THY    CP346461   7.176   0.521   1.389  0.2556  0.5247  0.2759
 1859THY    HP546462   7.189   0.486   1.493 -1.4626  0.7465  0.6019
 1859THY    HP646463   7.268   0.496   1.335 -0.4022 -0.2330 -0.5285
 1859THY    HP746464   7.169   0.630   1.397  0.3098  0.6242 -0.9256
 1859THY    CA346465   7.048   0.204   1.364  0.3489  0.0648 -0.1130
 1859THY    HA346466   6.995   0.222   1.458 -0.5032  0.5642 -0.6748
 1859THY    CA446467   7.077   0.073   1.324 -0.1725 -0.2664 -0.6311
 1859THY    HA446468   7.035  -0.005   1.386  0.9474  0.5262  1.2137
 1859THY    CA546469   7.158   0.056   1.207 -0.1785  0.1536 -0.3822
 1859THY    CM146470   7.194  -0.082   1.163  0.3062  0.3930 -0.1961
 1859THY    HM146471   7.302  -0.105   1.163  0.0040 -1.1159 -0.3200
 1859THY    HM246472   7.146  -0.164   1.217  1.2712 -0.3479 -0.4323
 1859THY    HM346473   7.160  -0.091   1.059 -0.4923  0.5425  0.0499
 1859THY    CA646474   7.186   0.168   1.127 -0.4780  1.4031 -0.4570
 1859THY    HA646475   7.246   0.157   1.037 -1.5327  0.4293 -1.0676
 1860THY      O46476   1.545   7.604   2.667 -0.0910  0.4821 -0.1839
 1860THY     HO46477   1.467   7.568   2.622  1.2117 -3.5038  0.3125
 1860THY    CA146478   1.562   7.513   2.768 -0.1371 -0.9848  0.4652
 1860THY    CA246479   1.688   7.477   2.814 -0.5308 -0.1938 -1.1027
 1860THY    CP146480   1.820   7.535   2.755 -0.0908  0.1418  1.3744
 1860THY    HP146481   1.795   7.626   2.699  0.3584 -0.0668  0.8153
 1860THY    CP246482   1.928   7.567   2.860  0.0907  0.1118 -0.0584
 1860THY    HP246483   1.972   7.475   2.899 -2.0730 -0.6591  0.7011
 1860THY    HP346484   2.000   7.639   2.818 -1.9104  0.9520 -2.2691
 1860THY    HP446485   1.882   7.618   2.946 -0.3839 -0.1661 -0.1486
 1860THY    CP346486   1.892   7.429   2.650 -0.0187 -0.3982 -0.1603
 1860THY    HP546487   1.962   7.472   2.577  0.3213  0.0416  0.4193
 1860THY    HP646488   1.951   7.344   2.685  0.8980 -0.6256 -2.1101
 1860THY    HP746489   1.809   7.404   2.583 -1.5676  2.9641  0.3094
 1860THY    CA346490   1.697   7.391   2.920  0.7009 -0.1976 -0.4813
 1860THY    HA346491   1.791   7.362   2.965  0.2541 -2.2734 -0.7479
 1860THY    CA446492   1.579   7.335   2.974 -0.2805 -0.3410 -0.1448
 1860THY    HA446493   1.576   7.264   3.056 -1.6341  0.8008  0.8632
 1860THY    CA546494   1.453   7.369   2.926  0.2975  0.4102 -0.1925
 1860THY    CM146495   1.321   7.309   2.974  0.1759  0.4655  0.1007
 1860THY    HM146496   1.316   7.200   2.968  1.7729  0.4272 -1.1216
 1860THY    HM246497   1.321   7.336   3.080  0.0166 -1.9436  0.7547
 1860THY    HM346498   1.236   7.351   2.919  0.8321 -1.0676 -2.2269
 1860THY    CA646499   1.449   7.461   2.822  0.5039  0.8717  1.1206
 1860THY    HA646500   1.354   7.492   2.778 -0.0720 -1.6123  0.4598
 1861THY      O46501   6.973   5.374   4.691 -0.0668  0.5724  0.5033
 1861THY     HO46502   7.000   5.280   4.692  1.1817  0.8780 -0.7951
 1861THY    CA146503   6.958   5.402   4.565  0.0169  0.2724  0.2279
 1861THY    CA246504   6.882   5.506   4.518  0.3228 -0.1409 -0.2792
 1861THY    CP146505   6.804   5.597   4.611 -0.4073 -0.4184 -0.9022
 1861THY    HP146506   6.803   5.570   4.717 -0.3590 -2.5825 -1.4030
 1861THY    CP246507   6.842   5.747   4.616  0.0277 -0.3071 -0.2616
 1861THY    HP246508   6.787   5.811   4.685  2.0438  0.9215  0.2987
 1861THY    HP346509   6.945   5.761   4.651  0.2849 -0.4638 -0.9412
 1861THY    HP446510   6.826   5.790   4.517  1.0072 -1.2969 -0.8816
 1861THY    CP346511   6.652   5.575   4.584 -0.1808  0.1489  0.8878
 1861THY    HP546512   6.620   5.470   4.586 -0.6474  0.1701 -1.5357
 1861THY    HP646513   6.592   5.636   4.652 -1.8514  1.1459 -1.3352
 1861THY    HP746514   6.630   5.599   4.479 -2.5832 -0.8753  1.0796
 1861THY    CA346515   6.868   5.525   4.380 -0.2041  0.1141  0.0534
 1861THY    HA346516   6.798   5.597   4.338  1.0966  0.0280 -2.3955
 1861THY    CA446517   6.940   5.447   4.293  0.0414  0.2748  0.5398
 1861THY    HA446518   6.924   5.462   4.187 -0.9420  1.5429  0.8364
 1861THY    CA546519   7.023   5.348   4.338 -0.9885  0.2168 -0.5514
 1861THY    CM146520   7.108   5.275   4.233  0.3751  0.0324 -0.0012
 1861THY    HM146521   7.163   5.193   4.281  0.8456  0.8139  0.8241
 1861THY    HM246522   7.046   5.221   4.160 -0.9633  1.7639 -0.2004
 1861THY    HM346523   7.183   5.331   4.178  0.6739 -0.2836  0.0819
 1861THY    CA646524   7.029   5.320   4.474  0.0797  0.4634  0.6536
 1861THY    HA646525   7.097   5.246   4.516  1.9353  1.1861 -0.9463
 1862THY      O46526   7.221   4.309   1.252 -0.0662  0.2044 -0.0412
 1862THY     HO46527   7.272   4.328   1.333 -1.0697 -0.7199  0.8554
 1862THY    CA146528   7.296   4.339   1.143 -0.6333  0.5871 -0.0005
 1862THY    CA246529   7.247   4.359   1.015  0.1366 -0.7332  0.1883
 1862THY    CP146530   7.101   4.331   0.980  0.2100  0.2017 -0.3587
 1862THY    HP146531   7.043   4.321   1.072  2.4115  1.5332  1.2534
 1862THY    CP246532   7.033   4.444   0.898 -0.4202  0.4714 -0.4189
 1862THY    HP246533   7.076   4.540   0.929 -1.4211  0.7034  0.2955
 1862THY    HP346534   7.044   4.428   0.790  2.2230 -0.9340 -0.0017
 1862THY    HP446535   6.924   4.443   0.915 -0.5618  1.5190 -1.1598
 1862THY    CP346536   7.092   4.195   0.910 -0.2564 -0.4190 -0.0124
 1862THY    HP546537   7.145   4.203   0.814  2.0548  0.2951  1.2372
 1862THY    HP646538   7.134   4.110   0.966 -1.4446 -0.2489  1.1756
 1862THY    HP746539   6.985   4.178   0.896 -0.5569 -1.5494  2.9417
 1862THY    CA346540   7.336   4.405   0.911  0.3008 -0.5402 -0.8180
 1862THY    HA346541   7.307   4.415   0.807  0.1689 -0.8945 -0.8188
 1862THY    CA446542   7.468   4.431   0.946 -0.6454  0.5201  0.9312
 1862THY    HA446543   7.535   4.473   0.871 -2.1361  1.7359  0.2172
 1862THY    CA546544   7.519   4.403   1.072 -0.6010  0.1591 -0.1723
 1862THY    CM146545   7.668   4.413   1.097  0.0213  0.6906  0.2850
 1862THY    HM146546   7.700   4.518   1.094  2.3112  0.0715  1.1022
 1862THY    HM246547   7.683   4.369   1.196  1.3123  1.4208  0.4291
 1862THY    HM346548   7.720   4.358   1.018 -2.7023 -0.5902 -0.7626
 1862THY    CA646549   7.429   4.358   1.171 -0.5379  0.6198  0.0365
 1862THY    HA646550   7.466   4.336   1.270 -0.0385 -1.0363 -0.4841
 1863THY      O46551   6.180   1.147   7.474  0.1406 -0.5037  0.0788
 1863THY     HO46552   6.110   1.080   7.467  0.8862 -1.1641 -1.5268
 1863THY    CA146553   6.125   1.257   7.531 -0.3595  0.1721  0.3208
 1863THY    CA246554   6.194   1.377   7.530 -0.0471 -0.2538  0.4797
 1863THY    CP146555   6.342   1.392   7.489  0.5759  0.7358 -0.4336
 1863THY    HP146556   6.391   1.296   7.467 -0.1124  0.5586 -1.2510
 1863THY    CP246557   6.347   1.465   7.358 -0.3385  0.5684  0.4546
 1863THY    HP246558   6.289   1.557   7.363  0.3158  1.1024 -1.1168
 1863THY    HP346559   6.453   1.481   7.334 -0.9807  2.7706 -1.2651
 1863THY    HP446560   6.300   1.398   7.285 -3.0559 -0.5351  3.0065
 1863THY    CP346561   6.423   1.456   7.595  0.3107  0.1061 -0.0921
 1863THY    HP546562   6.380   1.555   7.614 -0.0567  0.1990 -1.3637
 1863THY    HP646563   6.408   1.394   7.684 -2.0115 -1.7828 -1.6836
 1863THY    HP746564   6.531   1.460   7.573  0.6842 -0.6686  1.4335
 1863THY    CA346565   6.117   1.489   7.572  0.1651  0.4931 -0.2290
 1863THY    HA346566   6.167   1.585   7.576  2.6226 -0.7388  1.4181
 1863THY    CA446567   5.993   1.480   7.636 -0.0665  0.0996 -0.0082
 1863THY    HA446568   5.941   1.565   7.678  0.4039 -0.4799  1.8645
 1863THY    CA546569   5.934   1.353   7.641  0.7173  0.2473 -0.3786
 1863THY    CM146570   5.801   1.336   7.706  0.1773  0.5747 -1.0152
 1863THY    HM146571   5.828   1.324   7.811 -0.0951  0.0892 -0.9924
 1863THY    HM246572   5.733   1.420   7.689  0.4960  1.0780  0.1661
 1863THY    HM346573   5.755   1.238   7.685  0.7025  0.2513 -0.6869
 1863THY    CA646574   5.993   1.245   7.564 -0.4910  0.0668  0.1782
 1863THY    HA646575   5.944   1.148   7.553 -1.3472  0.6120 -1.0555
 1864THY      O46576   8.756   7.252   0.976  0.1995  0.0272  0.6509
 1864THY     HO46577   8.766   7.340   1.016 -0.1956  0.1443  0.4985
 1864THY    CA146578   8.700   7.183   1.076 -0.2999 -0.5318 -0.3627
 1864THY    CA246579   8.615   7.075   1.058 -0.2199 -0.1117  0.7211
 1864THY    CP146580   8.556   7.031   0.913  0.4927 -0.4224  0.5735
 1864THY    HP146581   8.581   7.095   0.828  1.3357 -1.6355 -0.1166
 1864THY    CP246582   8.618   6.892   0.870 -0.1653  0.5061  0.0961
 1864THY    HP246583   8.594   6.816   0.945 -0.1809 -0.1737 -0.5846
 1864THY    HP346584   8.573   6.865   0.773  0.4542  0.6232 -0.2318
 1864THY    HP446585   8.726   6.906   0.859 -0.2991  0.8476 -0.8712
 1864THY    CP346586   8.404   7.031   0.911  0.5458  0.2479 -0.0839
 1864THY    HP546587   8.363   6.966   0.989  0.2775 -0.5615 -0.8869
 1864THY    HP646588   8.365   7.133   0.908 -2.0162 -0.6792 -2.4119
 1864THY    HP746589   8.364   6.989   0.818  0.1595  1.4554 -0.4811
 1864THY    CA346590   8.573   7.007   1.169 -0.0831  0.3720  0.1602
 1864THY    HA346591   8.496   6.930   1.162  1.9755 -1.6340 -2.0636
 1864THY    CA446592   8.628   7.036   1.299 -0.1069 -0.4623  0.3741
 1864THY    HA446593   8.608   6.978   1.388  0.4568  0.1215  0.8974
 1864THY    CA546594   8.712   7.144   1.311 -0.7808 -0.3461  0.4919
 1864THY    CM146595   8.781   7.173   1.440  0.5363  0.1238  0.6103
 1864THY    HM146596   8.840   7.265   1.429 -0.1755  0.7153  1.5403
 1864THY    HM246597   8.725   7.166   1.534  0.3845 -1.0236  0.4413
 1864THY    HM346598   8.867   7.105   1.446  1.7786  1.4676 -1.0605
 1864THY    CA646599   8.742   7.222   1.200  0.0796  0.1890  0.9365
 1864THY    HA646600   8.814   7.303   1.208  0.0631  0.2177  0.7894
 1865THY      O46601   7.529   4.777   1.124  0.4284  0.0189  0.2433
 1865THY     HO46602   7.521   4.692   1.077  2.7458  0.1329 -0.5109
 1865THY    CA146603   7.414   4.803   1.196 -0.1968 -0.2163 -0.0366
 1865THY    CA246604   7.416   4.914   1.279  0.1704 -0.5111 -0.2214
 1865THY    CP146605   7.540   5.006   1.289  0.6674  0.0511  0.0872
 1865THY    HP146606   7.603   4.993   1.200 -0.3967 -2.4719 -0.3826
 1865THY    CP246607   7.501   5.155   1.291  0.5423 -0.4741 -0.6642
 1865THY    HP246608   7.591   5.214   1.274 -1.2044  2.4504 -0.3413
 1865THY    HP346609   7.435   5.191   1.212  0.2457  2.9579  0.9844
 1865THY    HP446610   7.445   5.171   1.384  0.3880 -4.9365  0.2305
 1865THY    CP346611   7.629   4.979   1.417  0.2376  0.1266 -0.3262
 1865THY    HP546612   7.711   5.051   1.422 -1.2137  1.7686  1.8565
 1865THY    HP646613   7.578   4.998   1.513  1.0127 -1.2675  0.3876
 1865THY    HP746614   7.659   4.873   1.412  2.3471  0.4813  2.3795
 1865THY    CA346615   7.298   4.933   1.360  0.0574  0.0133  0.5217
 1865THY    HA346616   7.286   5.017   1.428 -3.0136  1.2517 -1.3510
 1865THY    CA446617   7.188   4.845   1.344  0.0978 -0.0994 -0.2968
 1865THY    HA446618   7.099   4.848   1.406  0.2998 -1.7932  0.1431
 1865THY    CA546619   7.191   4.739   1.254  0.3312 -0.9168  0.4207
 1865THY    CM146620   7.072   4.650   1.248  0.3219 -0.7915  0.2319
 1865THY    HM146621   6.986   4.694   1.299  0.5439 -0.0668 -0.0063
 1865THY    HM246622   7.068   4.627   1.141 -0.3405 -0.2880  0.1471
 1865THY    HM346623   7.096   4.557   1.300 -0.0510 -0.3521  1.2028
 1865THY    CA646624   7.305   4.717   1.183 -0.6298 -0.5337  0.3358
 1865THY    HA646625   7.311   4.632   1.115  0.1432  0.6648 -1.1659
 1866THY      O46626   9.759   3.963   7.372 -0.3474 -0.2016  0.2220
 1866THY     HO46627   9.662   3.973   7.367 -0.0964  2.9324 -1.3388
 1866THY    CA146628   9.785   4.069   7.456  0.6107 -0.6051 -0.4610
 1866THY    CA246629   9.893   4.154   7.448  0.9934  0.2975 -0.4637
 1866THY    CP146630   9.988   4.138   7.332 -0.2469  0.2208  0.6760
 1866THY    HP146631  10.005   4.033   7.303 -0.9269  0.2878 -0.0045
 1866THY    CP246632   9.925   4.203   7.201 -0.1689  0.4770  0.1884
 1866THY    HP246633   9.919   4.312   7.215  0.2626  0.7415 -1.5177
 1866THY    HP346634   9.984   4.175   7.113 -0.1605  1.9909 -0.3248
 1866THY    HP446635   9.824   4.162   7.191  0.6484 -1.9001  0.9373
 1866THY    CP346636  10.125   4.202   7.354 -0.3683 -0.1848  0.7874
 1866THY    HP546637  10.189   4.202   7.265 -1.6101  0.8335 -0.1452
 1866THY    HP646638  10.112   4.309   7.378  0.3507 -0.0428  0.5602
 1866THY    HP746639  10.181   4.151   7.433  1.6025  0.3525 -0.2079
 1866THY    CA346640   9.912   4.242   7.559 -0.2398  0.7564 -0.3855
 1866THY    HA346641  10.003   4.302   7.564 -1.1454  2.0905  0.6933
 1866THY    CA446642   9.818   4.250   7.665  1.0251  0.2447  0.8425
 1866THY    HA446643   9.831   4.321   7.746  1.8375  2.7737 -1.3565
 1866THY    CA546644   9.706   4.177   7.655 -0.7334 -0.1165 -0.1578
 1866THY    CM146645   9.591   4.204   7.758  0.2099 -0.1651 -0.0409
 1866THY    HM146646   9.537   4.297   7.738 -2.2931 -1.7196 -1.0106
 1866THY    HM246647   9.515   4.126   7.746  1.1495 -0.9510 -1.0509
 1866THY    HM346648   9.643   4.196   7.854  0.2709  0.2004 -0.0435
 1866THY    CA646649   9.684   4.084   7.551  0.3400  0.4117 -0.5203
 1866THY    HA646650   9.586   4.039   7.539  0.6144 -0.2665 -0.3267
 1867THY      O46651   7.713   4.953   2.357  0.0360  0.2493  0.0399
 1867THY     HO46652   7.810   4.953   2.351  0.3060 -1.9490  2.4232
 1867THY    CA146653   7.677   4.916   2.481 -0.5752  0.1635  0.3504
 1867THY    CA246654   7.550   4.928   2.526  0.3240  0.2792 -0.4933
 1867THY    CP146655   7.448   5.013   2.446 -0.4637  0.0485  0.3974
 1867THY    HP146656   7.453   4.972   2.344  1.2113  0.0453  0.4451
 1867THY    CP246657   7.303   4.996   2.491  0.6305 -0.0828  0.4366
 1867THY    HP246658   7.282   4.889   2.480 -1.0225  0.1256  1.3108
 1867THY    HP346659   7.280   5.035   2.591 -1.3723 -0.0810  0.0012
 1867THY    HP446660   7.241   5.047   2.417 -1.7448 -1.4230  1.4041
 1867THY    CP346661   7.483   5.163   2.450 -0.4025  0.2024  0.5999
 1867THY    HP546662   7.579   5.184   2.401 -0.8790 -2.0990 -1.5366
 1867THY    HP646663   7.408   5.231   2.407  1.2477  1.8302  0.1534
 1867THY    HP746664   7.481   5.200   2.553 -2.6737  0.3408  0.5640
 1867THY    CA346665   7.521   4.873   2.651  0.2917  0.3581  0.7829
 1867THY    HA346666   7.425   4.883   2.700 -1.5823 -1.4571 -2.1811
 1867THY    CA446667   7.625   4.810   2.726 -0.1750 -0.5188 -0.1829
 1867THY    HA446668   7.612   4.769   2.826 -1.0480 -0.4711 -0.2703
 1867THY    CA546669   7.752   4.796   2.676  0.7152 -0.3646  0.4925
 1867THY    CM146670   7.857   4.727   2.742 -0.8522  0.8169  0.1822
 1867THY    HM146671   7.908   4.665   2.668 -1.5393 -1.9591  1.8822
 1867THY    HM246672   7.945   4.784   2.776 -0.9947  0.8981  0.4253
 1867THY    HM346673   7.816   4.660   2.818  0.7325 -0.5710 -0.1311
 1867THY    CA646674   7.773   4.848   2.551  0.2415  0.1062 -0.5212
 1867THY    HA646675   7.870   4.826   2.506 -0.8083 -2.1731 -1.8450
 1868THY      O46676   3.635   8.775   9.666  0.0984  0.1223  0.1079
 1868THY     HO46677   3.620   8.870   9.652  0.4069  0.2779  0.7656
 1868THY    CA146678   3.652   8.737   9.537  0.6389  0.2465  0.4975
 1868THY    CA246679   3.659   8.596   9.506  0.2394 -0.3848 -0.0971
 1868THY    CP146680   3.651   8.496   9.618 -0.1669 -0.0372 -0.2666
 1868THY    HP146681   3.680   8.538   9.714  2.1075  0.9447 -1.3154
 1868THY    CP246682   3.509   8.455   9.643  0.2761  0.3650  0.4190
 1868THY    HP246683   3.458   8.452   9.545  1.6781 -0.3788 -0.3201
 1868THY    HP346684   3.505   8.359   9.695  1.4353  0.6495  1.0590
 1868THY    HP446685   3.457   8.527   9.707  1.0669 -0.5672  2.1599
 1868THY    CP346686   3.736   8.368   9.592  1.2847 -0.6213  0.3028
 1868THY    HP546687   3.666   8.307   9.534 -0.9258  2.9811 -1.1363
 1868THY    HP646688   3.823   8.394   9.531  1.8978  0.9310  1.7613
 1868THY    HP746689   3.747   8.314   9.687 -1.1141 -1.2389  0.3125
 1868THY    CA346690   3.680   8.555   9.373  1.1109  0.2568  0.0591
 1868THY    HA346691   3.672   8.448   9.355  0.8215  0.5152 -1.4779
 1868THY    CA446692   3.695   8.651   9.267  0.0379 -0.2574 -0.1411
 1868THY    HA446693   3.719   8.626   9.164  1.3467 -0.4433  0.1850
 1868THY    CA546694   3.689   8.791   9.297  0.5526 -0.3934  0.7719
 1868THY    CM146695   3.710   8.887   9.184  0.5736  0.2969 -0.2175
 1868THY    HM146696   3.610   8.916   9.150 -0.0463 -1.9809 -0.5444
 1868THY    HM246697   3.760   8.980   9.211  0.9808 -0.0968  0.4140
 1868THY    HM346698   3.777   8.849   9.106  2.7860 -0.1502  1.7901
 1868THY    CA646699   3.665   8.829   9.430  0.2096  0.2014 -0.0542
 1868THY    HA646700   3.647   8.933   9.454  1.6825  0.2178  1.1303
 1869THY      O46701   5.141   0.546   3.360  0.5325  0.3734 -0.4140
 1869THY     HO46702   5.227   0.590   3.373 -0.1783  1.4549  0.8793
 1869THY    CA146703   5.131   0.444   3.446  0.0445  0.5077 -0.7317
 1869THY    CA246704   5.062   0.328   3.411  0.5376  0.4493 -0.2074
 1869THY    CP146705   5.025   0.298   3.258 -0.8064 -0.6275  0.6272
 1869THY    HP146706   5.030   0.397   3.211  1.5770  0.0210  2.0558
 1869THY    CP246707   5.117   0.190   3.195 -0.0770  0.0613 -0.1245
 1869THY    HP246708   5.072   0.181   3.096 -0.8911 -0.0564  0.2483
 1869THY    HP346709   5.221   0.224   3.190 -0.8455  2.7130  0.2545
 1869THY    HP446710   5.113   0.100   3.258  0.0646  0.7287  0.8618
 1869THY    CP346711   4.872   0.259   3.251  0.0230 -0.2309 -0.0557
 1869THY    HP546712   4.859   0.229   3.146  0.2013  1.2007 -0.5088
 1869THY    HP646713   4.841   0.174   3.313  0.9767 -0.4945  0.0819
 1869THY    HP746714   4.807   0.345   3.271  1.1336  0.7881 -0.6897
 1869THY    CA346715   5.034   0.225   3.505  0.2496  0.3824 -0.4439
 1869THY    HA346716   4.972   0.141   3.474 -0.9162  1.6614 -1.7597
 1869THY    CA446717   5.069   0.255   3.641 -0.3680  0.8144  0.4660
 1869THY    HA446718   5.036   0.193   3.724 -0.3072  0.4080  0.1884
 1869THY    CA546719   5.155   0.360   3.666  0.1503  0.1050  0.1835
 1869THY    CM146720   5.210   0.376   3.802  0.2108 -0.8643  0.3815
 1869THY    HM146721   5.211   0.280   3.855  1.3196 -0.0447  1.9153
 1869THY    HM246722   5.304   0.430   3.817 -0.3942  0.5047 -0.5667
 1869THY    HM346723   5.138   0.428   3.865 -2.3960 -1.3885 -1.9590
 1869THY    CA646724   5.174   0.456   3.575 -0.2785 -0.0644  0.4164
 1869THY    HA646725   5.200   0.554   3.614 -1.5479  0.1136  0.8803
 1870THY      O46726   2.431   7.162   5.879 -0.2830 -0.0840  0.2485
 1870THY     HO46727   2.360   7.176   5.943 -0.4431 -1.0786  0.3097
 1870THY    CA146728   2.425   7.271   5.789  0.0431 -0.0958  0.2292
 1870THY    CA246729   2.509   7.281   5.681  0.1033 -0.0950  0.5069
 1870THY    CP146730   2.612   7.165   5.656 -0.2525 -0.9965 -0.2282
 1870THY    HP146731   2.615   7.104   5.747  0.3271  0.8734  1.0595
 1870THY    CP246732   2.580   7.064   5.538 -0.2719 -0.4597 -0.3125
 1870THY    HP246733   2.506   6.988   5.564  0.3468 -1.0894 -0.3623
 1870THY    HP346734   2.535   7.117   5.453 -3.1119 -0.5325  1.0329
 1870THY    HP446735   2.669   7.004   5.515 -0.5738 -1.3160  0.6724
 1870THY    CP346736   2.752   7.225   5.626 -0.6037 -0.2220  0.2255
 1870THY    HP546737   2.751   7.280   5.531  0.5306  1.5011  1.1528
 1870THY    HP646738   2.773   7.303   5.701  0.7723 -2.2207  2.0431
 1870THY    HP746739   2.841   7.161   5.618  0.0893  0.6629  0.6795
 1870THY    CA346740   2.504   7.393   5.599  0.2607 -0.1455  0.4792
 1870THY    HA346741   2.575   7.404   5.518  1.5103  0.9035  1.6747
 1870THY    CA446742   2.401   7.487   5.616  0.9793  0.2721 -0.4855
 1870THY    HA446743   2.389   7.570   5.547  3.6179  1.5228  0.4151
 1870THY    CA546744   2.311   7.469   5.717  0.6271  0.6586 -0.1492
 1870THY    CM146745   2.200   7.568   5.734 -0.6830 -0.9725  0.3596
 1870THY    HM146746   2.249   7.650   5.788  0.2990 -0.3157 -1.4816
 1870THY    HM246747   2.161   7.601   5.638  1.6146 -0.0052 -0.3052
 1870THY    HM346748   2.121   7.525   5.797  1.1489 -0.0791  3.5276
 1870THY    CA646749   2.327   7.368   5.810 -0.5256 -0.8530 -0.1936
 1870THY    HA646750   2.256   7.349   5.890 -1.6800 -1.7799 -1.3930
 1871THY      O46751   7.388   6.329   0.689  0.0140 -0.2109 -1.0549
 1871THY     HO46752   7.303   6.313   0.645  0.5422  0.1049 -2.2268
 1871THY    CA146753   7.474   6.286   0.597 -0.6119  0.8607  0.0483
 1871THY    CA246754   7.575   6.369   0.548  0.6217  0.2018 -0.5698
 1871THY    CP146755   7.593   6.508   0.612 -0.4755 -0.3745 -0.0690
 1871THY    HP146756   7.564   6.510   0.717 -3.1589 -1.0364 -0.7246
 1871THY    CP246757   7.738   6.547   0.616 -0.7813  0.0013 -0.6939
 1871THY    HP246758   7.782   6.568   0.518  2.1450  1.6795  0.8398
 1871THY    HP346759   7.744   6.631   0.686 -0.7824 -0.8086  0.2998
 1871THY    HP446760   7.801   6.470   0.662 -1.4762  0.0615  0.4170
 1871THY    CP346761   7.508   6.615   0.530  0.3562 -0.0756  0.1518
 1871THY    HP546762   7.538   6.625   0.425 -0.7127 -0.2129 -0.1782
 1871THY    HP646763   7.404   6.582   0.520  0.8833 -1.8353  0.1323
 1871THY    HP746764   7.509   6.715   0.575 -1.0556 -0.3795  0.8994
 1871THY    CA346765   7.640   6.335   0.432 -0.2358  0.0072 -0.1573
 1871THY    HA346766   7.728   6.391   0.402  0.5071 -1.0270  0.0477
 1871THY    CA446767   7.608   6.217   0.366  0.9100  0.6060  0.8972
 1871THY    HA446768   7.651   6.194   0.269  0.1120 -0.4571  0.7851
 1871THY    CA546769   7.502   6.135   0.419  0.3438 -0.9766  0.1480
 1871THY    CM146770   7.450   6.027   0.332  0.2313  0.2688  0.0766
 1871THY    HM146771   7.537   5.973   0.293  0.6705  1.6614 -0.9593
 1871THY    HM246772   7.380   5.966   0.390 -0.2300  0.5468 -0.1790
 1871THY    HM346773   7.397   6.072   0.247 -0.4670 -0.8227 -0.0745
 1871THY    CA646774   7.435   6.169   0.533  0.4841 -0.4464  0.3431
 1871THY    HA646775   7.341   6.119   0.556 -1.6486  1.9092 -2.4047
 1872THY      O46776   6.794   2.724   7.034 -0.3483  0.7234  0.1642
 1872THY     HO46777   6.833   2.674   6.961 -2.7930 -2.1648  0.6314
 1872THY    CA146778   6.738   2.834   6.977  0.2577  0.0869  0.2433
 1872THY    CA246779   6.648   2.913   7.051  0.8218  0.2851 -0.1581
 1872THY    CP146780   6.597   2.861   7.191 -0.2800 -0.2069 -0.2214
 1872THY    HP146781   6.632   2.758   7.205  0.6665 -0.1029 -1.6618
 1872THY    CP246782   6.656   2.942   7.311 -0.0362 -0.6588  0.8419
 1872THY    HP246783   6.637   3.050   7.306  1.7154 -0.3742 -0.5824
 1872THY    HP346784   6.619   2.916   7.410  0.9824 -1.0493  1.1245
 1872THY    HP446785   6.765   2.940   7.317  0.1965 -0.7331 -1.8909
 1872THY    CP346786   6.438   2.863   7.198  0.1332 -0.3972 -0.5090
 1872THY    HP546787   6.405   2.816   7.291 -0.1595  1.5262  0.3876
 1872THY    HP646788   6.402   2.966   7.194  0.1870 -0.1948  2.2601
 1872THY    HP746789   6.387   2.813   7.115 -0.5424  1.4424 -1.2569
 1872THY    CA346790   6.599   3.037   7.003  0.7616 -0.4104 -0.1971
 1872THY    HA346791   6.512   3.085   7.048  1.0190 -0.6400  0.5530
 1872THY    CA446792   6.636   3.071   6.868  0.0824 -0.1264 -0.3330
 1872THY    HA446793   6.585   3.151   6.815  0.1830  0.0021 -0.2355
 1872THY    CA546794   6.731   2.997   6.803 -0.3002 -0.0896  0.3839
 1872THY    CM146795   6.771   3.036   6.658 -0.1264 -0.0524 -0.1556
 1872THY    HM146796   6.863   3.094   6.647  0.2962 -0.8024 -0.5955
 1872THY    HM246797   6.781   2.944   6.601 -3.0573 -1.8156  1.8672
 1872THY    HM346798   6.695   3.104   6.616  0.7584  0.7236 -0.5368
 1872THY    CA646799   6.786   2.880   6.858 -0.0203 -0.4374  0.7131
 1872THY    HA646800   6.862   2.828   6.801  0.8320  2.5884 -1.1561
 1873THY      O46801   1.773   0.194   5.658 -0.1920  0.0676 -0.5681
 1873THY     HO46802   1.839   0.182   5.728  0.1015 -1.5723 -1.0922
 1873THY    CA146803   1.701   0.305   5.689 -0.0442 -0.2613 -0.1896
 1873THY    CA246804   1.578   0.338   5.631 -0.7834  0.1814  0.4140
 1873THY    CP146805   1.519   0.243   5.524 -0.4446 -0.6846 -0.6319
 1873THY    HP146806   1.604   0.192   5.477 -0.1870 -0.5193 -0.3525
 1873THY    CP246807   1.443   0.120   5.592  0.0497  0.1518 -0.1986
 1873THY    HP246808   1.507   0.077   5.670  3.0727  0.7679 -2.1789
 1873THY    HP346809   1.348   0.151   5.637 -0.3612 -0.1664 -0.8327
 1873THY    HP446810   1.409   0.049   5.516  0.3885 -1.8892  1.4580
 1873THY    CP346811   1.434   0.308   5.420  1.0543 -0.0091 -0.5148
 1873THY    HP546812   1.342   0.343   5.469  1.0671 -1.5104  0.6846
 1873THY    HP646813   1.474   0.400   5.377  2.4437  0.1305  0.9763
 1873THY    HP746814   1.409   0.238   5.340  0.2858  2.6047 -2.7066
 1873THY    CA346815   1.507   0.452   5.680 -0.4722  0.1119  0.8002
 1873THY    HA346816   1.408   0.475   5.640  0.5596  3.0038 -0.3898
 1873THY    CA446817   1.558   0.529   5.786  0.0106  0.0490  0.0603
 1873THY    HA446818   1.506   0.611   5.834  2.2255  1.1785  0.6582
 1873THY    CA546819   1.684   0.491   5.839  0.2091 -0.1724  0.1630
 1873THY    CM146820   1.736   0.581   5.956  0.5414  0.0377 -0.2195
 1873THY    HM146821   1.675   0.672   5.965 -0.6648 -0.8494  0.8572
 1873THY    HM246822   1.743   0.532   6.054  2.4290 -0.0641 -0.3597
 1873THY    HM346823   1.843   0.604   5.947  0.9449 -1.3933  0.5728
 1873THY    CA646824   1.760   0.391   5.785 -0.1190 -0.5336  0.1559
 1873THY    HA646825   1.858   0.374   5.828 -0.6363  1.6339  2.4119
 1874THY      O46826   9.585   1.221   7.671 -0.6037  0.0680  0.4212
 1874THY     HO46827   9.651   1.173   7.724  0.3104 -1.2665 -1.8031
 1874THY    CA146828   9.639   1.277   7.565  0.2863 -0.4413  0.4991
 1874THY    CA246829   9.569   1.308   7.448  0.0648  0.4022  0.2073
 1874THY    CP146830   9.419   1.273   7.446  0.2035 -0.2565  0.0115
 1874THY    HP146831   9.404   1.177   7.496  2.9566 -0.4049  0.6940
 1874THY    CP246832   9.331   1.371   7.525 -0.1259  0.1024  0.5212
 1874THY    HP246833   9.224   1.365   7.505 -1.1263  0.9044  4.6432
 1874THY    HP346834   9.338   1.333   7.628 -1.8502  0.9435  0.9729
 1874THY    HP446835   9.363   1.475   7.518  0.8580 -0.1539  0.9211
 1874THY    CP346836   9.368   1.265   7.298 -0.4686 -0.7283 -0.2232
 1874THY    HP546837   9.357   1.370   7.269  3.3609 -0.2579 -0.4673
 1874THY    HP646838   9.440   1.207   7.239 -0.0459 -1.0506  0.5922
 1874THY    HP746839   9.271   1.215   7.289 -1.2599  0.6352  0.3491
 1874THY    CA346840   9.643   1.364   7.338 -0.2558 -0.1166  0.3053
 1874THY    HA346841   9.590   1.394   7.248 -2.6067  0.9920  1.9460
 1874THY    CA446842   9.783   1.371   7.336  0.2090  0.1052  0.3918
 1874THY    HA446843   9.832   1.409   7.247 -0.4713  1.0396  0.4061
 1874THY    CA546844   9.850   1.347   7.458 -0.1804 -0.4646 -1.2326
 1874THY    CM146845   9.994   1.379   7.467  0.0456 -0.1283  0.9073
 1874THY    HM146846  10.052   1.295   7.508  2.5666  0.9358 -0.2366
 1874THY    HM246847  10.040   1.407   7.372 -0.1457  1.4327  1.2442
 1874THY    HM346848  10.015   1.458   7.540 -1.5737  0.2096  1.0228
 1874THY    CA646849   9.775   1.305   7.573 -0.4999 -0.4660 -0.1002
 1874THY    HA646850   9.815   1.296   7.674 -0.6142  1.1474  0.1154
 1875THY      O46851   5.224   2.482   4.763 -0.5290 -0.3541 -0.5684
 1875THY     HO46852   5.140   2.473   4.811  0.7408  0.8428  2.0878
 1875THY    CA146853   5.315   2.431   4.845  0.8875  0.4645  0.0070
 1875THY    CA246854   5.447   2.424   4.811 -0.0611 -0.0484  0.0115
 1875THY    CP146855   5.484   2.452   4.664  0.8778  0.1020 -0.2170
 1875THY    HP146856   5.411   2.513   4.611 -0.8227 -0.8990  0.8691
 1875THY    CP246857   5.614   2.532   4.653 -1.0924  0.8201 -0.2995
 1875THY    HP246858   5.582   2.626   4.699 -0.6244  1.8214 -1.9201
 1875THY    HP346859   5.695   2.473   4.697 -1.5897 -0.4606 -1.0261
 1875THY    HP446860   5.642   2.554   4.549 -0.5710  0.0817 -0.3248
 1875THY    CP346861   5.488   2.331   4.577 -0.6474  0.0468  0.0865
 1875THY    HP546862   5.498   2.355   4.470 -2.9880 -1.6347 -0.5959
 1875THY    HP646863   5.556   2.255   4.618 -2.7474 -1.1063  1.5838
 1875THY    HP746864   5.387   2.292   4.560  0.4070 -2.4483 -0.9916
 1875THY    CA346865   5.536   2.375   4.902 -0.8065  0.5688 -0.3325
 1875THY    HA346866   5.640   2.359   4.878 -0.6714  2.4717 -1.1049
 1875THY    CA446867   5.506   2.344   5.033 -0.0519 -0.5340  0.0750
 1875THY    HA446868   5.589   2.312   5.096 -0.6238 -1.8796  0.1850
 1875THY    CA546869   5.377   2.367   5.070  0.6871  0.1257 -0.4468
 1875THY    CM146870   5.332   2.350   5.210  1.1608  0.2936  0.1253
 1875THY    HM146871   5.256   2.271   5.214  0.4522  1.0173  3.1482
 1875THY    HM246872   5.409   2.310   5.276 -1.2774 -1.8007  1.8881
 1875THY    HM346873   5.288   2.441   5.252  2.8249  2.6828 -2.9153
 1875THY    CA646874   5.276   2.392   4.975 -0.2793 -0.5882 -0.1190
 1875THY    HA646875   5.175   2.406   5.014  0.3073 -0.8721  1.5914
 1876THY      O46876   6.963   0.007   2.246 -0.5722  0.7824 -0.0958
 1876THY     HO46877   6.962   0.027   2.150 -0.5383 -0.4673 -0.3761
 1876THY    CA146878   6.967   0.120   2.314 -0.5497  0.1393 -1.0228
 1876THY    CA246879   6.923   0.129   2.448 -0.3958 -0.0753 -0.5441
 1876THY    CP146880   6.880  -0.004   2.522 -0.2707  0.3106  0.2991
 1876THY    HP146881   6.919  -0.097   2.478 -0.5643  0.1342  0.4068
 1876THY    CP246882   6.950  -0.008   2.661  0.6505 -0.5743  0.0663
 1876THY    HP246883   6.935  -0.104   2.712  1.3608 -0.8686 -0.2670
 1876THY    HP346884   7.053   0.029   2.656  0.5550 -0.0362  1.6057
 1876THY    HP446885   6.908   0.068   2.728  1.6451 -0.2976  0.3936
 1876THY    CP346886   6.725  -0.006   2.540 -0.3334  0.4968  0.3228
 1876THY    HP546887   6.682  -0.092   2.593 -2.2549  0.2787 -1.4630
 1876THY    HP646888   6.684   0.084   2.588  0.0226  1.8369 -1.7627
 1876THY    HP746889   6.685  -0.011   2.438  2.2396 -2.3978 -0.6914
 1876THY    CA346890   6.920   0.251   2.515  0.4093 -0.3777 -0.0346
 1876THY    HA346891   6.872   0.274   2.610  1.8037  2.1193  0.1702
 1876THY    CA446892   6.966   0.367   2.444  0.1390  0.0452  0.0286
 1876THY    HA446893   6.978   0.459   2.501 -2.5600 -1.7502  3.9965
 1876THY    CA546894   7.004   0.361   2.311 -0.3110  0.6746 -0.0853
 1876THY    CM146895   7.047   0.486   2.241  0.3492 -0.5452  0.0374
 1876THY    HM146896   7.012   0.481   2.137  1.3318 -0.3751 -0.3175
 1876THY    HM246897   7.012   0.578   2.288  1.4807 -0.6913  1.2205
 1876THY    HM346898   7.156   0.477   2.243  0.6853  2.5928 -0.3123
 1876THY    CA646899   6.994   0.243   2.241 -0.0329  0.1766  1.0356
 1876THY    HA646900   7.024   0.235   2.137  1.0330  1.0705  1.2486
 1877THY      O46901   0.306   6.773   2.156  0.2856  0.5583  0.6913
 1877THY     HO46902   0.375   6.707   2.138 -1.3304 -0.6955 -1.4264
 1877THY    CA146903   0.199   6.729   2.086  0.1943  0.1233 -0.4516
 1877THY    CA246904   0.082   6.801   2.097 -0.3815  0.1595  0.5578
 1877THY    CP146905   0.090   6.937   2.171 -0.3164  0.4736 -0.7498
 1877THY    HP146906   0.186   6.991   2.174  0.0497 -0.1640 -0.7355
 1877THY    CP246907   0.010   7.034   2.087  0.0265  0.3674 -0.3674
 1877THY    HP246908   0.052   7.023   1.987  2.6536 -2.4327  0.8605
 1877THY    HP346909  -0.097   7.013   2.095  0.4027 -1.7229 -0.0598
 1877THY    HP446910   0.033   7.135   2.123 -3.9677  0.9084  1.1189
 1877THY    CP346911   0.050   6.926   2.318  0.3209  0.5167 -0.4837
 1877THY    HP546912   0.070   7.023   2.364  0.3736  0.7568 -1.0025
 1877THY    HP646913  -0.056   6.899   2.330  0.6523 -0.5297  0.3256
 1877THY    HP746914   0.105   6.847   2.370 -0.3643  0.6412  0.4410
 1877THY    CA346915  -0.035   6.749   2.037 -0.4706 -0.0173 -0.2315
 1877THY    HA346916  -0.128   6.805   2.033 -1.8004 -2.1067 -0.1802
 1877THY    CA446917  -0.033   6.620   1.990 -0.6949  0.6503 -0.1684
 1877THY    HA446918  -0.119   6.570   1.946 -0.6538 -1.0841  1.5524
 1877THY    CA546919   0.091   6.551   1.980  0.5805  0.3712 -0.4721
 1877THY    CM146920   0.094   6.422   1.912 -0.1878 -0.4656 -0.0500
 1877THY    HM146921   0.007   6.403   1.848  0.8388 -0.6810 -1.4342
 1877THY    HM246922   0.188   6.409   1.857  0.5986 -0.1720  1.1998
 1877THY    HM346923   0.107   6.344   1.987  1.6529 -1.0778 -0.9394
 1877THY    CA646924   0.202   6.599   2.039 -0.7696 -0.1122  0.0483
 1877THY    HA646925   0.294   6.542   2.044 -0.6046  0.1716  0.3457
 1878THY      O46926   9.190   1.848   7.623 -0.0451  0.3364 -0.3782
 1878THY     HO46927   9.239   1.913   7.570  0.7034  0.7812  0.8308
 1878THY    CA146928   9.071   1.901   7.664 -0.1961 -0.4015 -0.7271
 1878THY    CA246929   8.982   1.839   7.750  0.3773  0.4808  0.0929
 1878THY    CP146930   9.014   1.696   7.789  0.8445  0.2295 -0.2407
 1878THY    HP146931   9.120   1.672   7.770  0.7261 -1.0956  0.6628
 1878THY    CP246932   9.000   1.683   7.936  0.3597 -0.2071  0.2967
 1878THY    HP246933   8.901   1.713   7.974 -0.0448 -0.6151 -0.4179
 1878THY    HP346934   9.022   1.584   7.978  0.0491  0.4881  2.2121
 1878THY    HP446935   9.074   1.755   7.974 -0.3072  1.2173 -0.9879
 1878THY    CP346936   8.922   1.582   7.724 -0.0500 -0.2212 -0.4465
 1878THY    HP546937   8.817   1.603   7.747 -0.6805 -2.4307 -1.0458
 1878THY    HP646938   8.929   1.578   7.615 -2.1873  1.0491 -0.7000
 1878THY    HP746939   8.940   1.482   7.765  1.5546  0.3174  0.2182
 1878THY    CA346940   8.867   1.905   7.790  0.2555  0.4122  1.0607
 1878THY    HA346941   8.788   1.853   7.845 -1.0403  1.5223  0.3057
 1878THY    CA446942   8.837   2.036   7.747  0.5724  0.4938  0.3071
 1878THY    HA446943   8.740   2.081   7.767  0.1039  0.7111 -2.1058
 1878THY    CA546944   8.927   2.091   7.656 -0.7327 -0.4480  0.6264
 1878THY    CM146945   8.906   2.227   7.600 -0.1692  0.2218  0.5113
 1878THY    HM146946   8.985   2.302   7.613  0.8591 -0.5625 -0.9686
 1878THY    HM246947   8.891   2.222   7.492  0.7944  1.8658  0.2615
 1878THY    HM346948   8.813   2.269   7.640 -0.5565 -0.1389 -0.0037
 1878THY    CA646949   9.048   2.031   7.617 -0.4344 -0.0406 -0.7354
 1878THY    HA646950   9.120   2.079   7.551  2.0141 -2.0089  0.3205
 1879THY      O46951   2.807   8.465   5.411 -0.2275  0.5938  0.4131
 1879THY     HO46952   2.782   8.557   5.395 -4.6298 -0.2815  0.9690
 1879THY    CA146953   2.755   8.433   5.530  0.7934  0.2644  0.4189
 1879THY    CA246954   2.790   8.313   5.592  0.5242 -1.1324 -0.4550
 1879THY    CP146955   2.901   8.229   5.526 -0.1367  0.0743  0.6096
 1879THY    HP146956   2.950   8.271   5.438  1.9440  0.7618  2.0094
 1879THY    CP246957   3.016   8.190   5.621  0.3831 -0.0493 -0.4037
 1879THY    HP246958   3.064   8.283   5.653  0.5137 -0.2155 -0.1240
 1879THY    HP346959   2.970   8.142   5.708 -3.6840  0.6361 -1.9358
 1879THY    HP446960   3.095   8.124   5.582  1.7383  0.0547  2.0117
 1879THY    CP346961   2.829   8.097   5.480  0.6228 -0.5228 -0.6076
 1879THY    HP546962   2.765   8.053   5.557  0.8965  0.9596  0.5186
 1879THY    HP646963   2.762   8.122   5.397 -0.3675  2.6353  0.9682
 1879THY    HP746964   2.904   8.026   5.444  2.0430  1.6514 -2.1871
 1879THY    CA346965   2.719   8.278   5.709  0.2707  0.3751 -0.1600
 1879THY    HA346966   2.739   8.187   5.766 -2.0659  1.0601  1.9403
 1879THY    CA446967   2.616   8.354   5.761 -0.2744  0.1530 -0.0481
 1879THY    HA446968   2.562   8.338   5.854 -0.0195  1.7600  0.4096
 1879THY    CA546969   2.580   8.476   5.696 -0.6268  0.1855 -0.0972
 1879THY    CM146970   2.467   8.562   5.748 -0.2638  0.3710  0.4197
 1879THY    HM146971   2.423   8.624   5.669  0.1373 -0.2433 -0.3011
 1879THY    HM246972   2.386   8.494   5.776  0.1913 -0.8671 -1.1380
 1879THY    HM346973   2.481   8.622   5.839 -1.4579 -0.3981  1.1353
 1879THY    CA646974   2.649   8.512   5.580  0.1282  0.1280  0.1135
 1879THY    HA646975   2.628   8.605   5.528  0.7801 -1.2719 -2.8004
 1880THY      O46976   3.453   1.403   6.279 -0.2508  0.7452  0.3110
 1880THY     HO46977   3.383   1.467   6.299 -1.4612 -0.2669 -0.5757
 1880THY    CA146978   3.458   1.411   6.142  0.6372 -0.4059 -0.6840
 1880THY    CA246979   3.554   1.343   6.079  0.4106 -0.6237  0.1542
 1880THY    CP146980   3.657   1.253   6.152  0.0813 -0.0582  0.3822
 1880THY    HP146981   3.620   1.233   6.253  0.4602  0.3840  0.6127
 1880THY    CP246982   3.688   1.124   6.070  0.1843 -0.0355 -0.3236
 1880THY    HP246983   3.593   1.074   6.047 -0.1809 -0.1168  1.2838
 1880THY    HP346984   3.745   1.134   5.977 -0.9389 -0.7873 -1.1175
 1880THY    HP446985   3.748   1.057   6.133 -0.4522 -0.9950 -0.7093
 1880THY    CP346986   3.785   1.325   6.167  0.5884 -0.0900  0.2566
 1880THY    HP546987   3.820   1.353   6.066 -0.0758 -0.1012  0.0144
 1880THY    HP646988   3.776   1.427   6.206  1.2905  0.4854 -1.0222
 1880THY    HP746989   3.865   1.266   6.211  0.0829  0.0605  1.4009
 1880THY    CA346990   3.571   1.350   5.938  0.2963 -0.2157  0.2982
 1880THY    HA346991   3.652   1.298   5.888 -0.0864 -0.2896 -0.2592
 1880THY    CA446992   3.461   1.417   5.868  0.6606  0.3847 -0.2192
 1880THY    HA446993   3.469   1.437   5.761  2.0400 -0.4194 -0.2884
 1880THY    CA546994   3.356   1.484   5.934  0.4497 -0.7796 -0.6145
 1880THY    CM146995   3.259   1.573   5.854 -0.3567  0.0031 -0.2594
 1880THY    HM146996   3.280   1.677   5.883 -0.2178 -0.3390  0.9597
 1880THY    HM246997   3.283   1.573   5.747 -0.3564  0.9804 -0.2687
 1880THY    HM346998   3.156   1.544   5.878 -0.9964  1.1542 -1.4570
 1880THY    CA646999   3.356   1.483   6.079 -0.1556  0.3950  0.1826
 1880THY    HA647000   3.288   1.550   6.132  0.8395  0.7745  1.0075
 1881THY      O47001   9.761   0.116   4.428 -0.5310  0.6414 -0.6727
 1881THY     HO47002   9.744   0.138   4.521  1.1100 -0.7614  0.0216
 1881THY    CA147003   9.825   0.221   4.372  0.0358  0.1132 -1.0376
 1881THY    CA247004   9.834   0.239   4.234 -0.3801 -0.4328  0.7013
 1881THY    CP147005   9.771   0.149   4.129  0.1885 -0.2442  0.2371
 1881THY    HP147006   9.703   0.083   4.185  1.1418  0.0161  1.7692
 1881THY    CP247007   9.683   0.225   4.021 -0.4857  0.2586  0.0253
 1881THY    HP247008   9.742   0.249   3.932  2.5876 -1.3814  1.4521
 1881THY    HP347009   9.599   0.163   3.986 -1.0124  1.1585 -0.3417
 1881THY    HP447010   9.638   0.315   4.063 -1.9676 -0.8050  0.8259
 1881THY    CP347011   9.877   0.059   4.058  0.0789 -0.1366 -0.2131
 1881THY    HP547012   9.826  -0.000   3.982 -0.0012  2.6982 -2.5527
 1881THY    HP647013   9.953   0.128   4.019 -0.0251  0.2157  0.2035
 1881THY    HP747014   9.924  -0.009   4.130  0.9680  0.3900 -0.2705
 1881THY    CA347015   9.907   0.350   4.187 -0.2287  0.5455 -0.2373
 1881THY    HA347016   9.930   0.363   4.082  1.1396 -0.0278 -0.0328
 1881THY    CA447017   9.964   0.444   4.277 -0.1420 -0.5735  0.3221
 1881THY    HA447018  10.022   0.525   4.235  0.5103 -1.0259  0.3232
 1881THY    CA547019   9.942   0.436   4.414 -0.0118 -0.4474  0.6259
 1881THY    CM147020  10.015   0.520   4.515  0.2975  0.0937 -0.1078
 1881THY    HM147021   9.985   0.625   4.510  3.7610  1.2031 -0.1258
 1881THY    HM247022   9.987   0.483   4.614 -2.2583 -0.7839 -1.0615
 1881THY    HM347023  10.122   0.513   4.492  0.1286  1.9142 -1.7775
 1881THY    CA647024   9.874   0.322   4.457 -0.9342  0.1733 -0.1450
 1881THY    HA647025   9.849   0.314   4.562 -1.3135 -1.0707 -0.3125
 1882THY      O47026   2.237   4.455   0.220 -0.0831 -0.2244 -0.1841
 1882THY     HO47027   2.276   4.533   0.262 -0.2740  0.0648 -0.5403
 1882THY    CA147028   2.281   4.466   0.093 -0.2588  0.0695  0.6975
 1882THY    CA247029   2.312   4.354   0.015  0.8324 -0.2171 -0.3215
 1882THY    CP147030   2.283   4.214   0.072 -0.4879 -0.1764  0.0959
 1882THY    HP147031   2.281   4.220   0.182  0.7192 -0.2472  0.1410
 1882THY    CP247032   2.151   4.165   0.021  0.5790  0.5381 -0.1846
 1882THY    HP247033   2.116   4.065   0.049  0.1220  1.1811  1.6869
 1882THY    HP347034   2.074   4.235   0.057  1.2148  0.1382  2.0853
 1882THY    HP447035   2.149   4.162  -0.089  1.3376 -0.2622 -0.1840
 1882THY    CP347036   2.395   4.112   0.042  0.9071 -0.5551  0.9471
 1882THY    HP547037   2.413   4.086  -0.063  1.2417  2.9007  0.0166
 1882THY    HP647038   2.491   4.151   0.079  1.7615 -0.7400 -0.9516
 1882THY    HP747039   2.383   4.015   0.092  0.5776 -1.7506 -1.3333
 1882THY    CA347040   2.378   4.380  -0.109 -0.5087  0.4224 -0.1984
 1882THY    HA347041   2.408   4.293  -0.166  1.4813 -0.1212  1.5491
 1882THY    CA447042   2.429   4.507  -0.141 -0.1261  0.2228  0.0232
 1882THY    HA447043   2.480   4.515  -0.237  0.4617  3.6801  0.4837
 1882THY    CA547044   2.397   4.621  -0.064  0.1568 -0.5995 -0.2143
 1882THY    CM147045   2.423   4.762  -0.097  0.2114  0.3594 -0.1226
 1882THY    HM147046   2.520   4.798  -0.059  1.8569 -2.3134 -1.4979
 1882THY    HM247047   2.414   4.765  -0.206 -0.1272  1.2982 -0.0743
 1882THY    HM347048   2.338   4.826  -0.073  0.7458  1.1490 -0.2801
 1882THY    CA647049   2.320   4.594   0.050 -0.4891 -0.4651  0.3304
 1882THY    HA647050   2.297   4.678   0.114  1.1227 -2.2511  3.5194
 1883THY      O47051   0.474   4.846   8.372  0.2457 -0.5159 -0.0870
 1883THY     HO47052   0.445   4.923   8.321 -0.6702 -0.1150  0.9875
 1883THY    CA147053   0.411   4.852   8.491  0.3977  0.6235  0.2513
 1883THY    CA247054   0.369   4.737   8.560  0.0408  0.3294 -0.5906
 1883THY    CP147055   0.396   4.600   8.500  0.4612  0.0075  0.0848
 1883THY    HP147056   0.458   4.608   8.410  2.0711 -0.4624  1.1060
 1883THY    CP247057   0.470   4.518   8.603  0.4107 -0.1296 -0.2700
 1883THY    HP247058   0.400   4.464   8.668 -0.1388 -0.2841 -0.9687
 1883THY    HP347059   0.542   4.450   8.556  3.1270  1.7487  0.9430
 1883THY    HP447060   0.528   4.580   8.671 -0.2181  2.6455 -2.1045
 1883THY    CP347061   0.260   4.534   8.467 -0.1068  0.5816 -0.2391
 1883THY    HP547062   0.282   4.441   8.412  1.4045 -0.4067  1.8611
 1883THY    HP647063   0.200   4.499   8.552 -0.8584  2.4580  0.0341
 1883THY    HP747064   0.204   4.607   8.408 -2.1972  0.1658  1.1416
 1883THY    CA347065   0.303   4.750   8.689 -0.1829  0.2338 -0.0141
 1883THY    HA347066   0.274   4.656   8.733 -2.1888  0.3967 -0.8702
 1883THY    CA447067   0.278   4.871   8.745 -0.5718 -0.5190 -0.1782
 1883THY    HA447068   0.225   4.879   8.840 -2.6474 -1.2918 -1.2284
 1883THY    CA547069   0.325   4.985   8.674  0.0597  0.1436 -0.2808
 1883THY    CM147070   0.308   5.117   8.738 -0.5901  0.4105 -0.3046
 1883THY    HM147071   0.352   5.198   8.680 -0.4114  1.4297  1.2086
 1883THY    HM247072   0.203   5.147   8.727 -0.8078  0.5573  1.7727
 1883THY    HM347073   0.331   5.121   8.845  0.1308 -1.1229 -0.3641
 1883THY    CA647074   0.376   4.973   8.542  0.3594  0.0015  0.2604
 1883THY    HA647075   0.414   5.061   8.492  0.5776  0.1104  0.6098
 1884THY      O47076   8.157   2.340   3.302 -0.1953 -0.1220 -0.2191
 1884THY     HO47077   8.186   2.297   3.385  0.9763  0.4734 -0.3165
 1884THY    CA147078   8.180   2.251   3.210  0.6620  0.2523 -0.1668
 1884THY    CA247079   8.116   2.258   3.077  0.5577  0.4529  0.0956
 1884THY    CP147080   8.025   2.372   3.042  0.1028  0.1762  0.2954
 1884THY    HP147081   8.019   2.435   3.132 -1.6213  0.8000 -0.2119
 1884THY    CP247082   8.089   2.447   2.924  0.3213 -0.0858  0.0545
 1884THY    HP247083   8.064   2.400   2.828 -0.0740 -2.5039  1.2699
 1884THY    HP347084   8.040   2.545   2.917 -0.4309 -0.4297  0.3355
 1884THY    HP447085   8.197   2.453   2.937  0.1994 -0.7329  1.5632
 1884THY    CP347086   7.877   2.326   3.007 -0.0706  0.1188 -0.3488
 1884THY    HP547087   7.872   2.322   2.898 -1.7060  2.2114 -0.4238
 1884THY    HP647088   7.847   2.228   3.045 -0.7119 -0.0778 -1.3288
 1884THY    HP747089   7.807   2.397   3.052  0.8330  0.8666 -0.0892
 1884THY    CA347090   8.131   2.149   2.987  0.0253 -0.8998 -0.3733
 1884THY    HA347091   8.082   2.137   2.891  2.1000 -3.8375 -1.1925
 1884THY    CA447092   8.214   2.046   3.020  0.0822 -0.4946 -0.1347
 1884THY    HA447093   8.236   1.962   2.956  0.7860  0.5445 -1.3046
 1884THY    CA547094   8.276   2.043   3.151  0.7394 -0.0790  0.2107
 1884THY    CM147095   8.359   1.920   3.190  1.0598  0.2627 -0.8583
 1884THY    HM147096   8.447   1.939   3.253  1.1113  0.3733 -0.9659
 1884THY    HM247097   8.295   1.851   3.247  1.5073  1.5415  1.3044
 1884THY    HM347098   8.397   1.871   3.100  0.9497 -0.2649 -0.6257
 1884THY    CA647099   8.251   2.140   3.246 -0.8465  0.5744 -0.3151
 1884THY    HA647100   8.295   2.135   3.345  0.1918  1.2582 -0.7231
 1885THY      O47101   4.340   8.477   0.664  0.1858  0.1744 -0.0497
 1885THY     HO47102   4.436   8.480   0.648 -0.3201  1.2078 -3.8013
 1885THY    CA147103   4.305   8.604   0.633 -0.1812 -0.3706  0.4178
 1885THY    CA247104   4.201   8.678   0.710  0.5234  0.2048 -0.0685
 1885THY    CP147105   4.142   8.635   0.843  1.0187  0.3765  0.2237
 1885THY    HP147106   4.178   8.536   0.871 -0.4224  0.0705  1.1276
 1885THY    CP247107   4.196   8.718   0.958  0.3082 -0.8750 -0.7163
 1885THY    HP247108   4.165   8.683   1.057  0.5250 -2.9158 -1.3251
 1885THY    HP347109   4.304   8.738   0.966 -0.2662  2.4724  0.2085
 1885THY    HP447110   4.152   8.818   0.958  0.2851 -0.8708 -2.2023
 1885THY    CP347111   3.986   8.616   0.846 -0.4436 -0.4252  0.2567
 1885THY    HP547112   3.955   8.584   0.946 -0.4532 -0.9131  0.1024
 1885THY    HP647113   3.929   8.707   0.823 -0.9854  0.0713  3.1747
 1885THY    HP747114   3.955   8.539   0.774  0.5081 -0.0482 -0.5727
 1885THY    CA347115   4.178   8.806   0.666 -0.3567 -0.3709  0.6139
 1885THY    HA347116   4.122   8.876   0.728 -1.3278 -1.3376  0.8657
 1885THY    CA447117   4.231   8.859   0.554  0.1664  0.0632 -0.0264
 1885THY    HA447118   4.194   8.952   0.511 -2.5037 -0.8460  0.1544
 1885THY    CA547119   4.320   8.796   0.479 -0.0426  0.2634 -0.1062
 1885THY    CM147120   4.384   8.862   0.353 -0.0593 -0.7570 -0.0213
 1885THY    HM147121   4.354   8.967   0.339 -2.2346 -1.1116  1.3724
 1885THY    HM247122   4.492   8.855   0.369 -0.3652 -1.1388  2.1377
 1885THY    HM347123   4.352   8.817   0.258  2.3892  0.2794 -1.4139
 1885THY    CA647124   4.367   8.675   0.522  0.1808 -0.4184  0.3271
 1885THY    HA647125   4.445   8.620   0.469 -0.0073 -0.8617  0.5060
 1886THY      O47126   7.727   0.939   9.923  0.1297  0.3826 -0.2292
 1886THY     HO47127   7.787   1.015   9.918  1.9036 -0.8536  1.0856
 1886THY    CA147128   7.689   0.917  10.051 -0.1464 -0.4086 -0.0217
 1886THY    CA247129   7.670   0.797  10.112  0.0539  0.1345  0.2550
 1886THY    CP147130   7.688   0.664  10.035  0.0525  0.3074  0.7145
 1886THY    HP147131   7.746   0.677   9.943 -2.1745  0.2424 -0.7596
 1886THY    CP247132   7.768   0.562  10.118 -0.2325  0.2527  0.0866
 1886THY    HP247133   7.873   0.591  10.108 -0.3560  0.1297 -1.9694
 1886THY    HP347134   7.726   0.542  10.217 -0.3073  1.9279  0.4189
 1886THY    HP447135   7.773   0.460  10.079  0.5088  0.5749 -0.6971
 1886THY    CP347136   7.553   0.603   9.992 -0.7437 -0.2960  0.7289
 1886THY    HP547137   7.506   0.663   9.914  1.0310  3.5010  2.3548
 1886THY    HP647138   7.554   0.497   9.965 -1.7218  0.0272 -0.6767
 1886THY    HP747139   7.484   0.606  10.078  0.1043  2.4586  1.3988
 1886THY    CA347140   7.625   0.796  10.250 -0.0819  0.1630  0.2387
 1886THY    HA347141   7.603   0.697  10.290  1.3761 -1.3154 -2.3480
 1886THY    CA447142   7.597   0.916  10.325 -0.4883 -0.2209  0.2190
 1886THY    HA447143   7.558   0.913  10.426  0.8843  0.9813  0.8211
 1886THY    CA547144   7.622   1.037  10.259 -0.0622  0.0518  0.0253
 1886THY    CM147145   7.583   1.171  10.312  0.2184 -0.5027  0.3336
 1886THY    HM147146   7.560   1.246  10.235 -0.4092 -1.7518 -0.7254
 1886THY    HM247147   7.493   1.159  10.374  1.9477 -0.8475  2.9765
 1886THY    HM347148   7.660   1.216  10.377 -0.4657  1.1527  0.0306
 1886THY    CA647149   7.670   1.032  10.126 -0.4667 -0.2435  0.0108
 1886THY    HA647150   7.675   1.127  10.073 -0.4543 -0.2642 -0.0254
 1887THY      O47151   7.028   2.453   2.969 -0.3295 -0.5871  0.0237
 1887THY     HO47152   7.000   2.530   3.020  0.6577  1.1202 -1.8810
 1887THY    CA147153   7.035   2.353   3.063  0.2889 -0.3404 -0.5177
 1887THY    CA247154   7.043   2.219   3.028  0.0646 -0.2262  0.2454
 1887THY    CP147155   7.038   2.171   2.883 -0.4238 -0.7136 -0.0873
 1887THY    HP147156   7.014   2.257   2.819 -0.4206  0.3444  1.2887
 1887THY    CP247157   7.175   2.121   2.836  0.9026  0.3601 -0.6338
 1887THY    HP247158   7.260   2.168   2.886  0.6898  1.4030 -1.2075
 1887THY    HP347159   7.178   2.012   2.843 -0.7534  0.2710 -0.8632
 1887THY    HP447160   7.182   2.161   2.734  2.0971  2.3136  0.1563
 1887THY    CP347161   6.932   2.075   2.841  0.6737 -0.8430  0.2000
 1887THY    HP547162   6.954   2.031   2.743  0.1008 -1.7837  0.4830
 1887THY    HP647163   6.916   2.000   2.919  1.3058  0.2771  1.4357
 1887THY    HP747164   6.844   2.138   2.823  1.3890  0.0880 -0.1288
 1887THY    CA347165   7.063   2.127   3.130 -0.1402 -0.5211  0.0839
 1887THY    HA347166   7.072   2.022   3.102  1.0926 -0.4514  0.1839
 1887THY    CA447167   7.080   2.171   3.263 -0.3964  0.1076 -0.7883
 1887THY    HA447168   7.113   2.100   3.338  0.4991  1.4136  0.0977
 1887THY    CA547169   7.085   2.306   3.293 -0.2668  0.6667 -0.2787
 1887THY    CM147170   7.108   2.349   3.437 -0.2057 -0.1557  0.1095
 1887THY    HM147171   7.131   2.264   3.503 -3.6047 -2.1588 -1.0455
 1887THY    HM247172   7.183   2.428   3.454 -0.6340  0.6816 -1.6387
 1887THY    HM347173   7.008   2.383   3.465 -0.0023  3.3857 -2.7968
 1887THY    CA647174   7.058   2.397   3.189 -0.7924 -0.6066 -0.1291
 1887THY    HA647175   7.041   2.502   3.207 -0.3641 -0.8247  1.7305
 1888THY      O47176   4.392   9.320   1.079  0.4720  0.3462 -0.4452
 1888THY     HO47177   4.435   9.297   1.163 -2.0423 -0.4032  0.7182
 1888THY    CA147178   4.417   9.218   0.993 -0.0768 -0.4870  0.0469
 1888THY    CA247179   4.328   9.192   0.895  0.0806  0.2807  0.1409
 1888THY    CP147180   4.196   9.279   0.871 -0.0377  0.2144 -0.3907
 1888THY    HP147181   4.189   9.366   0.937  2.6568  0.3936 -0.2166
 1888THY    CP247182   4.197   9.341   0.737 -0.1440 -0.5336  0.0580
 1888THY    HP247183   4.224   9.271   0.657 -0.7384 -1.4561  0.6505
 1888THY    HP347184   4.099   9.380   0.708 -0.1570 -0.4400  0.2316
 1888THY    HP447185   4.272   9.421   0.729 -0.3608 -0.2171  1.0724
 1888THY    CP347186   4.076   9.191   0.889  0.2161  0.1623  0.3043
 1888THY    HP547187   4.088   9.103   0.824  1.7337  1.1804 -0.8570
 1888THY    HP647188   4.066   9.160   0.994 -2.0314 -0.5268 -0.0604
 1888THY    HP747189   3.980   9.240   0.871 -0.9652 -1.4649  1.8630
 1888THY    CA347190   4.353   9.079   0.821  0.4763 -0.1180  0.4136
 1888THY    HA347191   4.295   9.051   0.734  2.1983 -0.4382 -0.6758
 1888THY    CA447192   4.452   8.985   0.854  0.6397 -0.0369  0.0150
 1888THY    HA447193   4.448   8.893   0.796 -2.3679  0.3665 -0.5768
 1888THY    CA547194   4.539   9.011   0.954  0.3008 -0.0028 -0.6042
 1888THY    CM147195   4.629   8.905   0.999  0.5638 -0.2372  0.3366
 1888THY    HM147196   4.731   8.923   0.966  0.5754 -0.3812  0.2938
 1888THY    HM247197   4.623   8.901   1.109 -0.8178 -0.2890  0.2782
 1888THY    HM347198   4.601   8.807   0.960  0.3283  0.4334 -1.2482
 1888THY    CA647199   4.517   9.129   1.035 -0.2468  0.7372 -0.1182
 1888THY    HA647200   4.587   9.151   1.116  2.4529 -2.2442 -1.3949
 1889THY      O47201   6.607   6.657   5.612 -0.7416  0.1932  0.7584
 1889THY     HO47202   6.690   6.706   5.603  1.5345 -3.4163 -0.2062
 1889THY    CA147203   6.543   6.696   5.727  0.8565 -0.1110 -0.1858
 1889THY    CA247204   6.425   6.635   5.765 -0.0854  0.1767 -0.8760
 1889THY    CP147205   6.359   6.526   5.672 -0.1703 -0.4651 -0.5271
 1889THY    HP147206   6.427   6.485   5.597  1.4376  2.0120 -0.5326
 1889THY    CP247207   6.289   6.399   5.735 -0.0383  0.2567 -0.0172
 1889THY    HP247208   6.352   6.337   5.799 -2.4566 -2.0857  0.2603
 1889THY    HP347209   6.198   6.416   5.794  0.3738 -1.4177  1.1707
 1889THY    HP447210   6.276   6.337   5.647  3.1264 -2.5718  1.2966
 1889THY    CP347211   6.263   6.600   5.571  0.3355  0.2853 -0.0362
 1889THY    HP547212   6.230   6.529   5.494 -2.4800  0.7151  0.6436
 1889THY    HP647213   6.170   6.638   5.615 -0.2405 -0.4616 -0.5880
 1889THY    HP747214   6.318   6.684   5.526 -0.2535  1.1900  0.8796
 1889THY    CA347215   6.368   6.668   5.891 -0.2443 -0.6867 -0.8268
 1889THY    HA347216   6.281   6.612   5.926 -0.8777 -0.6324 -2.2466
 1889THY    CA447217   6.428   6.773   5.970 -0.5116 -0.5342 -0.3261
 1889THY    HA447218   6.383   6.805   6.063  1.2808  0.1735  0.3431
 1889THY    CA547219   6.549   6.828   5.936 -0.6904 -0.2406  1.0617
 1889THY    CM147220   6.626   6.923   6.024  0.1085 -0.4035 -0.4133
 1889THY    HM147221   6.721   6.883   6.062  1.9568  2.6983 -1.3997
 1889THY    HM247222   6.631   7.018   5.968 -0.6135 -0.2975 -0.3102
 1889THY    HM347223   6.575   6.960   6.113  0.7758  0.4745 -0.3785
 1889THY    CA647224   6.605   6.788   5.813  0.2413 -0.5704  0.1502
 1889THY    HA647225   6.699   6.838   5.789 -0.4391  2.2143  2.7657
 1890THY      O47226   1.064   6.474   5.355 -0.0421 -0.5813 -0.4113
 1890THY     HO47227   1.045   6.392   5.403 -1.6437 -0.0499 -0.0849
 1890THY    CA147228   1.192   6.472   5.322 -0.2239  0.2473  0.1018
 1890THY    CA247229   1.261   6.580   5.267  0.3025  0.6466  0.5510
 1890THY    CP147230   1.180   6.705   5.226  0.1508 -0.2747 -0.1810
 1890THY    HP147231   1.124   6.745   5.311  0.3315  1.5008 -0.8503
 1890THY    CP247232   1.264   6.830   5.189  0.2695 -0.6130  0.4192
 1890THY    HP247233   1.304   6.815   5.088 -1.0190 -2.0712  0.1068
 1890THY    HP347234   1.193   6.913   5.195  0.5907  0.0121 -2.7444
 1890THY    HP447235   1.345   6.861   5.257  1.2293 -0.6135 -0.6930
 1890THY    CP347236   1.092   6.681   5.103 -0.1603 -0.0180  0.0535
 1890THY    HP547237   1.151   6.663   5.013  0.5394 -0.0556  0.5165
 1890THY    HP647238   1.024   6.595   5.117 -1.6680  1.3604  1.7507
 1890THY    HP747239   1.035   6.774   5.093  1.3328  0.9033 -0.2186
 1890THY    CA347240   1.401   6.566   5.255 -0.1243  0.3699 -0.3557
 1890THY    HA347241   1.459   6.654   5.226 -0.3241  0.9631  0.9264
 1890THY    CA447242   1.474   6.445   5.283  0.3274  0.3607  0.0937
 1890THY    HA447243   1.580   6.437   5.259  0.3855 -2.9250  0.9901
 1890THY    CA547244   1.396   6.344   5.325  0.1373  0.6136 -0.2942
 1890THY    CM147245   1.456   6.198   5.333  0.2331  0.0466 -0.1516
 1890THY    HM147246   1.450   6.159   5.435  0.2536 -0.0666 -0.1929
 1890THY    HM247247   1.392   6.122   5.286 -0.5715 -1.1819  2.6831
 1890THY    HM347248   1.558   6.189   5.294 -0.4397 -1.0671 -1.7925
 1890THY    CA647249   1.257   6.355   5.341 -0.9627  0.0667 -0.9938
 1890THY    HA647250   1.210   6.258   5.353  1.1307 -0.8867  0.0868
 1891THY      O47251   5.139   9.437   1.175  0.1161 -0.5433  0.8050
 1891THY     HO47252   5.050   9.441   1.215 -0.6437  0.3649 -0.8735
 1891THY    CA147253   5.149   9.566   1.134 -0.1048  0.2178 -0.7255
 1891THY    CA247254   5.233   9.618   1.038 -0.8931 -0.1889 -0.0858
 1891THY    CP147255   5.315   9.527   0.945 -0.6353  0.6856 -0.0503
 1891THY    HP147256   5.261   9.432   0.942 -1.2460  1.0409 -0.6575
 1891THY    CP247257   5.334   9.582   0.800  0.2340  0.4217  0.1084
 1891THY    HP247258   5.246   9.625   0.751  1.4153  1.5393 -1.0871
 1891THY    HP347259   5.417   9.653   0.790  0.8350 -0.2910 -0.0428
 1891THY    HP447260   5.351   9.500   0.730 -0.9393  0.9255 -0.7974
 1891THY    CP347261   5.449   9.496   0.998 -0.1969  1.0123 -0.0590
 1891THY    HP547262   5.496   9.429   0.925 -1.3324 -0.5274  0.5660
 1891THY    HP647263   5.504   9.585   1.030  0.1765  0.1590  1.7904
 1891THY    HP747264   5.447   9.439   1.092  1.9315  0.4626 -0.2866
 1891THY    CA347265   5.241   9.758   1.013 -0.3664 -0.5269 -0.8069
 1891THY    HA347266   5.315   9.796   0.943 -0.7305  0.1675 -0.8246
 1891THY    CA447267   5.154   9.840   1.090 -0.4571  0.2453 -0.4711
 1891THY    HA447268   5.147   9.947   1.073 -0.3970 -0.0691 -2.7217
 1891THY    CA547269   5.068   9.784   1.187 -0.0005 -0.4458 -0.0819
 1891THY    CM147270   4.985   9.877   1.263 -0.5647  0.4849  0.3044
 1891THY    HM147271   4.934   9.822   1.343  0.6046  0.6667  1.2141
 1891THY    HM247272   5.047   9.951   1.315  0.6609 -0.0776 -0.3342
 1891THY    HM347273   4.919   9.925   1.190  0.2435  0.9198 -0.1503
 1891THY    CA647274   5.066   9.652   1.208  0.7489  0.3932  0.5876
 1891THY    HA647275   4.992   9.608   1.274  0.0480 -1.1569 -1.1726
 1892THY      O47276   0.826   6.826   9.089 -0.4299 -0.7607 -0.0356
 1892THY     HO47277   0.733   6.855   9.080  0.2580  1.9650  0.6455
 1892THY    CA147278   0.893   6.925   9.152  0.3409  0.3671  0.3843
 1892THY    CA247279   1.019   6.968   9.105  0.5525  0.1809  0.2750
 1892THY    CP147280   1.085   6.918   8.975  0.0806 -0.6082 -0.1796
 1892THY    HP147281   1.035   6.829   8.934  1.7438 -1.0485 -1.3036
 1892THY    CP247282   1.066   7.010   8.860  0.4620  0.0467  0.1872
 1892THY    HP247283   1.105   6.970   8.766 -0.6429 -0.4083 -0.0978
 1892THY    HP347284   0.960   7.035   8.846  0.3247 -0.9767 -0.7909
 1892THY    HP447285   1.121   7.101   8.886  0.6075 -0.8557  3.3934
 1892THY    CP347286   1.231   6.880   8.996 -0.2616 -0.3550  0.1573
 1892THY    HP547287   1.295   6.965   9.022 -2.1991  1.3576 -0.4653
 1892THY    HP647288   1.247   6.799   9.069  1.1876 -0.5573 -0.3363
 1892THY    HP747289   1.273   6.832   8.906 -0.6052  0.2283 -0.3258
 1892THY    CA347290   1.069   7.079   9.170  0.1014 -0.9334 -0.2572
 1892THY    HA347291   1.162   7.124   9.135  0.2856 -0.1009  1.2182
 1892THY    CA447292   1.017   7.121   9.290  0.3118  0.6988 -0.9833
 1892THY    HA447293   1.063   7.195   9.354 -0.8401  0.2413  0.4362
 1892THY    CA547294   0.897   7.066   9.345  0.2474  0.0042  0.8254
 1892THY    CM147295   0.842   7.097   9.483  0.2488 -0.4836 -0.2785
 1892THY    HM147296   0.922   7.151   9.535  2.2459 -1.8558 -1.7758
 1892THY    HM247297   0.746   7.150   9.473  0.2426 -0.4160  0.1230
 1892THY    HM347298   0.820   7.005   9.538 -2.2622 -0.9965 -1.9503
 1892THY    CA647299   0.833   6.968   9.267  0.1228 -0.2391  0.2733
 1892THY    HA647300   0.742   6.921   9.302 -0.9239  2.6249  1.7032
 1893THY      O47301   2.663   6.834   8.542  0.1661 -0.2089 -0.0975
 1893THY     HO47302   2.651   6.844   8.446 -4.6503  0.3960  0.3523
 1893THY    CA147303   2.781   6.895   8.575  0.2340  0.0369  0.0793
 1893THY    CA247304   2.813   6.913   8.714  0.4744  0.3711 -0.0187
 1893THY    CP147305   2.712   6.870   8.822 -0.3638  0.2650  0.7703
 1893THY    HP147306   2.647   6.790   8.787 -1.8106  1.0310  1.6396
 1893THY    CP247307   2.793   6.822   8.938 -0.5991  0.1816 -0.5988
 1893THY    HP247308   2.729   6.766   9.008 -0.2585  1.3729  0.7111
 1893THY    HP347309   2.870   6.751   8.905  0.4906  1.1620 -0.1838
 1893THY    HP447310   2.851   6.898   8.990 -0.8344  0.2593 -0.4510
 1893THY    CP347311   2.615   6.976   8.874 -0.3801  0.3457 -0.0079
 1893THY    HP547312   2.674   7.037   8.944 -0.5692 -0.1064  0.5461
 1893THY    HP647313   2.574   7.045   8.799  0.0919 -2.8257 -3.4693
 1893THY    HP747314   2.535   6.929   8.931  1.3583 -2.4387  0.3003
 1893THY    CA347315   2.940   6.968   8.744  0.3294  0.4818 -0.6992
 1893THY    HA347316   2.980   6.987   8.844 -1.9229 -0.3720  0.4365
 1893THY    CA447317   3.014   7.031   8.639  0.7055  0.0815  0.5788
 1893THY    HA447318   3.092   7.102   8.666  1.8166 -0.4074 -1.1333
 1893THY    CA547319   2.972   7.015   8.501 -0.0316 -0.2357  0.1552
 1893THY    CM147320   3.057   7.078   8.387 -0.1471  0.1917  0.2781
 1893THY    HM147321   3.002   7.147   8.322 -0.1232 -1.3661 -1.4879
 1893THY    HM247322   3.145   7.133   8.422  0.2606  0.4671 -1.1274
 1893THY    HM347323   3.094   6.993   8.327  0.2008  0.0138  0.7401
 1893THY    CA647324   2.861   6.943   8.469  0.4490 -0.1232 -0.1477
 1893THY    HA647325   2.835   6.924   8.365 -0.1475  1.2637 -0.2767
 1894THY      O47326   7.228   6.088   7.885 -0.2017 -0.1225 -0.3128
 1894THY     HO47327   7.243   6.020   7.817  2.4211 -0.3629  0.4158
 1894THY    CA147328   7.207   6.205   7.820  0.8286  0.2368  0.0908
 1894THY    CA247329   7.273   6.319   7.856 -0.2371 -0.1508  0.0776
 1894THY    CP147330   7.374   6.312   7.969 -0.0805 -0.4687  0.1177
 1894THY    HP147331   7.395   6.211   8.008 -0.8273 -0.2414  1.1350
 1894THY    CP247332   7.511   6.354   7.933 -0.1200  0.2535  0.0364
 1894THY    HP247333   7.591   6.333   8.005  0.5948  0.8286 -0.5736
 1894THY    HP347334   7.542   6.288   7.850  0.4331 -1.3302  1.4533
 1894THY    HP447335   7.521   6.458   7.900  1.0658  0.2554  0.3378
 1894THY    CP347336   7.331   6.390   8.093 -0.5232 -0.0213 -0.1641
 1894THY    HP547337   7.395   6.376   8.181  0.4174 -1.0328 -0.9750
 1894THY    HP647338   7.336   6.494   8.057  0.9606  0.7553  2.0473
 1894THY    HP747339   7.229   6.363   8.122 -0.6571 -3.4664 -3.1242
 1894THY    CA347340   7.272   6.429   7.765  0.6663 -0.1906 -0.2416
 1894THY    HA347341   7.338   6.512   7.788  0.0942  1.2182 -3.2066
 1894THY    CA447342   7.190   6.425   7.646  0.6326  0.4026 -0.5447
 1894THY    HA447343   7.179   6.504   7.573  0.3109 -0.0828 -1.0263
 1894THY    CA547344   7.123   6.305   7.614  0.2058 -0.4285  0.4351
 1894THY    CM147345   7.069   6.288   7.476  0.2226  0.1104 -0.6328
 1894THY    HM147346   7.071   6.188   7.431 -1.4566  0.8040 -2.4124
 1894THY    HM247347   6.969   6.334   7.473 -1.5992 -3.4296  0.2397
 1894THY    HM347348   7.133   6.337   7.401  0.9972 -2.3316 -1.6636
 1894THY    CA647349   7.139   6.193   7.697  0.1393 -0.0599  0.2106
 1894THY    HA647350   7.098   6.099   7.662  0.2300  0.0938 -0.3143
 1895THY      O47351   4.610   6.995   8.663  0.8851 -0.2567 -0.6611
 1895THY     HO47352   4.579   6.958   8.747 -0.9095  1.4991 -0.4871
 1895THY    CA147353   4.567   6.898   8.570  0.0112 -0.7973 -0.3628
 1895THY    CA247354   4.562   6.931   8.430 -0.6220 -0.2353 -0.6867
 1895THY    CP147355   4.628   7.065   8.388  0.2076  0.9725  0.1361
 1895THY    HP147356   4.635   7.131   8.476  1.3207  0.1130  0.7094
 1895THY    CP247357   4.769   7.040   8.345 -0.0338 -0.2970 -0.3008
 1895THY    HP247358   4.769   6.996   8.245  1.8819  0.1483 -0.5331
 1895THY    HP347359   4.824   7.135   8.347 -0.2511 -0.1797  0.5924
 1895THY    HP447360   4.811   6.967   8.414  0.6272 -1.1069 -1.5218
 1895THY    CP347361   4.542   7.138   8.285  0.0583  0.6290  0.0894
 1895THY    HP547362   4.560   7.106   8.182  2.2926 -0.8842  0.8757
 1895THY    HP647363   4.436   7.132   8.312  0.3454 -2.5658  0.9467
 1895THY    HP747364   4.561   7.245   8.301  0.6976  0.5522 -0.1041
 1895THY    CA347365   4.503   6.844   8.339  0.4193 -0.4786  0.0753
 1895THY    HA347366   4.501   6.867   8.233  0.5964 -0.2978  0.1087
 1895THY    CA447367   4.446   6.729   8.391 -0.1354  0.1247 -0.9625
 1895THY    HA447368   4.392   6.668   8.320  1.7816  1.3453 -3.6597
 1895THY    CA547369   4.449   6.693   8.525  0.0618 -0.1232  0.1370
 1895THY    CM147370   4.370   6.569   8.579  0.3456 -0.6574  0.7317
 1895THY    HM147371   4.439   6.512   8.641  1.5121 -1.5124 -1.2528
 1895THY    HM247372   4.289   6.597   8.648 -1.3642 -1.0868 -1.0229
 1895THY    HM347373   4.331   6.515   8.492  0.0437  1.4936 -0.5418
 1895THY    CA647374   4.512   6.781   8.615 -0.1836 -0.3122 -0.5849
 1895THY    HA647375   4.509   6.757   8.721  4.5805  0.9408  0.0532
 1896THY      O47376   2.068   3.374   7.491  1.0867 -0.8177  0.5903
 1896THY     HO47377   2.104   3.427   7.418  2.4780 -0.2626  1.6322
 1896THY    CA147378   2.144   3.267   7.517  0.3529  0.4807  0.0837
 1896THY    CA247379   2.145   3.196   7.637 -0.3386 -0.4212  0.1690
 1896THY    CP147380   2.087   3.260   7.766 -0.1179  0.2144  0.9307
 1896THY    HP147381   2.063   3.366   7.755 -0.8978 -0.0624 -0.2228
 1896THY    CP247382   1.949   3.191   7.797 -0.0345 -0.9257 -1.0166
 1896THY    HP247383   1.904   3.237   7.885 -1.7654 -0.2456 -2.2004
 1896THY    HP347384   1.884   3.206   7.710 -0.5923 -0.0207 -0.4541
 1896THY    HP447385   1.953   3.082   7.811 -1.0058 -0.9114 -0.5438
 1896THY    CP347386   2.180   3.254   7.894 -1.0291  0.1463  0.1067
 1896THY    HP547387   2.140   3.301   7.984 -0.4912 -0.7142  0.8165
 1896THY    HP647388   2.213   3.153   7.923  2.7597  1.3677  0.4897
 1896THY    HP747389   2.272   3.311   7.879  0.1952 -1.3431  1.5795
 1896THY    CA347390   2.221   3.078   7.647  0.1165 -0.0099 -0.1290
 1896THY    HA347391   2.230   3.028   7.743 -0.6626  0.2887  0.1082
 1896THY    CA447392   2.281   3.030   7.539  0.4220  0.1418  0.2914
 1896THY    HA447393   2.341   2.940   7.536  0.2186  0.0219 -1.4188
 1896THY    CA547394   2.272   3.096   7.421  0.9585  0.1582  0.3907
 1896THY    CM147395   2.341   3.042   7.298 -0.4067  0.3058 -0.4349
 1896THY    HM147396   2.373   3.128   7.238 -2.4011  1.8303  0.5637
 1896THY    HM247397   2.430   2.986   7.331 -0.0286  1.5806  0.8280
 1896THY    HM347398   2.274   2.981   7.236 -0.1373  1.1045 -1.5492
 1896THY    CA647399   2.208   3.214   7.407  0.4991 -0.3637  0.8713
 1896THY    HA647400   2.201   3.263   7.310 -0.1857 -0.7439  0.7198
 1897THY      O47401   0.379   5.770   3.355  0.0711 -0.2017  0.3432
 1897THY     HO47402   0.391   5.707   3.282  2.8883  0.2753  0.2763
 1897THY    CA147403   0.248   5.800   3.368  0.1910 -0.2474  0.2498
 1897THY    CA247404   0.205   5.892   3.462  0.1205  0.2466 -0.4791
 1897THY    CP147405   0.304   5.963   3.563 -0.5784  1.0039 -0.1351
 1897THY    HP147406   0.407   5.939   3.533 -1.0335  1.0952 -1.8728
 1897THY    CP247407   0.307   6.114   3.556  0.0729 -0.3790  0.9400
 1897THY    HP247408   0.380   6.146   3.631  1.9695  0.5517 -1.1617
 1897THY    HP347409   0.347   6.137   3.456 -3.1909 -1.7062 -0.8334
 1897THY    HP447410   0.209   6.158   3.578  0.4389  1.0611 -0.0925
 1897THY    CP347411   0.271   5.921   3.709  0.6778  0.0160  0.4198
 1897THY    HP547412   0.185   5.979   3.744  0.0329  0.5296 -1.8400
 1897THY    HP647413   0.238   5.816   3.707 -0.4998  0.3783 -0.5069
 1897THY    HP747414   0.356   5.943   3.774  2.0583  0.3300 -1.3860
 1897THY    CA347415   0.072   5.940   3.455  0.0140 -0.3008 -0.2191
 1897THY    HA347416   0.034   6.013   3.526 -1.3449 -2.5046  1.4977
 1897THY    CA447417  -0.021   5.876   3.372  0.2494  0.2903  0.7538
 1897THY    HA447418  -0.124   5.909   3.380  0.0170 -0.2812  0.2496
 1897THY    CA547419   0.020   5.766   3.293 -0.2022 -0.0126 -0.7204
 1897THY    CM147420  -0.072   5.686   3.211  0.3198  0.0910  0.7334
 1897THY    HM147421  -0.052   5.705   3.104 -3.4199  0.6013 -0.0042
 1897THY    HM247422  -0.061   5.583   3.246 -0.7423  0.8456  3.5609
 1897THY    HM347423  -0.175   5.719   3.230 -0.3329 -1.0669 -0.6391
 1897THY    CA647424   0.156   5.736   3.282 -1.0984 -0.7374  0.3227
 1897THY    HA647425   0.204   5.668   3.213  2.6065  0.3663  1.5554
 1898THY      O47426   9.651   9.195   8.273  0.4873 -0.0503 -0.0604
 1898THY     HO47427   9.560   9.229   8.270 -0.4576 -2.4263 -1.3275
 1898THY    CA147428   9.643   9.074   8.211 -0.9258 -0.0024  0.0507
 1898THY    CA247429   9.756   8.993   8.205 -0.0415 -0.2165  0.4070
 1898THY    CP147430   9.893   9.042   8.270  0.6768  0.2739  0.2273
 1898THY    HP147431   9.884   9.146   8.303  0.9782  0.0597  1.0141
 1898THY    CP247432   9.927   8.966   8.403  0.1880  0.0789 -0.6558
 1898THY    HP247433  10.033   8.967   8.429 -0.1073  0.8817  0.6282
 1898THY    HP347434   9.873   9.024   8.479  0.2986 -0.1682 -0.3858
 1898THY    HP447435   9.901   8.860   8.396  1.4433 -0.4826  1.9937
 1898THY    CP347436  10.014   9.029   8.174  0.6041 -0.1510 -0.1688
 1898THY    HP547437  10.108   9.065   8.218  0.8164  0.5277 -1.1463
 1898THY    HP647438  10.036   8.924   8.153 -0.5854 -0.1905 -1.3242
 1898THY    HP747439   9.999   9.077   8.077  2.0326  1.2976  0.2745
 1898THY    CA347440   9.752   8.880   8.121 -0.0734  0.5088 -0.1012
 1898THY    HA347441   9.838   8.815   8.110 -1.0512 -0.8392 -0.1221
 1898THY    CA447442   9.626   8.836   8.066  0.4500  0.2371  1.1589
 1898THY    HA447443   9.615   8.745   8.007  1.2589  0.5361  0.5425
 1898THY    CA547444   9.516   8.925   8.074  0.0303  0.5550  0.5745
 1898THY    CM147445   9.376   8.886   8.028  0.3491 -0.2448  0.2344
 1898THY    HM147446   9.339   8.784   8.034 -1.8560  0.3750 -1.4402
 1898THY    HM247447   9.298   8.954   8.066 -0.1029 -1.6319  1.8947
 1898THY    HM347448   9.370   8.901   7.920 -2.3355  0.3739  0.3906
 1898THY    CA647449   9.529   9.048   8.146 -0.5026  0.1646 -0.3444
 1898THY    HA647450   9.444   9.115   8.143 -1.9035 -1.5382 -3.9815
 1899THY      O47451   3.974   4.043   6.511 -0.1464 -0.3164 -1.0416
 1899THY     HO47452   4.034   3.978   6.471  1.9483  1.2021 -0.5071
 1899THY    CA147453   4.047   4.097   6.618 -0.4284 -0.2334  0.1606
 1899THY    CA247454   3.984   4.186   6.709  0.0932  0.0895  0.3797
 1899THY    CP147455   3.840   4.243   6.684  0.0955 -0.3440  0.7788
 1899THY    HP147456   3.806   4.217   6.584 -1.7691 -2.0624  1.7838
 1899THY    CP247457   3.750   4.177   6.785 -0.4362 -0.2535 -0.6686
 1899THY    HP247458   3.751   4.069   6.765  0.8869  0.0025 -2.2073
 1899THY    HP347459   3.786   4.190   6.888  0.0631 -0.3152 -0.8359
 1899THY    HP447460   3.647   4.214   6.783 -0.8863 -1.3273  0.6205
 1899THY    CP347461   3.819   4.397   6.695  0.0870 -0.0043 -0.2436
 1899THY    HP547462   3.714   4.415   6.671  0.5375 -0.4547 -2.8478
 1899THY    HP647463   3.856   4.426   6.794  0.0647  1.6593 -0.6937
 1899THY    HP747464   3.880   4.454   6.624 -1.2733 -1.3800 -2.6453
 1899THY    CA347465   4.061   4.230   6.816  0.3707  0.8267  0.1727
 1899THY    HA347466   4.019   4.297   6.890 -0.6985  1.3433 -0.8551
 1899THY    CA447467   4.197   4.196   6.835 -0.3016  0.2832  1.2138
 1899THY    HA447468   4.259   4.239   6.912  1.5549 -1.0349  0.5384
 1899THY    CA547469   4.249   4.094   6.747 -0.7844  1.4839  0.9848
 1899THY    CM147470   4.388   4.047   6.767 -0.3824 -0.0723 -0.3848
 1899THY    HM147471   4.374   3.961   6.833  0.1700 -1.7297 -2.3190
 1899THY    HM247472   4.427   4.015   6.670 -1.6362 -2.3798 -0.2035
 1899THY    HM347473   4.444   4.129   6.812  0.7828 -2.4695  2.9065
 1899THY    CA647474   4.173   4.041   6.649  0.7018  0.2138  0.1421
 1899THY    HA647475   4.211   3.974   6.573 -2.1496 -0.1585 -1.0809
 1900THY      O47476   8.036   0.354   3.386 -0.0999 -0.5047 -0.7921
 1900THY     HO47477   7.963   0.348   3.323 -0.3390  2.6906 -0.9475
 1900THY    CA147478   8.153   0.335   3.316 -0.2641 -0.4263  0.4861
 1900THY    CA247479   8.273   0.319   3.378  0.6014 -0.2513  0.1662
 1900THY    CP147480   8.285   0.308   3.527  0.0020  0.1658  0.0203
 1900THY    HP147481   8.195   0.331   3.585  0.7907 -2.6451  2.5926
 1900THY    CP247482   8.331   0.161   3.581  0.2688 -0.2689 -0.4285
 1900THY    HP247483   8.314   0.168   3.689 -0.6886 -0.2652 -0.5777
 1900THY    HP347484   8.268   0.077   3.552 -0.9042 -0.8595  3.3712
 1900THY    HP447485   8.439   0.148   3.564  0.9049  2.0468  1.2403
 1900THY    CP347486   8.392   0.409   3.575  0.1884 -0.6043  0.4102
 1900THY    HP547487   8.480   0.406   3.510 -1.4931  0.3076 -2.0771
 1900THY    HP647488   8.344   0.508   3.584  0.8232 -0.2378 -0.1321
 1900THY    HP747489   8.428   0.376   3.673  1.5203 -0.7299 -0.1101
 1900THY    CA347490   8.387   0.283   3.297 -0.0393 -0.4188  0.0199
 1900THY    HA347491   8.483   0.259   3.344  1.1473  0.5545 -1.8008
 1900THY    CA447492   8.385   0.308   3.164  0.0793  0.0062  0.0164
 1900THY    HA447493   8.470   0.299   3.096 -0.1647 -0.5604 -0.2135
 1900THY    CA547494   8.261   0.345   3.104 -0.8388 -0.5039 -0.1898
 1900THY    CM147495   8.239   0.394   2.963  0.1307  0.7170 -0.2408
 1900THY    HM147496   8.194   0.313   2.904  0.1824  0.9785 -0.6450
 1900THY    HM247497   8.196   0.494   2.970  0.6235  0.8506  1.1478
 1900THY    HM347498   8.341   0.405   2.924  1.0452 -0.9760  1.4930
 1900THY    CA647499   8.138   0.350   3.183 -0.2465  0.1439  0.1268
 1900THY    HA647500   8.043   0.359   3.130 -0.0310 -1.0388 -0.4930
 1901THY      O47501   8.784   0.123   0.638 -0.5662 -0.0793  0.6772
 1901THY     HO47502   8.703   0.083   0.675 -0.4266 -0.3050  0.7373
 1901THY    CA147503   8.785   0.080   0.512 -0.3076  0.1714  0.0282
 1901THY    CA247504   8.875  -0.018   0.469  0.2740  0.2184  0.2263
 1901THY    CP147505   8.992  -0.052   0.559 -0.8988 -0.5474  0.3379
 1901THY    HP147506   8.999   0.010   0.650 -2.2645 -2.6303  1.9472
 1901THY    CP247507   8.978  -0.194   0.613 -0.3306 -0.2722  0.1228
 1901THY    HP247508   8.883  -0.217   0.663 -0.8012  2.3340  0.5634
 1901THY    HP347509   8.998  -0.261   0.528  0.3629 -0.3472  0.3409
 1901THY    HP447510   9.048  -0.209   0.696  2.2077  1.3915 -1.5782
 1901THY    CP347511   9.134  -0.035   0.487 -0.1070  0.1266 -0.1056
 1901THY    HP547512   9.226  -0.042   0.546  1.3777  0.5600 -2.2487
 1901THY    HP647513   9.153  -0.112   0.412 -0.5999  0.3592 -0.4766
 1901THY    HP747514   9.143   0.068   0.449  1.6865 -0.3723 -1.1714
 1901THY    CA347515   8.864  -0.067   0.334  0.8611  0.1683 -1.2257
 1901THY    HA347516   8.932  -0.140   0.292  0.3280  0.2614 -2.2995
 1901THY    CA447517   8.748  -0.023   0.259  0.3083  0.5548  0.5661
 1901THY    HA447518   8.726  -0.064   0.161 -2.2341  2.0839  0.4032
 1901THY    CA547519   8.652   0.062   0.311  0.1460 -0.0470  0.2947
 1901THY    CM147520   8.529   0.107   0.234  0.1739  0.2874 -0.7719
 1901THY    HM147521   8.440   0.083   0.295 -0.0467 -0.1785 -1.2700
 1901THY    HM247522   8.536   0.214   0.213 -1.6197  0.5676 -0.1339
 1901THY    HM347523   8.521   0.049   0.141 -3.5443 -1.3807  0.3768
 1901THY    CA647524   8.675   0.121   0.433 -0.0678 -0.3154  0.0439
 1901THY    HA647525   8.611   0.205   0.459 -2.5391 -3.1296  4.0025
 1902THY      O47526   4.702   8.364   8.206  0.5275  0.1750 -0.3703
 1902THY     HO47527   4.662   8.453   8.203 -2.2986 -0.9791  0.0728
 1902THY    CA147528   4.775   8.349   8.321  0.0151  1.3493 -0.2652
 1902THY    CA247529   4.812   8.220   8.367 -0.2983  0.7644 -0.7296
 1902THY    CP147530   4.778   8.096   8.297 -0.4376 -0.3355  0.3454
 1902THY    HP147531   4.735   8.117   8.198  0.4614  0.6624  0.1527
 1902THY    CP247532   4.891   8.005   8.254 -0.4751 -0.0321 -1.1580
 1902THY    HP247533   4.857   7.935   8.177  0.0106  0.0291 -1.4286
 1902THY    HP347534   4.973   8.056   8.203  2.1043 -2.3808  0.3192
 1902THY    HP447535   4.924   7.945   8.340 -1.9311 -0.3406 -0.7938
 1902THY    CP347536   4.665   8.011   8.371  0.2644 -0.4391  0.3969
 1902THY    HP547537   4.634   7.933   8.301  0.3015 -0.3308  0.2596
 1902THY    HP647538   4.694   7.971   8.469 -1.5431 -1.8815  0.4013
 1902THY    HP747539   4.573   8.070   8.380  0.3851 -0.2155  0.1839
 1902THY    CA347540   4.870   8.207   8.503  0.0884 -0.3747  0.0992
 1902THY    HA347541   4.892   8.109   8.545  0.1173 -1.4769 -2.3132
 1902THY    CA447542   4.907   8.323   8.572  1.0468  0.4952 -0.0621
 1902THY    HA447543   4.961   8.312   8.666  0.4538  1.7045  0.4347
 1902THY    CA547544   4.893   8.449   8.513 -0.1243 -0.4128 -0.4905
 1902THY    CM147545   4.950   8.569   8.569 -0.1949 -0.0508 -0.4438
 1902THY    HM147546   5.049   8.556   8.615  0.6824 -0.3014 -2.3244
 1902THY    HM247547   4.963   8.639   8.486 -1.0340  0.9464  0.2403
 1902THY    HM347548   4.881   8.617   8.640  2.0712  1.9382  0.5618
 1902THY    CA647549   4.810   8.462   8.397  0.1721 -0.4502  0.3033
 1902THY    HA647550   4.802   8.563   8.357 -0.6387 -1.0252 -1.0421
 1903THY      O47551   2.567   3.174   4.334 -0.0017 -0.5621 -0.4631
 1903THY     HO47552   2.628   3.194   4.408  0.7838  0.1627 -1.2793
 1903THY    CA147553   2.638   3.206   4.220 -0.1160  0.2026 -0.4866
 1903THY    CA247554   2.588   3.192   4.092  0.0803 -0.4791  0.1283
 1903THY    CP147555   2.451   3.142   4.071  0.5263 -0.3565  0.7791
 1903THY    HP147556   2.402   3.117   4.166  2.4450  0.9824  2.2086
 1903THY    CP247557   2.366   3.248   4.002  0.2592  0.4662  0.1643
 1903THY    HP247558   2.379   3.227   3.895 -1.2709  2.6195 -0.5323
 1903THY    HP347559   2.260   3.235   4.026  0.4617 -0.0655  0.7897
 1903THY    HP447560   2.399   3.348   4.034 -0.6032  1.1122 -0.8852
 1903THY    CP347561   2.450   3.009   3.993 -0.2273  0.1929 -0.1156
 1903THY    HP547562   2.374   2.945   4.041  0.9190  0.3145  1.9368
 1903THY    HP647563   2.422   3.025   3.888 -0.4743 -0.8527 -0.2269
 1903THY    HP747564   2.544   2.953   4.003  0.7862  1.3593 -2.3580
 1903THY    CA347565   2.678   3.222   3.986  0.6418  0.3273  0.1892
 1903THY    HA347566   2.641   3.215   3.884  0.8308 -0.3582  0.1586
 1903THY    CA447567   2.808   3.267   4.017 -0.6406 -0.6504 -0.5477
 1903THY    HA447568   2.886   3.300   3.949 -0.0915 -1.0232 -0.1181
 1903THY    CA547569   2.852   3.275   4.151  0.4415 -0.3095  0.2589
 1903THY    CM147570   2.993   3.314   4.191  0.0094  0.1516 -0.1639
 1903THY    HM147571   3.059   3.227   4.201 -0.7634 -0.9519 -3.4006
 1903THY    HM247572   3.036   3.373   4.109  0.8616 -1.0327 -0.6006
 1903THY    HM347573   2.992   3.375   4.282 -0.0395  0.6092 -0.4658
 1903THY    CA647574   2.768   3.237   4.249 -0.2016 -0.2281 -0.4070
 1903THY    HA647575   2.804   3.236   4.351 -3.0544 -0.1650  0.6839
 1904THY      O47576   3.771   3.844   1.939  0.4301 -0.3469  0.1203
 1904THY     HO47577   3.720   3.884   2.012  0.7789 -0.9345  0.6972
 1904THY    CA147578   3.805   3.719   1.973 -0.2104 -0.3644  0.2106
 1904THY    CA247579   3.874   3.637   1.879  0.0685  0.3939 -0.0962
 1904THY    CP147580   3.909   3.673   1.740 -0.0201  0.2453  0.5337
 1904THY    HP147581   3.871   3.769   1.702  1.1495 -0.4288 -2.6310
 1904THY    CP247582   4.063   3.673   1.726 -0.0184 -0.0474  0.1508
 1904THY    HP247583   4.100   3.577   1.763 -1.8639 -0.8800 -0.0602
 1904THY    HP347584   4.086   3.689   1.619 -1.1800  1.3122  0.0788
 1904THY    HP447585   4.113   3.752   1.783  1.2552 -0.7139  0.0010
 1904THY    CP347586   3.845   3.579   1.639  0.5898  0.4414 -0.8046
 1904THY    HP547587   3.846   3.619   1.537  1.8837 -0.9742 -1.3816
 1904THY    HP647588   3.893   3.482   1.625 -0.2409  0.1336 -1.5468
 1904THY    HP747589   3.741   3.557   1.662  1.0301 -0.9981 -0.0818
 1904THY    CA347590   3.893   3.501   1.919 -0.7716 -0.1982 -0.6871
 1904THY    HA347591   3.948   3.435   1.852  0.5794  0.7071 -0.5084
 1904THY    CA447592   3.845   3.449   2.036 -0.6348 -0.9145  0.1220
 1904THY    HA447593   3.869   3.349   2.071  0.9780 -0.7839 -0.5024
 1904THY    CA547594   3.779   3.531   2.125 -0.4966 -0.4448 -0.4793
 1904THY    CM147595   3.732   3.477   2.250 -0.4654 -0.0182 -0.0401
 1904THY    HM147596   3.653   3.404   2.228 -0.4559  0.4244 -1.6188
 1904THY    HM247597   3.810   3.419   2.301  0.2305  0.7889 -0.1714
 1904THY    HM347598   3.686   3.549   2.318  2.0328  0.5444  1.1810
 1904THY    CA647599   3.761   3.667   2.096 -0.1369 -0.1078 -0.2819
 1904THY    HA647600   3.709   3.729   2.168 -0.3532 -0.2857 -0.2847
 1905THY      O47601   5.785   8.310   8.545  0.5604 -0.3224 -0.0684
 1905THY     HO47602   5.777   8.325   8.449 -0.4666  1.8627  0.3043
 1905THY    CA147603   5.679   8.378   8.604  0.7108 -0.0272  0.2982
 1905THY    CA247604   5.668   8.386   8.743  0.6039 -0.1272 -0.0886
 1905THY    CP147605   5.772   8.318   8.832 -0.4797  0.5104 -0.8539
 1905THY    HP147606   5.842   8.247   8.787  1.4955 -0.9761  3.8923
 1905THY    CP247607   5.856   8.425   8.903 -0.0594 -0.5734  0.5067
 1905THY    HP247608   5.887   8.504   8.833 -2.9749  0.9369  0.7422
 1905THY    HP347609   5.801   8.488   8.975  2.5611  1.8685  0.5466
 1905THY    HP447610   5.941   8.372   8.947  0.5512 -0.0008  0.0258
 1905THY    CP347611   5.709   8.231   8.940 -0.0846 -0.6873  1.0345
 1905THY    HP547612   5.622   8.277   8.988 -0.6258 -1.5506  0.9092
 1905THY    HP647613   5.671   8.136   8.899  0.9884 -2.2715  3.4508
 1905THY    HP747614   5.793   8.205   9.005  0.9185 -2.1236 -0.7439
 1905THY    CA347615   5.567   8.465   8.791  0.1295  0.0207  0.0436
 1905THY    HA347616   5.559   8.492   8.896 -0.3907 -0.0157  0.0127
 1905THY    CA447617   5.479   8.527   8.704  1.2741  1.0559 -0.1582
 1905THY    HA447618   5.403   8.592   8.746 -1.0726 -2.0043  0.6372
 1905THY    CA547619   5.478   8.504   8.565 -0.5724  0.0104 -0.7820
 1905THY    CM147620   5.390   8.568   8.466  0.4744  0.1746 -0.3857
 1905THY    HM147621   5.428   8.670   8.447  0.5885  0.3156  0.5377
 1905THY    HM247622   5.374   8.508   8.376  0.3853 -0.6902  0.2003
 1905THY    HM347623   5.288   8.582   8.504  0.4842  4.1820 -1.3047
 1905THY    CA647624   5.588   8.435   8.518 -0.6105  0.0571  0.2166
 1905THY    HA647625   5.605   8.424   8.411 -0.0929  2.5252 -0.0062
 1906THY      O47626   1.096   0.349   5.605  0.4950  0.8050 -0.1766
 1906THY     HO47627   1.080   0.302   5.521 -0.0411  0.7940 -0.0726
 1906THY    CA147628   1.059   0.269   5.707 -0.6957 -0.1271  0.3598
 1906THY    CA247629   1.105   0.272   5.841 -0.4180 -0.4983  0.4217
 1906THY    CP147630   1.222   0.363   5.876 -0.4099 -0.1473 -0.5119
 1906THY    HP147631   1.277   0.397   5.788 -1.7511  0.1279 -1.2851
 1906THY    CP247632   1.162   0.496   5.933 -0.0394 -0.3187  0.3365
 1906THY    HP247633   1.112   0.474   6.028  0.6724 -0.8589  0.5954
 1906THY    HP347634   1.243   0.568   5.952 -1.5130  1.6592 -0.4620
 1906THY    HP447635   1.086   0.537   5.866 -1.0218 -4.9268 -1.7598
 1906THY    CP347636   1.341   0.310   5.967 -0.5066  0.4957  0.2020
 1906THY    HP547637   1.400   0.393   6.008 -2.4505  1.1330  1.8723
 1906THY    HP647638   1.294   0.267   6.056  0.2603 -1.7218 -0.3943
 1906THY    HP747639   1.413   0.240   5.923  0.8334  1.3658  0.9392
 1906THY    CA347640   1.049   0.175   5.927  0.0129 -0.7172 -0.2076
 1906THY    HA347641   1.077   0.182   6.032  2.2442 -0.6447 -0.7419
 1906THY    CA447642   0.959   0.081   5.886 -0.0849 -0.6018 -0.2842
 1906THY    HA447643   0.923   0.003   5.952 -0.5384  0.6677  1.0185
 1906THY    CA547644   0.911   0.087   5.756 -0.5830 -0.2594  0.0636
 1906THY    CM147645   0.801  -0.008   5.719 -0.0489  0.0540  0.1027
 1906THY    HM147646   0.778  -0.076   5.801  0.5048 -2.6312 -1.8405
 1906THY    HM247647   0.714   0.053   5.695  0.3849  0.3300 -0.8392
 1906THY    HM347648   0.816  -0.076   5.635 -0.8319 -2.6637  2.0227
 1906THY    CA647649   0.966   0.180   5.664  0.2364 -0.0011  0.1605
 1906THY    HA647650   0.933   0.180   5.561 -0.0986 -1.0976  0.2576
 1907THY      O47651   1.247   3.177   8.093 -0.0062 -0.1583  0.2005
 1907THY     HO47652   1.177   3.211   8.034  2.6533  3.3961 -1.2929
 1907THY    CA147653   1.328   3.279   8.118  0.2201 -0.4450  0.4353
 1907THY    CA247654   1.469   3.273   8.112 -0.0110 -0.9271 -0.2301
 1907THY    CP147655   1.539   3.144   8.069  0.2436  0.3791  0.0578
 1907THY    HP147656   1.461   3.066   8.071  0.2665  0.3265 -0.7875
 1907THY    CP247657   1.601   3.151   7.922 -0.3277  0.3625 -0.2792
 1907THY    HP247658   1.510   3.171   7.864 -2.0938  1.3297  2.6165
 1907THY    HP347659   1.680   3.224   7.903 -0.2975  0.3137 -0.3417
 1907THY    HP447660   1.656   3.059   7.898 -0.3681 -0.0289  1.0609
 1907THY    CP347661   1.651   3.108   8.170  0.1392  0.2369  0.3293
 1907THY    HP547662   1.737   3.175   8.177 -0.5998  1.0333  2.5789
 1907THY    HP647663   1.614   3.104   8.273 -0.8689 -0.5694 -0.0476
 1907THY    HP747664   1.690   3.008   8.144  0.6884  0.9454 -1.7313
 1907THY    CA347665   1.535   3.392   8.146 -0.1948 -0.3132 -0.6501
 1907THY    HA347666   1.643   3.402   8.135  0.1166  0.5561  2.3729
 1907THY    CA447667   1.464   3.511   8.194 -1.0657  0.7176 -0.5435
 1907THY    HA447668   1.527   3.595   8.221  1.5258 -1.4549  0.5814
 1907THY    CA547669   1.328   3.512   8.194  0.3318  0.3095 -0.3509
 1907THY    CM147670   1.250   3.633   8.238 -0.5897  0.3522 -0.5006
 1907THY    HM147671   1.266   3.718   8.171 -1.1476  0.8074 -0.0642
 1907THY    HM247672   1.143   3.609   8.239 -0.4284 -0.4331  0.7200
 1907THY    HM347673   1.289   3.660   8.337  0.0624 -2.6452  0.1699
 1907THY    CA647674   1.261   3.397   8.163  0.0794  0.2834  0.1212
 1907THY    HA647675   1.153   3.402   8.164  0.0498 -0.0044 -0.5775
 1908THY      O47676   0.983   9.330   4.554  0.1304 -0.1488 -0.8155
 1908THY     HO47677   1.033   9.253   4.523  0.2092  0.4040 -2.1333
 1908THY    CA147678   0.982   9.420   4.449 -0.3473 -0.8024  0.2600
 1908THY    CA247679   0.974   9.561   4.471  0.0777  0.0223  0.1284
 1908THY    CP147680   0.980   9.612   4.615 -0.3345 -0.8014  0.3766
 1908THY    HP147681   0.949   9.536   4.688 -2.5495  0.6211  1.0170
 1908THY    CP247682   1.126   9.650   4.638  0.3780 -0.3927 -1.1158
 1908THY    HP247683   1.147   9.729   4.566  0.3112 -1.1809 -2.0236
 1908THY    HP347684   1.136   9.704   4.733 -3.8309  0.0330 -0.7389
 1908THY    HP447685   1.193   9.564   4.626  1.8488  0.5881 -0.2195
 1908THY    CP347686   0.893   9.741   4.634  0.1444 -0.6759 -0.5440
 1908THY    HP547687   0.875   9.775   4.736 -2.6004 -1.7822 -0.5698
 1908THY    HP647688   0.925   9.823   4.568  1.4056 -0.0338  0.8264
 1908THY    HP747689   0.790   9.712   4.609 -1.2004  1.2803  2.1690
 1908THY    CA347690   0.985   9.648   4.361  0.1069 -0.5768 -0.3109
 1908THY    HA347691   0.993   9.752   4.392  0.3282 -0.8183  0.4806
 1908THY    CA447692   1.015   9.597   4.236  0.4545  0.7627 -0.2239
 1908THY    HA447693   1.027   9.663   4.151  0.7752  0.6081 -0.2979
 1908THY    CA547694   1.013   9.461   4.215 -0.5197 -0.7611  0.4554
 1908THY    CM147695   1.039   9.404   4.078  0.6145 -0.0197  0.0450
 1908THY    HM147696   1.122   9.458   4.031  0.2188 -0.2165 -0.9092
 1908THY    HM247697   1.063   9.298   4.096  0.5800  0.3098  2.3783
 1908THY    HM347698   0.966   9.416   3.997 -0.0114 -0.2235  0.5705
 1908THY    CA647699   0.994   9.372   4.322  0.2513  0.5842  0.6465
 1908THY    HA647700   0.969   9.270   4.298 -1.3151  1.0230  0.2996
 1909THY      O47701   7.095   2.819   2.918 -0.4284 -0.3018 -0.1565
 1909THY     HO47702   7.172   2.780   2.963 -1.1156 -1.5100  0.0073
 1909THY    CA147703   7.117   2.843   2.780  0.2250  0.1019 -0.0853
 1909THY    CA247704   7.002   2.854   2.693  0.7995 -0.6000 -0.0564
 1909THY    CP147705   6.859   2.828   2.752  0.5132 -0.1932 -0.1517
 1909THY    HP147706   6.855   2.888   2.844  1.9321 -0.0287 -0.1708
 1909THY    CP247707   6.743   2.886   2.659 -0.1921  0.4176  0.2145
 1909THY    HP247708   6.652   2.876   2.719  0.0235  0.0285  0.4774
 1909THY    HP347709   6.753   2.993   2.635 -0.9200 -0.0221 -2.3314
 1909THY    HP447710   6.732   2.831   2.565 -1.5304  0.6985  0.1813
 1909THY    CP347711   6.852   2.673   2.780 -0.3704 -0.2280  1.0225
 1909THY    HP547712   6.758   2.641   2.828 -0.0450  1.3845  2.8860
 1909THY    HP647713   6.851   2.624   2.683 -2.0036  0.1482  0.8175
 1909THY    HP747714   6.936   2.645   2.845  0.0632 -0.1165  0.5169
 1909THY    CA347715   7.030   2.882   2.555 -0.4718  0.2711  0.5065
 1909THY    HA347716   6.943   2.891   2.491 -0.8994  0.5834  1.1251
 1909THY    CA447717   7.167   2.886   2.507  0.2079 -0.1193  0.1018
 1909THY    HA447718   7.196   2.888   2.402 -1.6261  0.8126 -0.4114
 1909THY    CA547719   7.271   2.884   2.600 -0.0112  1.4096 -0.2203
 1909THY    CM147720   7.413   2.899   2.547  0.1888  0.0636 -0.0562
 1909THY    HM147721   7.438   2.820   2.476 -0.3919 -1.2996  1.2019
 1909THY    HM247722   7.436   2.997   2.502 -0.8265 -0.7035 -2.3584
 1909THY    HM347723   7.485   2.881   2.628 -0.1212 -2.3669 -0.2404
 1909THY    CA647724   7.252   2.861   2.738 -0.1497 -0.0477 -1.0489
 1909THY    HA647725   7.329   2.854   2.813 -2.6450 -3.8627  1.5542
 1910THY      O47726   4.935   9.085   9.910 -0.2189 -0.2984 -0.9480
 1910THY     HO47727   4.860   9.111   9.854 -0.4901  1.4417  0.1521
 1910THY    CA147728   5.036   9.036   9.827  0.2309  0.6029 -0.2187
 1910THY    CA247729   5.131   8.955   9.881 -0.6429 -0.3807  0.1663
 1910THY    CP147730   5.137   8.911  10.029  0.3323  0.5126  0.5928
 1910THY    HP147731   5.082   8.980  10.094 -1.3004 -0.7747  0.6582
 1910THY    CP247732   5.076   8.765  10.048 -0.8044  0.1956 -0.5868
 1910THY    HP247733   5.128   8.685   9.994  0.0837  0.7085 -0.5100
 1910THY    HP347734   5.077   8.736  10.154  0.4940  0.2472 -0.5689
 1910THY    HP447735   4.969   8.770  10.026 -1.2034  0.8337  1.2540
 1910THY    CP347736   5.276   8.910  10.088 -0.0628 -0.6631  0.1181
 1910THY    HP547737   5.324   9.002  10.053 -0.3562 -0.3326  0.5736
 1910THY    HP647738   5.282   8.910  10.197  0.7178 -1.6466  0.0901
 1910THY    HP747739   5.339   8.826  10.058  0.4324 -0.2925  0.1026
 1910THY    CA347740   5.233   8.915   9.795 -0.1891  0.6344 -0.3565
 1910THY    HA347741   5.306   8.845   9.835 -0.6554 -0.6900 -1.7602
 1910THY    CA447742   5.231   8.950   9.662 -0.1184  0.5291  0.0762
 1910THY    HA447743   5.308   8.917   9.593 -0.0308 -0.4313  0.6094
 1910THY    CA547744   5.123   9.031   9.606  0.6363  0.3105 -0.1295
 1910THY    CM147745   5.109   9.067   9.462  0.5161 -0.3163  0.3045
 1910THY    HM147746   5.174   9.000   9.405  0.2772 -0.2948  0.0050
 1910THY    HM247747   5.011   9.048   9.417  1.1189 -2.1969 -0.2846
 1910THY    HM347748   5.128   9.170   9.428  1.1559 -0.4133  0.3595
 1910THY    CA647749   5.020   9.068   9.700 -0.2232 -0.2822  0.2420
 1910THY    HA647750   4.932   9.120   9.663 -0.1823 -0.5521 -0.2532
 1911THY      O47751   7.423   6.647   7.510  0.0245  0.2584 -0.1305
 1911THY     HO47752   7.450   6.706   7.582 -2.2418  0.7832  0.3581
 1911THY    CA147753   7.512   6.652   7.402  0.2762  0.1485  0.2706
 1911THY    CA247754   7.481   6.609   7.278 -0.3167 -0.1210 -0.2258
 1911THY    CP147755   7.333   6.561   7.261 -0.1151  0.2818 -0.2444
 1911THY    HP147756   7.293   6.507   7.348 -1.5781 -1.8706 -2.1365
 1911THY    CP247757   7.224   6.670   7.248 -0.0886 -0.1814 -0.2772
 1911THY    HP247758   7.207   6.726   7.341 -1.6822 -0.6132 -0.2708
 1911THY    HP347759   7.249   6.743   7.170 -1.0744  1.2582  0.7160
 1911THY    HP447760   7.123   6.629   7.232 -0.7007  1.4192 -0.6721
 1911THY    CP347761   7.310   6.464   7.140 -0.0969 -0.1854 -0.4733
 1911THY    HP547762   7.350   6.503   7.045  0.6108 -0.3490 -0.2516
 1911THY    HP647763   7.374   6.376   7.145  0.3255  0.1684  0.5368
 1911THY    HP747764   7.203   6.443   7.134 -0.6513  2.1431  0.1228
 1911THY    CA347765   7.573   6.622   7.174  0.2190 -0.1485  0.5562
 1911THY    HA347766   7.559   6.597   7.069  0.9325 -1.4936  0.7678
 1911THY    CA447767   7.695   6.679   7.200 -0.1615 -0.7526  0.3583
 1911THY    HA447768   7.759   6.700   7.116  0.2802 -1.2721  0.5612
 1911THY    CA547769   7.731   6.717   7.326  0.1605  0.7215  0.1032
 1911THY    CM147770   7.864   6.787   7.341  0.2795  0.0260  0.2064
 1911THY    HM147771   7.872   6.867   7.266 -0.6418  2.4580  2.4954
 1911THY    HM247772   7.872   6.836   7.440  2.6402 -1.5360  0.8676
 1911THY    HM347773   7.944   6.713   7.338  1.3629  1.1242  1.0971
 1911THY    CA647774   7.640   6.706   7.429 -0.4899  0.2286 -0.3685
 1911THY    HA647775   7.662   6.763   7.519 -1.2040  0.1978 -0.1629
 1912THY      O47776   1.662   4.380   3.103 -0.3758  0.8907 -0.1238
 1912THY     HO47777   1.617   4.307   3.149  0.0277 -0.9941 -2.5194
 1912THY    CA147778   1.683   4.477   3.188  0.1424  0.6129  0.5642
 1912THY    CA247779   1.736   4.601   3.144  0.6980  0.2165  0.5396
 1912THY    CP147780   1.764   4.622   2.997  0.5161  0.1138 -0.6512
 1912THY    HP147781   1.714   4.548   2.933 -1.1278  1.2175 -0.7013
 1912THY    CP247782   1.707   4.753   2.951  0.2754  0.0464  0.4820
 1912THY    HP247783   1.756   4.847   2.979 -0.4886  1.3262 -2.1064
 1912THY    HP347784   1.697   4.764   2.842 -1.0737  0.9307  0.6639
 1912THY    HP447785   1.610   4.774   2.999  1.0468  2.8946  0.9786
 1912THY    CP347786   1.912   4.621   2.964 -0.0498  0.2665  0.0492
 1912THY    HP547787   1.950   4.525   3.000 -0.0782  1.0847  2.4529
 1912THY    HP647788   1.944   4.616   2.859  0.0982  0.4399  0.0840
 1912THY    HP747789   1.969   4.695   3.022  1.7501 -2.2254  1.6631
 1912THY    CA347790   1.761   4.702   3.237 -0.3576  0.0580 -0.1891
 1912THY    HA347791   1.815   4.792   3.209  0.0916 -0.6210 -1.5758
 1912THY    CA447792   1.743   4.678   3.374  0.1716  0.0659  0.7148
 1912THY    HA447793   1.768   4.753   3.449  0.9111 -0.3253  0.8693
 1912THY    CA547794   1.701   4.551   3.415  0.3952  0.0089  0.1132
 1912THY    CM147795   1.652   4.531   3.552  0.0560  0.0107 -0.4207
 1912THY    HM147796   1.697   4.436   3.584 -0.2381 -0.4844 -1.4311
 1912THY    HM247797   1.674   4.607   3.627  0.3879 -0.5425  0.0497
 1912THY    HM347798   1.544   4.514   3.554 -0.0340  0.5941 -0.0821
 1912THY    CA647799   1.664   4.452   3.321 -0.3959 -0.7304 -0.3199
 1912THY    HA647800   1.634   4.357   3.364  0.9207 -0.7205  0.7183
 1913THY      O47801   6.861   4.357   8.499 -1.3033  0.2986  0.1522
 1913THY     HO47802   6.848   4.358   8.402  1.7940 -0.1637 -0.3920
 1913THY    CA147803   6.995   4.328   8.502 -0.3850 -0.4077  0.5115
 1913THY    CA247804   7.058   4.296   8.624  0.3714 -0.2062  0.2191
 1913THY    CP147805   6.983   4.264   8.760  0.1536 -0.3909  0.9528
 1913THY    HP147806   6.877   4.287   8.742  0.3667  0.0663  0.2340
 1913THY    CP247807   7.005   4.120   8.794  0.2136 -0.0143 -0.4303
 1913THY    HP247808   6.947   4.053   8.729 -1.1305  0.9727 -0.3008
 1913THY    HP347809   7.111   4.094   8.785  0.4126  0.6108  0.0463
 1913THY    HP447810   6.964   4.093   8.892 -0.2220  1.5154 -0.1729
 1913THY    CP347811   7.032   4.354   8.877 -1.1490  0.1578  0.0508
 1913THY    HP547812   6.956   4.340   8.955  0.8476 -0.4320  1.9862
 1913THY    HP647813   7.129   4.321   8.914 -1.4859  0.0167  0.8405
 1913THY    HP747814   7.038   4.461   8.856  2.5763  0.1783  0.7119
 1913THY    CA347815   7.202   4.288   8.614 -1.0064 -0.3364  0.1258
 1913THY    HA347816   7.260   4.255   8.700 -0.2257  1.1944  0.2271
 1913THY    CA447817   7.273   4.322   8.496 -0.0532 -0.4690  0.4636
 1913THY    HA447818   7.381   4.315   8.484 -0.1322 -1.2752  0.1385
 1913THY    CA547819   7.198   4.351   8.382  0.1875 -0.3208  0.8449
 1913THY    CM147820   7.276   4.392   8.257 -0.1538 -0.0362 -0.1803
 1913THY    HM147821   7.294   4.304   8.194 -1.1465 -1.0642  0.9539
 1913THY    HM247822   7.224   4.468   8.197 -0.0878  1.3610  1.4535
 1913THY    HM347823   7.378   4.421   8.285 -0.0294 -0.1828 -0.4720
 1913THY    CA647824   7.062   4.353   8.385  0.1900  0.7523 -0.0996
 1913THY    HA647825   7.004   4.374   8.296 -0.1613 -1.5536 -0.4808
 1914THY      O47826   4.439   4.916   1.350 -0.1918  0.7302 -0.3941
 1914THY     HO47827   4.503   4.844   1.354 -3.6070 -2.6498 -0.5070
 1914THY    CA147828   4.358   4.877   1.254 -0.0010  0.5269  0.0129
 1914THY    CA247829   4.221   4.912   1.251 -0.3033 -0.5070  0.0098
 1914THY    CP147830   4.163   5.005   1.353  0.4191 -0.9048 -0.0442
 1914THY    HP147831   4.232   5.025   1.436 -1.1998 -0.1798  1.1810
 1914THY    CP247832   4.127   5.136   1.282  0.0390  0.0791 -0.5894
 1914THY    HP247833   4.197   5.165   1.203  1.0674 -0.1286  0.2211
 1914THY    HP347834   4.035   5.121   1.226  0.3299 -0.2646 -0.9828
 1914THY    HP447835   4.118   5.214   1.359  0.2195 -0.4240 -0.0549
 1914THY    CP347836   4.037   4.943   1.423  0.6210  0.0309 -0.0151
 1914THY    HP547837   4.068   4.844   1.461  2.7341  1.2285  1.6102
 1914THY    HP647838   4.016   5.007   1.510 -0.2446  0.7772 -0.7552
 1914THY    HP747839   3.949   4.936   1.358 -0.3796 -0.0683  1.2851
 1914THY    CA347840   4.149   4.867   1.141 -0.2408 -0.0753 -0.0836
 1914THY    HA347841   4.047   4.904   1.133 -0.2874  0.1229  1.2544
 1914THY    CA447842   4.212   4.784   1.049 -0.3013 -0.1905  0.4776
 1914THY    HA447843   4.144   4.744   0.975 -2.3813 -0.2669  2.3165
 1914THY    CA547844   4.347   4.747   1.054  0.0466 -0.8222 -0.3660
 1914THY    CM147845   4.401   4.655   0.956  0.6936  0.0133  0.7016
 1914THY    HM147846   4.428   4.708   0.864 -0.6305  0.0879  0.3365
 1914THY    HM247847   4.490   4.606   0.998  1.0455 -0.7838 -0.8866
 1914THY    HM347848   4.338   4.569   0.931 -0.2175  1.0353 -0.6794
 1914THY    CA647849   4.429   4.804   1.150  0.1221 -0.4700 -0.0262
 1914THY    HA647850   4.537   4.792   1.151  0.0744 -0.9037 -0.1995
 1915THY      O47851   9.221   8.078   5.669  0.8085 -0.2171 -0.0987
 1915THY     HO47852   9.189   8.004   5.615  2.6113 -1.9261  1.0126
 1915THY    CA147853   9.117   8.147   5.710  0.6819  0.2925  0.1001
 1915THY    CA247854   9.124   8.234   5.819  0.5386  0.1738  0.4714
 1915THY    CP147855   9.266   8.264   5.876  0.0147 -0.3575  0.0580
 1915THY    HP147856   9.343   8.222   5.810 -0.3376 -1.5704  0.3858
 1915THY    CP247857   9.298   8.417   5.890 -0.5201 -0.1733  0.3847
 1915THY    HP247858   9.405   8.431   5.908 -0.8446  1.6549  1.1208
 1915THY    HP347859   9.269   8.484   5.808 -0.4478 -1.1897 -0.4921
 1915THY    HP447860   9.243   8.460   5.975  1.3355  1.8820  0.6148
 1915THY    CP347861   9.281   8.201   6.014 -0.1387  0.0064 -0.4178
 1915THY    HP547862   9.221   8.257   6.086  0.1548  1.3308 -1.1591
 1915THY    HP647863   9.246   8.097   6.008 -1.8572  0.5642 -0.8140
 1915THY    HP747864   9.387   8.204   6.039 -0.0361 -2.5538 -0.2701
 1915THY    CA347865   9.001   8.288   5.862  0.0537  0.1085 -0.1281
 1915THY    HA347866   8.999   8.356   5.947 -1.0681 -3.0950  2.6155
 1915THY    CA447867   8.874   8.257   5.802 -0.6827  0.3978  0.2110
 1915THY    HA447868   8.779   8.293   5.840 -0.2995  0.3959  1.2026
 1915THY    CA547869   8.877   8.159   5.708  1.0045 -0.6581  0.5565
 1915THY    CM147870   8.744   8.112   5.648 -0.2612  0.0197  0.6403
 1915THY    HM147871   8.731   8.006   5.668  4.8791 -0.8292  0.9518
 1915THY    HM247872   8.655   8.164   5.683 -1.2239 -1.2609  0.1560
 1915THY    HM347873   8.747   8.126   5.539  1.6740  1.8299  0.8465
 1915THY    CA647874   8.996   8.102   5.664  0.3099  0.4843  0.0172
 1915THY    HA647875   8.995   8.031   5.582  0.8584  1.1778 -0.5925
 1916THY      O47876   1.780   6.671   5.745  0.0096  0.1993 -0.1207
 1916THY     HO47877   1.771   6.767   5.746 -1.0150  0.1134  0.9917
 1916THY    CA147878   1.664   6.617   5.696  0.1620 -0.1139 -0.8769
 1916THY    CA247879   1.649   6.476   5.676  0.5890  0.1201 -0.1383
 1916THY    CP147880   1.749   6.372   5.728  0.1937 -0.4971  0.8534
 1916THY    HP147881   1.849   6.417   5.737 -0.5267  1.2901  0.4321
 1916THY    CP247882   1.716   6.320   5.866  0.5568  0.2348  0.3796
 1916THY    HP247883   1.616   6.276   5.855  0.1061  1.3160  0.0413
 1916THY    HP347884   1.791   6.246   5.896  2.8227  1.0175 -2.8161
 1916THY    HP447885   1.712   6.403   5.937 -0.7764  0.6351 -0.1257
 1916THY    CP347886   1.776   6.264   5.628 -0.1143  0.5543  0.0954
 1916THY    HP547887   1.758   6.288   5.523  0.6546 -0.8017 -0.3844
 1916THY    HP647888   1.880   6.229   5.638  0.1744  1.0869 -0.8495
 1916THY    HP747889   1.713   6.178   5.655  1.2027 -0.2221  0.8130
 1916THY    CA347890   1.520   6.431   5.636 -0.2756 -0.0866  0.2634
 1916THY    HA347891   1.486   6.328   5.630 -4.2537  1.1426 -1.7784
 1916THY    CA447892   1.415   6.520   5.613  0.6632  0.4689  0.2825
 1916THY    HA447893   1.319   6.474   5.592 -0.0187  1.2802  1.4923
 1916THY    CA547894   1.434   6.658   5.623  0.9626  0.2177  0.2011
 1916THY    CM147895   1.321   6.751   5.593 -0.2772 -0.3116  0.3627
 1916THY    HM147896   1.324   6.760   5.484  0.3775 -1.2337  0.2989
 1916THY    HM247897   1.220   6.711   5.611 -0.2116 -0.5012  0.2989
 1916THY    HM347898   1.320   6.844   5.653  0.7955 -0.9862  1.4726
 1916THY    CA647899   1.562   6.705   5.667  0.3290 -0.8414 -0.1606
 1916THY    HA647900   1.590   6.809   5.680  0.8564 -1.1328  1.2407
 1917THY      O47901   5.496   6.908   6.189  0.2612 -0.3361 -0.4627
 1917THY     HO47902   5.497   6.887   6.284  0.6719 -0.2146 -0.4401
 1917THY    CA147903   5.365   6.908   6.155 -0.3348  0.1056 -0.7141
 1917THY    CA247904   5.303   7.027   6.122 -0.5597 -1.1206 -0.3704
 1917THY    CP147905   5.381   7.160   6.134 -0.5738 -0.1922 -0.6581
 1917THY    HP147906   5.489   7.144   6.125 -0.0966  1.3992  1.2980
 1917THY    CP247907   5.354   7.265   6.033  0.0843 -0.1534  0.0969
 1917THY    HP247908   5.251   7.298   6.044  0.0394  0.7014 -2.2805
 1917THY    HP347909   5.413   7.354   6.056 -0.2728  0.2257 -0.4367
 1917THY    HP447910   5.379   7.236   5.930  0.8142  1.9168 -0.3549
 1917THY    CP347911   5.346   7.217   6.271  0.6659 -0.0354  0.9350
 1917THY    HP547912   5.412   7.300   6.298 -0.4975  0.3725  2.7360
 1917THY    HP647913   5.240   7.242   6.257 -0.1296 -3.3151  0.1834
 1917THY    HP747914   5.352   7.142   6.352  0.8420  1.4672  2.3707
 1917THY    CA347915   5.170   7.035   6.099  1.2576  0.7081 -0.0542
 1917THY    HA347916   5.126   7.134   6.084  2.4749  1.4489  1.0647
 1917THY    CA447917   5.092   6.917   6.093 -0.1212 -0.4241  0.5320
 1917THY    HA447918   4.986   6.925   6.073 -0.2329  1.0457  1.5376
 1917THY    CA547919   5.151   6.792   6.123 -0.8611 -0.2037  0.1250
 1917THY    CM147920   5.074   6.660   6.124  0.4058  0.2421  0.3542
 1917THY    HM147921   5.131   6.568   6.140 -1.0036 -0.7326  0.0038
 1917THY    HM247922   4.991   6.670   6.195  1.2574 -0.7200  1.5260
 1917THY    HM347923   5.026   6.643   6.027 -0.4945 -0.9490  0.9752
 1917THY    CA647924   5.291   6.791   6.150  0.7867  0.7503 -0.2697
 1917THY    HA647925   5.328   6.691   6.169 -0.0366  0.6771  1.0161
 1918THY      O47926   5.162   0.724   4.156  0.1584  0.1349  0.1899
 1918THY     HO47927   5.121   0.637   4.173  0.4831  0.0204  0.4012
 1918THY    CA147928   5.140   0.745   4.024  0.1882 -0.4006 -0.3338
 1918THY    CA247929   5.205   0.845   3.949  0.5949  0.1640  0.1765
 1918THY    CP147930   5.311   0.931   4.011 -0.0002  0.4702 -0.3672
 1918THY    HP147931   5.341   0.887   4.107  1.1266  2.6311  0.3431
 1918THY    CP247932   5.441   0.920   3.932  0.1599 -0.3928 -0.3091
 1918THY    HP247933   5.437   0.993   3.851  0.2639  2.4134  2.0477
 1918THY    HP347934   5.521   0.954   3.999  1.3280 -2.4096 -0.5977
 1918THY    HP447935   5.472   0.816   3.914 -3.1111 -1.1546 -2.3618
 1918THY    CP347936   5.249   1.073   4.045  0.8224 -0.0186 -0.1579
 1918THY    HP547937   5.212   1.122   3.954  1.5068  1.1887  0.1995
 1918THY    HP647938   5.179   1.077   4.129  2.2374  1.6827  1.0077
 1918THY    HP747939   5.334   1.134   4.080  1.6297 -1.9903  1.5619
 1918THY    CA347940   5.169   0.858   3.814  0.2862 -0.4724 -0.5237
 1918THY    HA347941   5.215   0.928   3.745 -0.2346  1.5252  1.0695
 1918THY    CA447942   5.079   0.777   3.753  0.2502 -0.1987  0.2503
 1918THY    HA447943   5.051   0.783   3.649 -1.5720  1.5320  0.7653
 1918THY    CA547944   5.002   0.688   3.832 -0.3034 -0.5161 -1.1441
 1918THY    CM147945   4.900   0.596   3.773 -0.1129 -0.2497  0.9007
 1918THY    HM147946   4.871   0.512   3.837 -1.7308 -2.6463 -2.6867
 1918THY    HM247947   4.807   0.642   3.738 -0.6058 -0.0838  2.3565
 1918THY    HM347948   4.937   0.555   3.679 -2.3886  0.8391 -0.5581
 1918THY    CA647949   5.031   0.674   3.969  0.5180  0.6331  0.3196
 1918THY    HA647950   4.975   0.595   4.017  1.3683  0.5522  1.1997
 1919THY      O47951   6.445   1.025   1.596 -0.1437  0.2143  0.0660
 1919THY     HO47952   6.475   0.947   1.545  0.3073  0.6390 -0.3304
 1919THY    CA147953   6.368   0.968   1.692  0.0847  0.4096 -0.2339
 1919THY    CA247954   6.274   1.042   1.775 -0.2461  0.7727 -0.0132
 1919THY    CP147955   6.265   1.190   1.752  0.0508 -0.5136 -0.2656
 1919THY    HP147956   6.257   1.210   1.645 -0.6563  0.4738 -0.0483
 1919THY    CP247957   6.128   1.249   1.810 -0.8395 -0.1346 -0.0603
 1919THY    HP247958   6.045   1.191   1.769 -0.4757 -2.0278  1.7150
 1919THY    HP347959   6.130   1.251   1.920  0.5608  2.3480 -0.0547
 1919THY    HP447960   6.118   1.352   1.774  1.0099  0.2451  0.4129
 1919THY    CP347961   6.375   1.261   1.825 -0.9034 -0.2420 -0.1535
 1919THY    HP547962   6.472   1.234   1.781  0.0489 -0.0522  1.7108
 1919THY    HP647963   6.362   1.369   1.810 -0.3114 -0.0217  0.7968
 1919THY    HP747964   6.376   1.238   1.932  1.2512 -1.0257 -0.2754
 1919THY    CA347965   6.203   0.979   1.873 -0.2552 -0.0230  0.2284
 1919THY    HA347966   6.128   1.025   1.937  1.4728  1.1458  1.5046
 1919THY    CA447967   6.214   0.844   1.879 -0.3930  0.3735 -0.2732
 1919THY    HA447968   6.141   0.797   1.946 -1.0363  0.8214 -0.6518
 1919THY    CA547969   6.325   0.771   1.835  0.6007  0.3409  0.0721
 1919THY    CM147970   6.336   0.627   1.863  0.1348 -0.3286 -0.4594
 1919THY    HM147971   6.268   0.596   1.943 -0.0100  0.2210 -0.3673
 1919THY    HM247972   6.312   0.573   1.771  1.3013  0.8464 -1.5022
 1919THY    HM347973   6.442   0.606   1.883 -0.1712 -1.5366 -0.0819
 1919THY    CA647974   6.398   0.832   1.728  0.3793 -0.2511 -0.6068
 1919THY    HA647975   6.479   0.778   1.681 -0.3420 -2.6453  0.7559
 1920THY      O47976   7.873   1.753   1.307 -0.1245  0.2368 -0.0489
 1920THY     HO47977   7.837   1.758   1.397  0.9215  0.2646  0.3895
 1920THY    CA147978   7.863   1.623   1.266 -0.2275  0.3648 -0.5371
 1920THY    CA247979   7.927   1.574   1.156  0.0102 -0.8094 -0.1673
 1920THY    CP147980   8.021   1.669   1.081 -0.3702 -0.2117  0.4995
 1920THY    HP147981   8.045   1.760   1.137 -2.1602  2.1092 -2.2321
 1920THY    CP247982   8.149   1.588   1.044  0.6235 -0.3816 -0.3193
 1920THY    HP247983   8.137   1.516   0.962 -1.5599 -0.8165  0.3087
 1920THY    HP347984   8.232   1.651   1.011  0.6240  0.9962  2.1404
 1920THY    HP447985   8.186   1.541   1.135 -1.6446 -2.3169 -0.2864
 1920THY    CP347986   7.956   1.723   0.945  0.3808 -0.2494 -0.0320
 1920THY    HP547987   8.013   1.807   0.903  0.5631 -0.9642 -1.2379
 1920THY    HP647988   7.929   1.651   0.867  0.4268 -0.1513 -0.1387
 1920THY    HP747989   7.863   1.775   0.972  0.6472  0.1551  0.1242
 1920THY    CA347990   7.914   1.438   1.121  0.6206 -0.6441  0.0935
 1920THY    HA347991   7.972   1.414   1.032  3.4876  1.2714  1.2783
 1920THY    CA447992   7.844   1.353   1.205  0.2592 -0.4347 -1.1177
 1920THY    HA447993   7.847   1.246   1.188  3.8052 -1.3114  3.3378
 1920THY    CA547994   7.766   1.408   1.311 -0.5598 -0.3746  0.0816
 1920THY    CM147995   7.686   1.315   1.390 -0.8830 -0.1494 -0.2116
 1920THY    HM147996   7.608   1.255   1.340 -1.9929  0.3102  0.9113
 1920THY    HM247997   7.746   1.251   1.456 -1.3524 -0.5714 -0.1826
 1920THY    HM347998   7.619   1.365   1.461  0.1797 -0.1750  0.8494
 1920THY    CA647999   7.792   1.541   1.351 -0.4008 -0.2769  0.1385
 1920THY    HA648000   7.732   1.587   1.429 -1.5711 -3.4065  1.1998
 1921THY      O48001   6.519   5.019   6.088 -0.9199 -0.3437 -0.0310
 1921THY     HO48002   6.588   4.966   6.045  0.7483  0.1666  1.8663
 1921THY    CA148003   6.542   5.004   6.221 -0.4661 -0.3364  0.4948
 1921THY    CA248004   6.455   5.042   6.322  0.2170 -0.3156 -0.5778
 1921THY    CP148005   6.326   5.101   6.275  0.1234 -0.1769 -0.7295
 1921THY    HP148006   6.303   5.065   6.174  1.0278 -0.8584 -0.7129
 1921THY    CP248007   6.208   5.059   6.364  0.6112 -0.4809  0.0944
 1921THY    HP248008   6.202   5.114   6.458  0.2400 -0.1480 -0.1217
 1921THY    HP348009   6.114   5.076   6.311  0.4227  1.4667  0.9615
 1921THY    HP448010   6.212   4.951   6.382  1.5827 -0.4972 -0.1409
 1921THY    CP348011   6.342   5.257   6.269  0.1976  0.0091  1.0235
 1921THY    HP548012   6.407   5.271   6.182 -3.1705 -3.1725 -2.4342
 1921THY    HP648013   6.255   5.318   6.240  0.3995 -0.1928 -0.0603
 1921THY    HP748014   6.384   5.290   6.364  0.3603 -0.7707  1.2341
 1921THY    CA348015   6.490   5.027   6.456  0.1904 -0.4982 -0.3256
 1921THY    HA348016   6.426   5.064   6.536  0.6021 -0.6181  0.0649
 1921THY    CA448017   6.618   4.991   6.493  0.4690  0.6678 -0.0575
 1921THY    HA448018   6.659   4.981   6.593  1.9478  2.0394 -0.4755
 1921THY    CA548019   6.702   4.943   6.394 -0.2162 -0.5437  0.3580
 1921THY    CM148020   6.842   4.906   6.440 -0.0002  0.2786  0.3359
 1921THY    HM148021   6.870   4.963   6.529  0.8654 -1.1311  0.9872
 1921THY    HM248022   6.858   4.803   6.474 -0.9077 -0.1328 -0.4235
 1921THY    HM348023   6.912   4.916   6.357 -1.5576 -1.9269 -1.3653
 1921THY    CA648024   6.668   4.957   6.258  0.3722 -0.2161 -0.2681
 1921THY    HA648025   6.746   4.937   6.185 -0.3810 -0.0708 -1.1294
 1922THY      O48026   2.137   1.211   6.562 -0.1558 -0.0809  0.2450
 1922THY     HO48027   2.108   1.170   6.478  1.5476 -0.9249  0.0188
 1922THY    CA148028   2.026   1.200   6.640 -0.0649 -0.7865  0.2876
 1922THY    CA248029   2.011   1.252   6.772 -0.5116  0.0413  1.4411
 1922THY    CP148030   2.135   1.326   6.832  0.0816 -0.0721 -0.4872
 1922THY    HP148031   2.233   1.297   6.793  2.0120  2.9748  1.6940
 1922THY    CP248032   2.120   1.479   6.800  0.0779  0.0197 -0.0310
 1922THY    HP248033   2.115   1.493   6.692 -0.3376 -1.7055 -0.2698
 1922THY    HP348034   2.037   1.518   6.860  0.5460 -0.2031  0.7773
 1922THY    HP448035   2.210   1.533   6.833 -0.6479  0.7135  0.8417
 1922THY    CP348036   2.142   1.298   6.980  0.6914 -0.0201 -0.8306
 1922THY    HP548037   2.232   1.349   7.018  0.1202  0.3521  0.0522
 1922THY    HP648038   2.060   1.329   7.045  2.1980 -0.0153  1.1586
 1922THY    HP748039   2.152   1.190   6.997  1.7608  0.2975  0.8357
 1922THY    CA348040   1.892   1.219   6.842  0.3963  0.7563 -0.5311
 1922THY    HA348041   1.882   1.255   6.945  0.3660 -0.6274 -0.0294
 1922THY    CA448042   1.797   1.132   6.787  0.2459 -0.1017 -0.2075
 1922THY    HA448043   1.715   1.098   6.850 -1.4456  0.8508 -1.7993
 1922THY    CA548044   1.819   1.086   6.660  1.0424  0.7065  1.1412
 1922THY    CM148045   1.715   0.997   6.599  0.3208  0.2726  0.0356
 1922THY    HM148046   1.633   1.058   6.559 -0.0377 -0.7128 -0.7785
 1922THY    HM248047   1.758   0.944   6.513  0.7245 -0.7229  0.8224
 1922THY    HM348048   1.682   0.928   6.677 -2.4054  1.4571  0.0158
 1922THY    CA648049   1.930   1.119   6.588  0.0665 -0.4147 -0.6582
 1922THY    HA648050   1.951   1.073   6.491  0.9815  0.3870 -0.8519
 1923THY      O48051   4.340   8.047   6.303  0.0147 -0.2501 -0.3436
 1923THY     HO48052   4.251   8.019   6.329 -0.3504  1.2033  0.0760
 1923THY    CA148053   4.417   7.942   6.275 -0.0480  0.1589  0.4614
 1923THY    CA248054   4.528   7.943   6.186 -0.1699 -0.1305 -0.2253
 1923THY    CP148055   4.554   8.083   6.114  1.1197  0.9663 -0.7067
 1923THY    HP148056   4.491   8.158   6.164 -0.9327 -2.0023  1.4708
 1923THY    CP248057   4.705   8.117   6.131  0.4252  0.0475 -0.3876
 1923THY    HP248058   4.726   8.213   6.083 -3.7891  1.5071  0.2022
 1923THY    HP348059   4.727   8.123   6.238  0.1387 -1.7537 -0.2010
 1923THY    HP448060   4.755   8.029   6.089  0.9328  0.2788 -0.2713
 1923THY    CP348061   4.512   8.081   5.969  0.3806  0.5147  0.5127
 1923THY    HP548062   4.597   8.038   5.916 -0.0078  0.8325 -0.3918
 1923THY    HP648063   4.414   8.034   5.957 -0.6622  2.6695  0.0336
 1923THY    HP748064   4.500   8.180   5.923  0.8951 -0.6123 -2.1654
 1923THY    CA348065   4.600   7.826   6.167  0.3204 -0.2461  0.2651
 1923THY    HA348066   4.680   7.820   6.093  0.9097 -0.0257  0.8712
 1923THY    CA448067   4.553   7.707   6.222 -0.1836 -0.7354 -0.4283
 1923THY    HA448068   4.594   7.609   6.200 -0.5865 -1.0733  0.2939
 1923THY    CA548069   4.448   7.703   6.308  0.0164 -0.3070  0.3613
 1923THY    CM148070   4.396   7.572   6.360  0.3600  0.2521  0.2859
 1923THY    HM148071   4.446   7.485   6.315  3.2833  1.4429  1.0003
 1923THY    HM248072   4.413   7.560   6.468  1.7984  0.2728  0.0757
 1923THY    HM348073   4.288   7.570   6.342  0.4387 -1.4757 -0.1423
 1923THY    CA648074   4.381   7.825   6.337 -0.9727  0.1438 -1.0132
 1923THY    HA648075   4.302   7.819   6.411  0.1550 -0.1149  0.2159
 1924THY      O48076   1.446   4.669   9.829 -0.0053 -0.1471 -0.1524
 1924THY     HO48077   1.418   4.671   9.736 -2.0395  0.1259  0.4209
 1924THY    CA148078   1.379   4.772   9.877 -0.0003 -0.8680  0.4024
 1924THY    CA248079   1.327   4.766  10.012 -0.1337  0.3287 -0.4536
 1924THY    CP148080   1.367   4.652  10.112 -0.2150 -0.0834  0.3204
 1924THY    HP148081   1.453   4.596  10.075 -0.0104  0.7519 -0.4993
 1924THY    CP248082   1.415   4.723  10.243 -0.3520 -0.3575  0.5473
 1924THY    HP248083   1.476   4.813  10.229  0.4897 -1.0189 -0.1645
 1924THY    HP348084   1.324   4.736  10.303 -1.5738 -3.2006 -0.5067
 1924THY    HP448085   1.480   4.656  10.300  1.9867  2.4371  1.3731
 1924THY    CP348086   1.247   4.567  10.136  0.0182  0.3787 -0.8609
 1924THY    HP548087   1.267   4.490  10.212 -0.0651  0.6762 -0.5354
 1924THY    HP648088   1.157   4.622  10.165  1.3598  1.8873  0.6630
 1924THY    HP748089   1.212   4.528  10.040 -1.4288  0.3725 -0.3535
 1924THY    CA348090   1.250   4.877  10.056  0.6966  1.0239 -0.7687
 1924THY    HA348091   1.209   4.881  10.157  0.7036  1.8536 -0.7882
 1924THY    CA448092   1.204   4.979   9.967 -0.8974  0.0209 -0.2978
 1924THY    HA448093   1.120   5.043   9.995 -0.1203  1.0911 -0.3671
 1924THY    CA548094   1.264   4.986   9.842  0.1183  0.5412  0.5473
 1924THY    CM148095   1.240   5.104   9.755  0.3065 -0.0914  0.6106
 1924THY    HM148096   1.166   5.092   9.675 -0.3718 -0.6647  1.3053
 1924THY    HM248097   1.207   5.186   9.820 -0.3620  0.0131  0.1490
 1924THY    HM348098   1.334   5.136   9.708  0.1961  0.5093  0.7862
 1924THY    CA648099   1.352   4.885   9.797 -0.0773  0.1314  1.0162
 1924THY    HA648100   1.396   4.898   9.698  2.3878 -3.2883  1.5036
 1925THY      O48101   0.624   3.748   1.690 -0.3608  0.3494 -0.6510
 1925THY     HO48102   0.644   3.827   1.637  3.2997  0.2774  0.3939
 1925THY    CA148103   0.489   3.749   1.716  0.7452  0.0319 -0.0486
 1925THY    CA248104   0.428   3.678   1.818  0.9585 -1.1498 -0.0179
 1925THY    CP148105   0.520   3.603   1.928 -0.5712 -0.2654  0.1884
 1925THY    HP148106   0.623   3.629   1.902 -1.1029  0.6213 -1.1231
 1925THY    CP248107   0.504   3.656   2.070  0.6426 -0.4577  0.3129
 1925THY    HP248108   0.407   3.620   2.106 -0.9216  3.3862  0.4644
 1925THY    HP348109   0.584   3.615   2.133 -0.3229 -0.5260  1.5217
 1925THY    HP448110   0.512   3.765   2.077 -0.2104 -0.4042  0.5201
 1925THY    CP348111   0.505   3.448   1.928 -0.3009 -0.2370 -0.1450
 1925THY    HP548112   0.514   3.416   1.823  0.3678  0.9426 -0.4738
 1925THY    HP648113   0.581   3.393   1.984 -1.0365 -0.3504  0.7559
 1925THY    HP748114   0.407   3.417   1.963 -0.5718  0.8986  0.1538
 1925THY    CA348115   0.288   3.686   1.830 -0.0726  0.8370  0.3737
 1925THY    HA348116   0.239   3.635   1.912 -2.3817  1.2898 -0.6347
 1925THY    CA448117   0.210   3.746   1.731 -0.0032 -0.3853  0.4352
 1925THY    HA448118   0.104   3.748   1.752  0.1817 -0.0642  1.3960
 1925THY    CA548119   0.270   3.814   1.626  0.2523 -1.2165  0.0319
 1925THY    CM148120   0.191   3.889   1.526 -0.5954  0.2734 -0.3599
 1925THY    HM148121   0.230   3.990   1.513  0.5342  0.1722  1.7950
 1925THY    HM248122   0.192   3.840   1.427  2.3391  0.1473 -0.3526
 1925THY    HM348123   0.089   3.895   1.565 -0.7565  0.7094 -0.8375
 1925THY    CA648124   0.407   3.814   1.620 -0.3876 -0.2934  0.2291
 1925THY    HA648125   0.462   3.866   1.543  1.5897 -1.7066  0.5882
 1926THY      O48126   4.877   4.939   1.394  0.3067  0.2475 -0.7050
 1926THY     HO48127   4.842   5.005   1.332 -3.1335 -0.2745  0.4757
 1926THY    CA148128   4.934   4.857   1.314  0.2266 -0.1087  0.0365
 1926THY    CA248129   5.031   4.768   1.351 -0.9173 -0.7037  0.2068
 1926THY    CP148130   5.104   4.767   1.481  0.2454  0.5829 -0.5405
 1926THY    HP148131   5.064   4.850   1.540  0.2024 -1.3082  2.3309
 1926THY    CP248132   5.084   4.635   1.548  0.3453 -0.2227  1.0105
 1926THY    HP248133   5.141   4.644   1.641  1.7530 -0.5660  0.2219
 1926THY    HP348134   4.979   4.606   1.554  0.6645 -1.8283 -0.2923
 1926THY    HP448135   5.135   4.549   1.502 -0.8327  0.1771 -1.1625
 1926THY    CP348136   5.249   4.808   1.475 -0.6057  0.1174  0.0729
 1926THY    HP548137   5.269   4.892   1.407  0.7000  1.4718  2.0361
 1926THY    HP648138   5.285   4.846   1.571  0.1966  2.4940 -1.0888
 1926THY    HP748139   5.312   4.722   1.450  0.3111  1.5530 -3.1734
 1926THY    CA348140   5.082   4.675   1.253 -0.1232  0.0660  0.2182
 1926THY    HA348141   5.153   4.598   1.280  0.8373  1.2513  1.1775
 1926THY    CA448142   5.037   4.685   1.121  0.2503 -0.3573 -0.2226
 1926THY    HA448143   5.082   4.623   1.044  1.6138 -3.1840  2.5936
 1926THY    CA548144   4.948   4.777   1.085  0.4512  0.3154  0.4222
 1926THY    CM148145   4.889   4.786   0.946 -0.1387  0.3526 -0.0882
 1926THY    HM148146   4.781   4.766   0.951 -0.2500  0.7843 -0.6228
 1926THY    HM248147   4.909   4.884   0.900 -2.0283 -0.0822 -2.0375
 1926THY    HM348148   4.925   4.703   0.885 -0.0847  1.5176 -1.7030
 1926THY    CA648149   4.893   4.861   1.181 -0.3726  0.1800 -0.1481
 1926THY    HA648150   4.800   4.915   1.166 -1.0227 -0.0140  2.5175
 1927THY      O48151   2.716   9.827   6.286 -0.4782  0.5103 -0.2824
 1927THY     HO48152   2.762   9.910   6.267 -0.0847  0.4406  0.3571
 1927THY    CA148153   2.596   9.815   6.225  0.2928 -0.8235 -0.8573
 1927THY    CA248154   2.549   9.688   6.175 -0.8112 -0.2013 -0.2362
 1927THY    CP148155   2.640   9.569   6.187 -0.0689  0.3376  0.0052
 1927THY    HP148156   2.720   9.573   6.261  0.4859 -2.9182 -0.2532
 1927THY    CP248157   2.561   9.440   6.214  0.4027 -0.2737  0.0805
 1927THY    HP248158   2.475   9.421   6.148  0.2245 -0.5549  0.3897
 1927THY    HP348159   2.631   9.356   6.228  1.2853  0.4862  0.2895
 1927THY    HP448160   2.516   9.451   6.313  0.1493  1.6326 -0.2071
 1927THY    CP348161   2.719   9.550   6.059 -0.0493 -0.9913  0.5780
 1927THY    HP548162   2.813   9.607   6.064 -0.8328  0.2457  3.0934
 1927THY    HP648163   2.733   9.443   6.040  0.0643 -0.6505 -1.3935
 1927THY    HP748164   2.660   9.580   5.972 -0.1448 -0.4800  0.8125
 1927THY    CA348165   2.439   9.687   6.097 -0.2039  0.3120 -0.1515
 1927THY    HA348166   2.400   9.598   6.050  0.8995 -0.8557  1.0591
 1927THY    CA448167   2.370   9.814   6.083  0.5640 -0.1836  0.3721
 1927THY    HA448168   2.281   9.825   6.020  0.4602  1.5008  0.7729
 1927THY    CA548169   2.413   9.936   6.144  0.4124  0.4555 -0.3826
 1927THY    CM148170   2.338  10.063   6.139  0.0050 -0.5835  0.2847
 1927THY    HM148171   2.236  10.041   6.105 -0.7413  3.0809 -0.2869
 1927THY    HM248172   2.336  10.109   6.239 -1.1078 -0.5012  0.2345
 1927THY    HM348173   2.379  10.141   6.074  0.3742  0.0730  1.2782
 1927THY    CA648174   2.531   9.936   6.221 -0.2112 -0.7860  0.4029
 1927THY    HA648175   2.572  10.021   6.274 -0.9112 -1.0699  1.4282
 1928THY      O48176   1.319   2.151   8.703 -0.1233 -0.0620 -0.0459
 1928THY     HO48177   1.292   2.242   8.680  1.7480  0.3736 -0.7390
 1928THY    CA148178   1.419   2.155   8.792  0.0948  0.0937 -0.1318
 1928THY    CA248179   1.488   2.039   8.835 -0.6228  0.4742  0.2200
 1928THY    CP148180   1.472   1.903   8.761  0.8494 -0.5976 -0.4043
 1928THY    HP148181   1.408   1.915   8.673  1.3013  0.5333 -0.6057
 1928THY    CP248182   1.598   1.848   8.700 -0.6993  0.0947  0.7007
 1928THY    HP248183   1.642   1.784   8.777 -0.2040 -0.4788 -0.0480
 1928THY    HP348184   1.570   1.776   8.622  0.2938  1.1528 -0.6795
 1928THY    HP448185   1.679   1.909   8.658 -0.8610  0.3177  0.7081
 1928THY    CP348186   1.410   1.804   8.863 -0.6729 -1.0933 -0.0487
 1928THY    HP548187   1.325   1.861   8.903  0.5074  2.9400 -2.6498
 1928THY    HP648188   1.380   1.706   8.824  1.0809 -2.3130  1.5031
 1928THY    HP748189   1.476   1.795   8.950  0.2143  1.9531 -0.2565
 1928THY    CA348190   1.579   2.050   8.937 -0.0673 -0.4487  0.1207
 1928THY    HA348191   1.632   1.958   8.959  0.8923 -0.2569 -1.2357
 1928THY    CA448192   1.598   2.169   9.013 -0.1755  0.3145  0.3019
 1928THY    HA448193   1.664   2.174   9.099  2.5327 -1.3016 -1.5140
 1928THY    CA548194   1.515   2.276   8.980  0.3000 -0.2968 -0.0776
 1928THY    CM148195   1.528   2.407   9.061  0.0523  0.1810 -0.1522
 1928THY    HM148196   1.632   2.437   9.076 -0.1534  0.4230  0.9072
 1928THY    HM248197   1.482   2.490   9.005  0.6700  0.6011 -0.0475
 1928THY    HM348198   1.482   2.390   9.159 -1.2916 -0.3856 -0.8485
 1928THY    CA648199   1.426   2.271   8.870  0.1830  0.4449 -0.5055
 1928THY    HA648200   1.361   2.356   8.854 -0.7277  0.4854  2.7029
 1929THY      O48201   4.652   5.003   2.233  0.2556  0.1679 -0.1413
 1929THY     HO48202   4.623   5.043   2.149  0.0746  0.2602 -0.0329
 1929THY    CA148203   4.764   5.069   2.270  0.4281 -0.4437  0.8711
 1929THY    CA248204   4.836   5.024   2.376 -0.1092  0.1207 -0.1433
 1929THY    CP148205   4.822   4.888   2.438  0.1715  0.4824 -0.1854
 1929THY    HP148206   4.741   4.849   2.375 -1.0096  2.0170  0.3234
 1929THY    CP248207   4.951   4.807   2.420 -0.2414 -0.0789  0.0416
 1929THY    HP248208   4.940   4.704   2.455  0.5476 -0.3942 -0.6093
 1929THY    HP348209   4.978   4.803   2.314  1.4508 -1.1120  0.4683
 1929THY    HP448210   5.037   4.849   2.473 -0.9933  0.5904  0.7629
 1929THY    CP348211   4.780   4.885   2.585 -0.1510 -0.5493  0.2378
 1929THY    HP548212   4.679   4.924   2.603  0.9823  2.2331  1.1978
 1929THY    HP648213   4.793   4.782   2.620 -0.3425  0.2136  2.8111
 1929THY    HP748214   4.855   4.939   2.644 -0.3403 -0.4350  0.3782
 1929THY    CA348215   4.955   5.101   2.411 -0.5121  0.1897  0.5717
 1929THY    HA348216   5.038   5.070   2.474  0.1027  0.2752 -0.1746
 1929THY    CA448217   4.980   5.221   2.343  1.1208  0.8634  0.3422
 1929THY    HA448218   5.066   5.278   2.378  2.4645 -1.9273  1.9281
 1929THY    CA548219   4.892   5.281   2.257  0.1616  0.6546 -0.8437
 1929THY    CM148220   4.926   5.420   2.195 -0.0556  0.6312  0.0364
 1929THY    HM148221   4.862   5.492   2.248 -0.7838 -0.7611  1.1444
 1929THY    HM248222   5.031   5.449   2.203  0.2900 -0.3718 -0.6215
 1929THY    HM348223   4.897   5.428   2.090 -1.7613  4.5515  0.6104
 1929THY    CA648224   4.783   5.200   2.219  0.6522 -0.0873 -0.1751
 1929THY    HA648225   4.720   5.241   2.141  0.2371  0.9556  0.6810
 1930THY      O48226   9.754   8.216   3.505  0.0263  0.2736 -0.5091
 1930THY     HO48227   9.762   8.312   3.509  0.4796  0.2236 -0.0475
 1930THY    CA148228   9.863   8.172   3.576  1.0531 -0.5386 -0.2914
 1930THY    CA248229   9.891   8.033   3.598 -0.2845 -0.4056  0.6051
 1930THY    CP148230   9.793   7.928   3.542  0.7946 -1.2536 -0.1402
 1930THY    HP148231   9.729   7.972   3.464  1.3679 -1.8090 -0.9368
 1930THY    CP248232   9.869   7.822   3.463  0.1789 -0.3154  0.5012
 1930THY    HP248233   9.796   7.773   3.397  1.0318 -3.3662  1.6398
 1930THY    HP348234   9.946   7.872   3.403 -0.9176 -0.3885 -1.0417
 1930THY    HP448235   9.908   7.740   3.525  1.2959  0.8029  1.3337
 1930THY    CP348236   9.705   7.865   3.639  0.4285  1.4672 -0.3909
 1930THY    HP548237   9.639   7.797   3.585 -1.1576  1.4399  1.4780
 1930THY    HP648238   9.760   7.809   3.715 -0.2208  0.7894 -0.4073
 1930THY    HP748239   9.638   7.943   3.678 -0.9725 -0.5913  1.5244
 1930THY    CA348240  10.007   7.993   3.673  0.0389 -0.1615 -0.1380
 1930THY    HA348241  10.031   7.888   3.692  0.8239 -0.1630 -1.0150
 1930THY    CA448242  10.090   8.090   3.738 -0.3147 -0.5897  0.2034
 1930THY    HA448243  10.177   8.071   3.800  1.2949  1.9096 -1.1509
 1930THY    CA548244  10.060   8.228   3.715  0.3976  0.2210  0.1242
 1930THY    CM148245  10.150   8.324   3.786  0.7605 -0.6076  0.0841
 1930THY    HM148246  10.235   8.274   3.834 -0.7154 -2.7063  0.6719
 1930THY    HM248247  10.175   8.407   3.719 -1.3393  0.2080  0.2240
 1930THY    HM348248  10.101   8.370   3.873 -3.1509 -1.4667 -1.4301
 1930THY    CA648249   9.947   8.267   3.642  0.3858 -0.6011  0.1295
 1930THY    HA648250   9.924   8.373   3.631  1.4742 -0.3025  0.5496
 1931THY      O48251   1.356   6.796   1.420 -0.2427 -0.3612  0.1392
 1931THY     HO48252   1.374   6.742   1.499 -0.8241 -0.5200  0.1749
 1931THY    CA148253   1.397   6.922   1.449  0.7921  0.4394  0.1228
 1931THY    CA248254   1.463   7.013   1.368  0.4399  0.7356  0.2505
 1931THY    CP148255   1.489   6.957   1.225 -0.4565 -0.3055  0.0394
 1931THY    HP148256   1.492   6.848   1.225 -1.6305 -0.3516  0.8210
 1931THY    CP248257   1.375   7.014   1.133 -1.3289  0.3055  0.2960
 1931THY    HP248258   1.371   7.122   1.152  0.1505  0.5144 -0.4101
 1931THY    HP348259   1.403   7.002   1.027 -0.1789  0.5440  0.5516
 1931THY    HP448260   1.287   6.957   1.166 -0.8543 -0.0977  0.8931
 1931THY    CP348261   1.623   7.010   1.161 -0.1091  0.6668 -0.2416
 1931THY    HP548262   1.710   6.982   1.222 -0.1769 -1.1527 -0.9106
 1931THY    HP648263   1.640   6.971   1.060 -1.1018  0.1794 -0.2325
 1931THY    HP748264   1.623   7.119   1.160 -1.1658  0.6747 -0.6180
 1931THY    CA348265   1.508   7.137   1.418 -0.3937  0.1735 -0.0472
 1931THY    HA348266   1.565   7.210   1.361 -0.0078 -1.6283 -2.0915
 1931THY    CA448267   1.474   7.178   1.550  0.3131 -0.3402 -0.0025
 1931THY    HA448268   1.505   7.275   1.586 -1.4017  0.2696 -0.0933
 1931THY    CA548269   1.404   7.084   1.631  0.0242 -0.3986  0.3798
 1931THY    CM148270   1.368   7.127   1.769  0.0830  0.8111 -0.1462
 1931THY    HM148271   1.357   7.236   1.777  1.8160  1.0334 -0.4032
 1931THY    HM248272   1.288   7.066   1.812  1.4220 -0.3841  0.7280
 1931THY    HM348273   1.454   7.098   1.830  0.3883  0.7367 -0.6104
 1931THY    CA648274   1.363   6.959   1.579 -0.6391  0.5349 -0.1055
 1931THY    HA648275   1.310   6.887   1.641 -0.7371 -0.0602 -0.8686
 1932THY      O48276   0.144   8.872   2.614  0.3888  0.7886 -0.0975
 1932THY     HO48277   0.050   8.860   2.593 -0.3238  3.3943  1.1279
 1932THY    CA148278   0.211   8.773   2.549 -0.2681 -0.6031 -0.7629
 1932THY    CA248279   0.294   8.672   2.612  1.0274  0.6564 -0.2949
 1932THY    CP148280   0.303   8.658   2.767  0.6253  0.0136 -0.2433
 1932THY    HP148281   0.221   8.714   2.813  0.6943  0.3805 -0.5609
 1932THY    CP248282   0.289   8.510   2.826 -0.1471  0.3721  0.4087
 1932THY    HP248283   0.190   8.477   2.791 -0.2853  2.4670 -1.4714
 1932THY    HP348284   0.358   8.443   2.774 -1.1197 -0.5418  0.2609
 1932THY    HP448285   0.303   8.512   2.934 -0.7821 -1.9922  0.5887
 1932THY    CP348286   0.429   8.734   2.806 -0.5236 -0.8400 -0.3696
 1932THY    HP548287   0.520   8.704   2.754 -0.8593 -0.3361 -1.2553
 1932THY    HP648288   0.417   8.841   2.786 -1.1020 -0.6900  0.6679
 1932THY    HP748289   0.447   8.728   2.914  0.1922 -0.0638 -0.4391
 1932THY    CA348290   0.352   8.577   2.529 -0.1070  0.2706 -0.4821
 1932THY    HA348291   0.416   8.500   2.572  1.5313  1.6583 -0.3621
 1932THY    CA448292   0.340   8.592   2.392  0.1208  0.7193 -0.0190
 1932THY    HA448293   0.397   8.523   2.331 -0.3887 -1.1372  1.5435
 1932THY    CA548294   0.272   8.693   2.329 -0.0026 -0.2248 -0.0220
 1932THY    CM148295   0.260   8.700   2.182 -0.3484  0.1016 -0.0720
 1932THY    HM148296   0.362   8.693   2.142 -0.8770 -1.9369 -1.2250
 1932THY    HM248297   0.195   8.629   2.129  1.3531 -0.9958 -0.8116
 1932THY    HM348298   0.223   8.797   2.147  0.6287  0.3585 -0.4208
 1932THY    CA648299   0.210   8.785   2.412  0.5769  0.0401 -0.0035
 1932THY    HA648300   0.165   8.876   2.372  2.7298  2.1717  2.0872
 1933THY      O48301   9.377   1.073   9.299 -0.1569 -0.4577 -0.5846
 1933THY     HO48302   9.343   1.017   9.227 -2.3227  0.0477 -0.0511
 1933THY    CA148303   9.278   1.145   9.358  0.1624  0.3776 -0.2584
 1933THY    CA248304   9.297   1.219   9.482  0.6162  0.6730  0.2748
 1933THY    CP148305   9.427   1.207   9.561 -0.0029  0.1064 -0.1494
 1933THY    HP148306   9.497   1.162   9.489 -0.9472 -1.4176 -0.1494
 1933THY    CP248307   9.497   1.344   9.592 -0.2514 -0.1880 -0.1763
 1933THY    HP248308   9.511   1.406   9.503 -2.5934  0.7580  0.0519
 1933THY    HP348309   9.434   1.404   9.659  1.0782  0.9169  0.1521
 1933THY    HP448310   9.592   1.320   9.642 -0.3040  0.9465  0.5116
 1933THY    CP348311   9.432   1.107   9.675  0.1773 -0.2534  0.2145
 1933THY    HP548312   9.413   1.004   9.643  3.5472 -2.3115  3.9237
 1933THY    HP648313   9.534   1.096   9.714 -0.0330  0.6032  1.0640
 1933THY    HP748314   9.364   1.139   9.756 -1.7364  0.2460 -1.5062
 1933THY    CA348315   9.203   1.307   9.519 -0.1992  0.6671  0.3852
 1933THY    HA348316   9.228   1.354   9.613  2.4385 -1.7761  1.0769
 1933THY    CA448317   9.089   1.330   9.434 -0.4775  0.6699 -0.3919
 1933THY    HA448318   9.025   1.413   9.463 -0.9896  0.4621 -0.9235
 1933THY    CA548319   9.068   1.254   9.320  0.1479  0.1266  0.6864
 1933THY    CM148320   8.960   1.284   9.219  0.1710  0.0599  0.2334
 1933THY    HM148321   8.868   1.226   9.230 -0.0022  0.0435 -1.1449
 1933THY    HM248322   8.926   1.388   9.222 -1.7356 -0.5534  1.5741
 1933THY    HM348323   8.996   1.257   9.119  2.4447 -0.0213  1.0269
 1933THY    CA648324   9.167   1.157   9.285  0.7691 -0.4539  0.3831
 1933THY    HA648325   9.162   1.107   9.188  1.2550 -0.3422  0.2961
 1934THY      O48326   9.134   3.516   0.362 -0.1574  0.5061  0.3090
 1934THY     HO48327   9.152   3.420   0.362  1.1854  0.6011 -3.1124
 1934THY    CA148328   9.156   3.541   0.235 -0.1656 -0.1323 -1.3432
 1934THY    CA248329   9.224   3.651   0.187  0.5340  0.4745  0.0944
 1934THY    CP148330   9.261   3.767   0.271 -0.6658 -0.2699  0.5367
 1934THY    HP148331   9.200   3.758   0.361 -1.2589  0.3782  0.2065
 1934THY    CP248332   9.406   3.741   0.320  0.1045  0.7310 -0.5260
 1934THY    HP248333   9.478   3.743   0.238 -1.1416  0.9013 -1.6533
 1934THY    HP348334   9.444   3.806   0.400  1.0208 -0.6558  0.1998
 1934THY    HP448335   9.401   3.638   0.357  2.0390  1.4963  2.1425
 1934THY    CP348336   9.251   3.913   0.217 -0.6510 -0.5105  0.3029
 1934THY    HP548337   9.312   3.926   0.127  1.7138  2.0907  2.1186
 1934THY    HP648338   9.148   3.926   0.182  0.6027  0.4567 -3.5385
 1934THY    HP748339   9.294   3.984   0.290  2.0225 -0.3854 -1.2772
 1934THY    CA348340   9.265   3.650   0.050 -0.1657 -0.6111 -0.0860
 1934THY    HA348341   9.328   3.728   0.008 -1.4895  1.0374  0.8823
 1934THY    CA448342   9.220   3.550  -0.033 -0.2902 -0.4255  0.1384
 1934THY    HA448343   9.239   3.552  -0.140 -3.2666 -2.1313 -0.5365
 1934THY    CA548344   9.145   3.441   0.015 -1.3195 -0.2515 -0.2148
 1934THY    CM148345   9.097   3.337  -0.078 -0.3286  0.4645 -0.0876
 1934THY    HM148346   9.141   3.241  -0.049 -0.3604  0.5767  0.3272
 1934THY    HM248347   8.988   3.331  -0.073 -0.2166 -0.6277  2.3494
 1934THY    HM348348   9.137   3.356  -0.179  3.0647 -0.6285  0.9150
 1934THY    CA648349   9.118   3.437   0.154 -0.2866  0.0250 -0.1250
 1934THY    HA648350   9.061   3.350   0.185 -1.4218  0.6296 -0.4545
 1935THY      O48351   1.079   0.856   8.152  0.1852  0.0120 -0.3957
 1935THY     HO48352   1.105   0.885   8.241 -1.6353  0.1733  0.1233
 1935THY    CA148353   1.093   0.722   8.165 -0.3096 -0.4865  0.1414
 1935THY    CA248354   1.131   0.643   8.060  0.8403  0.0794  0.7258
 1935THY    CP148355   1.141   0.702   7.914 -0.6273  0.1980 -0.0575
 1935THY    HP148356   1.113   0.807   7.905  2.0466  0.8786 -1.6610
 1935THY    CP248357   1.282   0.688   7.862  0.1555 -0.4603 -0.1276
 1935THY    HP248358   1.316   0.586   7.883 -0.8875 -0.6764  0.6112
 1935THY    HP348359   1.282   0.707   7.754  1.9711  0.4410 -0.0117
 1935THY    HP448360   1.345   0.759   7.917 -1.3868  1.6888 -0.9766
 1935THY    CP348361   1.041   0.633   7.825 -0.8096 -0.4294  1.0511
 1935THY    HP548362   1.040   0.693   7.733 -1.8518  0.3361  1.5300
 1935THY    HP648363   1.075   0.531   7.807  0.4648  0.1546 -0.0480
 1935THY    HP748364   0.941   0.624   7.869 -1.9491 -1.7126 -1.6192
 1935THY    CA348365   1.163   0.509   8.075  0.0359 -0.4570 -0.2628
 1935THY    HA348366   1.180   0.442   7.991 -0.4729 -0.1209 -0.6392
 1935THY    CA448367   1.146   0.447   8.205  0.1545 -0.2526 -0.0272
 1935THY    HA448368   1.151   0.339   8.218  1.9920 -0.2030 -0.0601
 1935THY    CA548369   1.110   0.533   8.315  0.3560 -0.1950  0.3336
 1935THY    CM148370   1.094   0.479   8.460 -0.1307 -0.4143 -0.0217
 1935THY    HM148371   0.996   0.510   8.498 -1.0828 -1.8145 -1.2250
 1935THY    HM248372   1.102   0.369   8.454 -0.5332 -0.3874 -1.5753
 1935THY    HM348373   1.180   0.519   8.515 -0.9056  0.0090  0.9043
 1935THY    CA648374   1.078   0.671   8.291 -0.7743 -0.2919 -0.2321
 1935THY    HA648375   1.063   0.736   8.377  1.5896  0.0522 -0.0195
 1936THY      O48376   8.876   2.446   4.277 -0.0640 -1.0256  0.0571
 1936THY     HO48377   8.907   2.499   4.202 -1.3315 -0.9904 -0.4671
 1936THY    CA148378   8.784   2.514   4.343  0.2350 -0.2766 -0.2950
 1936THY    CA248379   8.771   2.500   4.482  0.2757 -0.7594 -0.1653
 1936THY    CP148380   8.833   2.384   4.572 -0.0949 -0.3531  0.0793
 1936THY    HP148381   8.897   2.320   4.510  0.7082  1.4187 -0.9940
 1936THY    CP248382   8.936   2.446   4.672  0.5156  0.3779 -0.7325
 1936THY    HP248383   8.887   2.483   4.763  1.2115 -0.8627  0.1700
 1936THY    HP348384   9.000   2.366   4.709 -2.4755 -2.0282 -0.3716
 1936THY    HP448385   8.989   2.521   4.612 -0.3721  1.2795 -0.4377
 1936THY    CP348386   8.722   2.307   4.647 -0.0675  0.0805  0.2597
 1936THY    HP548387   8.642   2.278   4.577  0.3613 -1.3046  0.3248
 1936THY    HP648388   8.773   2.220   4.690 -0.3951 -0.8964 -1.2211
 1936THY    HP748389   8.668   2.367   4.721 -1.4375 -0.5938 -0.1541
 1936THY    CA348390   8.692   2.601   4.544  0.4982 -0.6416 -0.3673
 1936THY    HA348391   8.677   2.616   4.650  0.7622  0.5627 -0.4903
 1936THY    CA448392   8.616   2.696   4.462  0.3818  1.1997 -0.8983
 1936THY    HA448393   8.544   2.751   4.522  0.6072 -0.0794  0.6268
 1936THY    CA548394   8.621   2.691   4.325  0.7035 -0.2344 -0.0862
 1936THY    CM148395   8.544   2.780   4.235 -0.2358 -0.4331  0.0855
 1936THY    HM148396   8.531   2.719   4.145  0.6009 -2.0991  1.0440
 1936THY    HM248397   8.450   2.815   4.278  0.5350  1.5859  0.2457
 1936THY    HM348398   8.593   2.876   4.216 -1.1290 -0.0826 -0.4898
 1936THY    CA648399   8.714   2.609   4.268  0.1255  0.3281 -0.5854
 1936THY    HA648400   8.724   2.614   4.160 -1.2686  1.6132 -0.6786
 1937THY      O48401   1.641   7.786   4.573 -0.7600 -0.2999  0.2431
 1937THY     HO48402   1.729   7.776   4.614  0.2158 -1.0709 -1.8764
 1937THY    CA148403   1.598   7.908   4.586 -0.3246  0.6899 -0.1037
 1937THY    CA248404   1.461   7.940   4.589 -0.0846 -0.1142  0.0214
 1937THY    CP148405   1.361   7.821   4.586  0.2535 -0.2076 -0.6652
 1937THY    HP148406   1.398   7.718   4.587 -1.2860 -0.7970 -0.6271
 1937THY    CP248407   1.269   7.819   4.709  0.8979 -0.1661 -0.2119
 1937THY    HP248408   1.193   7.740   4.718  0.0503  0.6896  0.3724
 1937THY    HP348409   1.318   7.825   4.806  0.8361 -0.2656 -0.1746
 1937THY    HP448410   1.213   7.913   4.706 -0.7853 -1.1125  0.3076
 1937THY    CP348411   1.271   7.827   4.460  0.7829 -0.0440  0.6765
 1937THY    HP548412   1.209   7.917   4.459  0.0016 -0.5755  0.2596
 1937THY    HP648413   1.325   7.819   4.365  0.2937 -0.2238  0.4069
 1937THY    HP748414   1.197   7.746   4.457  1.6246 -0.8152 -2.3447
 1937THY    CA348415   1.427   8.079   4.575  0.5393  0.0853 -0.5770
 1937THY    HA348416   1.324   8.111   4.564  0.8159  0.8317 -1.1194
 1937THY    CA448417   1.522   8.175   4.576  0.5250  0.1039  0.1079
 1937THY    HA448418   1.488   8.278   4.574 -0.7923 -0.3090 -1.7835
 1937THY    CA548419   1.659   8.143   4.576  0.2033  0.2408 -0.0308
 1937THY    CM148420   1.761   8.265   4.570  0.1870  0.0922 -0.0019
 1937THY    HM148421   1.712   8.363   4.583 -0.6481 -0.2782 -0.2490
 1937THY    HM248422   1.843   8.246   4.640  0.9848 -1.9088 -1.4002
 1937THY    HM348423   1.811   8.267   4.473  1.1446 -0.9087  0.4557
 1937THY    CA648424   1.693   8.005   4.584 -0.2471  0.0525  0.0148
 1937THY    HA648425   1.797   7.977   4.587 -0.0483  0.3388 -2.1608
 1938THY      O48426   6.231   3.131   3.961  0.8831 -0.5125 -0.0384
 1938THY     HO48427   6.177   3.209   3.984  2.8537  0.8189  0.4339
 1938THY    CA148428   6.289   3.176   3.848 -1.5601 -0.1318 -0.7299
 1938THY    CA248429   6.364   3.088   3.771 -0.0068 -0.3686 -0.8034
 1938THY    CP148430   6.383   2.941   3.808  0.3539 -0.1958  0.3042
 1938THY    HP148431   6.334   2.905   3.899 -0.4019 -0.2993 -0.1357
 1938THY    CP248432   6.344   2.850   3.684  0.2218 -0.6308  0.4688
 1938THY    HP248433   6.415   2.847   3.601 -1.6134 -0.3266 -1.1822
 1938THY    HP348434   6.304   2.750   3.705  0.5928 -0.5556  1.5751
 1938THY    HP448435   6.264   2.903   3.631  1.4806 -0.0061 -0.8734
 1938THY    CP348436   6.526   2.915   3.842 -0.0505  0.3707 -0.2566
 1938THY    HP548437   6.543   2.811   3.874  3.5309  0.8474 -0.1133
 1938THY    HP648438   6.578   2.923   3.746 -1.4535 -0.8394 -1.1612
 1938THY    HP748439   6.569   2.976   3.922 -0.9065  1.5469 -0.6794
 1938THY    CA348440   6.432   3.136   3.656 -0.7246 -0.8180  0.1833
 1938THY    HA348441   6.493   3.071   3.595  0.1925 -0.5446  0.7789
 1938THY    CA448442   6.425   3.275   3.631 -0.3521 -0.1662 -0.1280
 1938THY    HA448443   6.481   3.322   3.551 -0.8899  1.0025  0.1659
 1938THY    CA548444   6.348   3.365   3.714 -0.0194  0.6077 -0.0142
 1938THY    CM148445   6.348   3.509   3.682  0.1237 -0.3284 -0.3708
 1938THY    HM148446   6.290   3.567   3.755 -1.7734 -0.1281 -1.9570
 1938THY    HM248447   6.448   3.549   3.665  0.2248 -0.3547  0.1447
 1938THY    HM348448   6.288   3.513   3.591 -0.0602  0.0423 -0.2363
 1938THY    CA648449   6.284   3.316   3.825 -0.6138 -0.1802  0.0547
 1938THY    HA648450   6.232   3.382   3.894  0.3575 -0.7183  1.3419
 1939THY      O48451   2.800   8.117   4.395 -0.0326 -0.2905 -0.2501
 1939THY     HO48452   2.760   8.089   4.311 -0.8139  0.8219 -0.2812
 1939THY    CA148453   2.885   8.203   4.345 -0.1107 -0.4132 -0.1496
 1939THY    CA248454   3.015   8.226   4.393  0.1165  0.1731 -0.2548
 1939THY    CP148455   3.069   8.162   4.512 -0.1858  0.2828  0.0630
 1939THY    HP148456   2.988   8.149   4.586 -1.4524 -0.5771 -1.4206
 1939THY    CP248457   3.111   8.016   4.482 -0.1854 -0.6100  0.2906
 1939THY    HP248458   3.129   7.951   4.568  3.8917 -1.1341 -0.7711
 1939THY    HP348459   3.042   7.967   4.413 -0.9433  1.0007 -0.1687
 1939THY    HP448460   3.204   8.015   4.425  0.3502 -1.3341  1.1652
 1939THY    CP348461   3.185   8.237   4.578 -0.8838 -0.3676 -0.1955
 1939THY    HP548462   3.145   8.339   4.589 -0.7070 -0.5151  2.4934
 1939THY    HP648463   3.210   8.191   4.674 -2.5424  0.5486  0.7212
 1939THY    HP748464   3.274   8.224   4.515  1.1846  0.8618  2.2679
 1939THY    CA348465   3.092   8.315   4.315 -0.1130 -0.1130 -0.6040
 1939THY    HA348466   3.188   8.341   4.357 -0.8440 -0.0718  1.1194
 1939THY    CA448467   3.055   8.367   4.197  0.6040 -0.4556  0.1850
 1939THY    HA448468   3.121   8.425   4.134  0.2082 -0.9497 -0.7107
 1939THY    CA548469   2.921   8.349   4.147 -0.1590  0.4220  0.0113
 1939THY    CM148470   2.878   8.414   4.024 -0.4245 -0.0822  0.9121
 1939THY    HM148471   2.838   8.338   3.957 -0.6044  2.0451 -1.5170
 1939THY    HM248472   2.795   8.483   4.043  1.2507  1.3308  3.8293
 1939THY    HM348473   2.953   8.457   3.957 -1.6670 -0.5014 -0.7974
 1939THY    CA648474   2.838   8.282   4.231  0.1214  1.3429 -0.3845
 1939THY    HA648475   2.732   8.272   4.207  0.3339 -1.3177 -0.4904
 1940THY      O48476   0.950   3.293   4.276 -0.1061 -0.0620  0.5210
 1940THY     HO48477   1.014   3.358   4.306 -0.0675 -0.2555  0.8593
 1940THY    CA148478   0.826   3.339   4.246  0.3832 -0.0009 -0.7951
 1940THY    CA248479   0.715   3.250   4.227  0.5154  0.1537  0.2597
 1940THY    CP148480   0.736   3.099   4.247 -0.3558  0.3445  0.1730
 1940THY    HP148481   0.815   3.076   4.320  1.7329  0.5161 -1.9086
 1940THY    CP248482   0.604   3.037   4.299  0.1799 -0.2128 -0.4942
 1940THY    HP248483   0.623   2.934   4.331  1.8601  0.3558  0.4675
 1940THY    HP348484   0.558   3.086   4.386 -1.0646  0.2962 -1.4076
 1940THY    HP448485   0.525   3.031   4.223 -0.1655 -0.5471 -0.1090
 1940THY    CP348486   0.786   3.035   4.114  0.0929 -0.0089  0.5312
 1940THY    HP548487   0.828   2.934   4.131  2.2269  1.0794  2.3280
 1940THY    HP648488   0.712   3.030   4.034 -1.1253 -3.3456  1.6994
 1940THY    HP748489   0.870   3.095   4.075 -0.4742 -0.6337 -1.8009
 1940THY    CA348490   0.593   3.309   4.185 -0.6505 -0.0438  0.0323
 1940THY    HA348491   0.512   3.241   4.159 -0.4119 -1.0862  1.8462
 1940THY    CA448492   0.582   3.449   4.169  0.4533 -0.2619 -0.0230
 1940THY    HA448493   0.488   3.492   4.136  0.3474 -0.9723 -0.6757
 1940THY    CA548494   0.689   3.529   4.196 -0.7629 -0.2254 -0.0682
 1940THY    CM148495   0.683   3.687   4.187 -0.3083  0.1258 -0.4179
 1940THY    HM148496   0.679   3.721   4.291 -1.6962  0.9494 -0.7058
 1940THY    HM248497   0.767   3.731   4.131 -0.9688  1.4679 -0.4067
 1940THY    HM348498   0.591   3.720   4.138 -1.4561 -0.7210  1.0839
 1940THY    CA648499   0.811   3.474   4.234  0.2861 -0.0132  0.5584
 1940THY    HA648500   0.900   3.535   4.251 -0.1377  0.7589  0.0534
 1941THY      O48501   9.259   6.650   2.458 -0.3771  0.5259 -0.0075
 1941THY     HO48502   9.238   6.627   2.366 -3.9197 -2.2159  1.2133
 1941THY    CA148503   9.193   6.565   2.541  0.8245 -0.3871  0.2037
 1941THY    CA248504   9.165   6.612   2.675  0.3086 -0.1327  0.0499
 1941THY    CP148505   9.215   6.747   2.717 -0.0425 -0.1113  0.2755
 1941THY    HP148506   9.314   6.770   2.678 -0.5629  1.1253 -0.3781
 1941THY    CP248507   9.107   6.846   2.662 -0.2258 -0.7622  0.4257
 1941THY    HP248508   9.081   6.828   2.557 -0.7764 -0.0761  0.4392
 1941THY    HP348509   9.012   6.843   2.716 -1.3923 -2.3054 -1.5763
 1941THY    HP448510   9.154   6.946   2.660 -0.7769 -0.5025 -0.7884
 1941THY    CP348511   9.206   6.774   2.863  0.0861 -0.0504 -0.2701
 1941THY    HP548512   9.259   6.869   2.876 -1.4219  0.8948 -0.6599
 1941THY    HP648513   9.104   6.786   2.903  1.0539 -2.0947  3.1607
 1941THY    HP748514   9.250   6.684   2.907 -1.4670 -1.2710 -1.1113
 1941THY    CA348515   9.079   6.536   2.755 -0.3419 -0.2154 -1.0597
 1941THY    HA348516   9.041   6.570   2.851 -0.5512 -2.5011 -0.2647
 1941THY    CA448517   9.048   6.404   2.709  0.1093 -0.5063  0.0493
 1941THY    HA448518   9.000   6.336   2.779  2.8651 -2.3503  0.3310
 1941THY    CA548519   9.083   6.357   2.584  0.1168 -0.5597 -0.7596
 1941THY    CM148520   9.032   6.227   2.540  0.7888  0.2093  0.3980
 1941THY    HM148521   9.114   6.160   2.513  0.0456 -1.0747  1.2344
 1941THY    HM248522   8.972   6.177   2.616 -0.3291  2.6831  1.2454
 1941THY    HM348523   8.970   6.237   2.451  3.1953 -0.8415 -1.5267
 1941THY    CA648524   9.144   6.445   2.491 -0.0911  0.4716  0.3850
 1941THY    HA648525   9.158   6.403   2.392  1.5428 -0.3156  0.9150
 1942THY      O48526   4.455   1.383   0.882 -0.5188 -0.2609 -0.2666
 1942THY     HO48527   4.484   1.394   0.975 -0.6852  0.0269 -0.2492
 1942THY    CA148528   4.426   1.248   0.883 -0.6140 -0.2486  0.0776
 1942THY    CA248529   4.438   1.166   0.770 -0.1310 -0.2183 -0.1885
 1942THY    CP148530   4.455   1.221   0.636  0.2355  0.0987 -0.2034
 1942THY    HP148531   4.435   1.328   0.621 -1.6343 -0.5112 -2.6890
 1942THY    CP248532   4.590   1.204   0.582  0.0447  0.8009 -0.6858
 1942THY    HP248533   4.615   1.100   0.558 -0.5679  1.0368 -2.5285
 1942THY    HP348534   4.593   1.254   0.484  0.0422  0.2101 -0.9930
 1942THY    HP448535   4.662   1.246   0.653 -0.1286 -0.5701  0.3337
 1942THY    CP348536   4.346   1.170   0.537 -0.0841  0.0684  0.0498
 1942THY    HP548537   4.344   1.230   0.445  0.2905 -1.0300 -0.7024
 1942THY    HP648538   4.345   1.063   0.513  0.1824  0.2279 -0.7260
 1942THY    HP748539   4.254   1.183   0.596  0.3754  2.1425  0.3858
 1942THY    CA348540   4.430   1.023   0.780 -0.1467 -0.3787  0.0085
 1942THY    HA348541   4.433   0.953   0.697 -0.9704 -0.8977  0.3980
 1942THY    CA448542   4.413   0.968   0.909  0.7439  0.0094  0.2044
 1942THY    HA448543   4.394   0.862   0.925  0.2752  0.2638  1.5131
 1942THY    CA548544   4.408   1.049   1.027 -0.2284  0.0609  0.9989
 1942THY    CM148545   4.386   0.992   1.165  0.4660  0.2905  0.2593
 1942THY    HM148546   4.474   1.014   1.227  0.9396 -1.8897  0.4177
 1942THY    HM248547   4.291   1.028   1.205 -0.7727  1.1180 -3.0652
 1942THY    HM348548   4.374   0.884   1.162  0.7671  0.2645 -0.2402
 1942THY    CA648549   4.414   1.190   1.009 -0.7161  0.4845  0.4498
 1942THY    HA648550   4.411   1.252   1.098  0.2348 -1.5046  1.9571
 1943THY      O48551   2.250   9.810   4.601 -0.6003  0.4857 -0.1949
 1943THY     HO48552   2.221   9.810   4.694 -2.0687 -2.4774 -0.5207
 1943THY    CA148553   2.140   9.820   4.532 -0.0594  0.0971 -0.0210
 1943THY    CA248554   2.140   9.916   4.427 -0.5611 -0.6674 -0.3224
 1943THY    CP148555   2.251  10.014   4.396 -0.6094  0.8692 -0.1094
 1943THY    HP148556   2.344   9.992   4.451  0.2144 -1.3275 -2.2476
 1943THY    CP248557   2.304  10.002   4.254  0.3823  0.6379  0.3511
 1943THY    HP248558   2.317   9.896   4.231 -0.4653  0.6850 -0.4348
 1943THY    HP348559   2.238  10.052   4.181 -0.0210 -1.4945 -0.8244
 1943THY    HP448560   2.400  10.053   4.247  0.1999  1.0868  1.0735
 1943THY    CP348561   2.217  10.155   4.438 -0.1277 -0.2736 -0.4308
 1943THY    HP548562   2.207  10.161   4.547 -4.5793  1.5142 -0.7438
 1943THY    HP648563   2.300  10.219   4.405 -0.7093  0.4310 -0.5547
 1943THY    HP748564   2.122  10.187   4.393  0.5532  0.9124 -1.0864
 1943THY    CA348565   2.023   9.916   4.344  0.1304 -0.9061 -0.0131
 1943THY    HA348566   2.014   9.983   4.258  0.3742 -0.2340  0.4804
 1943THY    CA448567   1.918   9.822   4.371 -0.3739 -0.2076  0.0032
 1943THY    HA448568   1.830   9.815   4.308  0.2033  0.0579 -0.8649
 1943THY    CA548569   1.922   9.739   4.479 -0.2068  0.5969  0.2155
 1943THY    CM148570   1.814   9.637   4.513 -0.1616 -0.0996 -0.4845
 1943THY    HM148571   1.757   9.673   4.599 -0.9533  1.9084 -1.7881
 1943THY    HM248572   1.747   9.627   4.428 -0.5766  2.4887 -0.5167
 1943THY    HM348573   1.859   9.538   4.533 -1.8900 -0.9059 -0.4490
 1943THY    CA648574   2.034   9.736   4.561  0.2269 -0.1289 -0.1761
 1943THY    HA648575   2.039   9.674   4.649  0.4966  2.2904  1.6191
 1944THY      O48576   7.060   4.100   2.906 -0.1063  0.3082 -0.0800
 1944THY     HO48577   7.117   4.022   2.913  1.9773  1.7644 -0.0357
 1944THY    CA148578   7.089   4.183   3.012 -0.6467  0.0489 -0.3185
 1944THY    CA248579   7.004   4.289   3.041  0.1760  0.7947  0.7093
 1944THY    CP148580   6.888   4.330   2.951  0.1096  0.1676 -0.6335
 1944THY    HP148581   6.892   4.269   2.860  0.3783  1.2775 -1.3813
 1944THY    CP248582   6.759   4.288   3.020  0.6553 -0.0676  0.3530
 1944THY    HP248583   6.781   4.208   3.091  1.9076 -0.7774 -0.7691
 1944THY    HP348584   6.714   4.373   3.073 -0.7304  0.6885 -1.8527
 1944THY    HP448585   6.695   4.252   2.938 -0.7380 -0.0435  1.4027
 1944THY    CP348586   6.879   4.483   2.907 -0.8098  0.7578  0.2344
 1944THY    HP548587   6.977   4.505   2.864 -0.2573 -0.6503  0.6935
 1944THY    HP648588   6.798   4.490   2.833 -1.1446 -1.5445  0.2947
 1944THY    HP748589   6.861   4.544   2.997 -0.3286 -0.8990  1.5196
 1944THY    CA348590   7.038   4.372   3.152  0.6222 -0.0987  0.5560
 1944THY    HA348591   6.966   4.449   3.180 -0.9908 -0.8133 -1.3509
 1944THY    CA448592   7.153   4.345   3.227 -0.9286  0.3435  0.0966
 1944THY    HA448593   7.189   4.403   3.311  2.9495 -1.1946 -0.3231
 1944THY    CA548594   7.233   4.233   3.192 -0.3159 -0.2689  0.2072
 1944THY    CM148595   7.357   4.198   3.265  0.8736 -0.5771  0.0609
 1944THY    HM148596   7.366   4.089   3.266 -1.2845 -0.7797  0.6617
 1944THY    HM248597   7.444   4.244   3.216  0.1218 -1.4494 -2.2273
 1944THY    HM348598   7.347   4.236   3.367  1.1457  1.8704 -0.7512
 1944THY    CA648599   7.204   4.150   3.084  0.5169 -0.2308 -1.1539
 1944THY    HA648600   7.274   4.073   3.056  0.5011 -0.4038 -0.7288
 1945THY      O48601   4.642   7.312   9.634 -0.4586  0.3274  0.4030
 1945THY     HO48602   4.671   7.403   9.654 -0.6874  0.4650  0.1138
 1945THY    CA148603   4.697   7.241   9.736  1.0223  0.1554  0.3070
 1945THY    CA248604   4.758   7.112   9.727 -0.3282  0.5168  0.6273
 1945THY    CP148605   4.745   7.035   9.591  0.2559 -0.4699  0.4602
 1945THY    HP148606   4.716   7.103   9.510 -0.8189  1.2397  2.2205
 1945THY    CP248607   4.888   6.982   9.541  0.6024 -0.4837  0.2806
 1945THY    HP248608   4.956   7.068   9.530 -1.2923  1.2080  1.0001
 1945THY    HP348609   4.936   6.918   9.616  1.4760  0.2644  0.3766
 1945THY    HP448610   4.891   6.932   9.444  1.2744 -1.8901  0.9940
 1945THY    CP348611   4.650   6.920   9.587  0.3160 -0.0451 -0.4085
 1945THY    HP548612   4.677   6.855   9.672 -1.0247  1.0285  0.8998
 1945THY    HP648613   4.548   6.959   9.603  0.1351 -0.6475 -0.0337
 1945THY    HP748614   4.655   6.865   9.492 -0.4345  1.7622 -1.5403
 1945THY    CA348615   4.839   7.059   9.835 -0.8564 -0.8235  0.3986
 1945THY    HA348616   4.886   6.961   9.835  0.1608 -0.3467  0.0516
 1945THY    CA448617   4.848   7.138   9.953  0.1966 -0.1945  0.2275
 1945THY    HA448618   4.902   7.100  10.039 -2.1607 -0.5032  1.6617
 1945THY    CA548619   4.792   7.270   9.958  0.4458 -0.1727 -0.3388
 1945THY    CM148620   4.810   7.361  10.067 -0.1934 -0.5797  0.3319
 1945THY    HM148621   4.712   7.384  10.109  0.0006  2.3710 -0.6131
 1945THY    HM248622   4.868   7.316  10.149 -0.4814  2.2497  2.2449
 1945THY    HM348623   4.858   7.452  10.028  0.5979 -0.1184  2.2260
 1945THY    CA648624   4.718   7.310   9.851  0.2821  0.2357  0.3869
 1945THY    HA648625   4.683   7.413   9.852  0.3589  0.2688 -0.1166
 1946THY      O48626   9.695   1.734   2.173 -0.2486 -0.3346 -0.4299
 1946THY     HO48627   9.786   1.701   2.182 -0.9426 -2.1892  0.5423
 1946THY    CA148628   9.680   1.819   2.271 -0.3408  0.0174  0.4107
 1946THY    CA248629   9.591   1.926   2.272  0.8220 -0.3368 -0.3918
 1946THY    CP148630   9.502   1.949   2.157  0.1933 -0.8780  0.4014
 1946THY    HP148631   9.489   1.858   2.097  0.1942 -0.6670  0.0760
 1946THY    CP248632   9.360   2.001   2.189 -0.8952  0.0908 -0.2455
 1946THY    HP248633   9.335   1.965   2.290  0.3196 -0.1703 -0.0250
 1946THY    HP348634   9.363   2.109   2.210 -0.2676  0.0385 -0.0378
 1946THY    HP448635   9.276   1.981   2.121 -1.2314 -2.6140  0.8309
 1946THY    CP348636   9.573   2.049   2.059 -0.1110  0.5110 -0.3357
 1946THY    HP548637   9.540   2.042   1.955 -1.4611 -0.6172  0.1510
 1946THY    HP648638   9.544   2.149   2.094 -0.5385  0.9224 -1.7926
 1946THY    HP748639   9.680   2.023   2.059 -0.1558  0.0681  1.9155
 1946THY    CA348640   9.609   2.026   2.369  0.1680 -0.5834 -0.0013
 1946THY    HA348641   9.551   2.118   2.374  1.9361  0.8481 -3.0653
 1946THY    CA448642   9.691   2.010   2.482  0.3318  0.8995  0.5331
 1946THY    HA448643   9.689   2.077   2.568  0.7282 -0.7364  1.8680
 1946THY    CA548644   9.773   1.896   2.487  0.3227 -0.3044 -0.3716
 1946THY    CM148645   9.859   1.874   2.610 -0.9281  0.3808 -0.3497
 1946THY    HM148646   9.838   1.771   2.641 -2.5317  1.4578  2.4902
 1946THY    HM248647   9.966   1.871   2.589 -0.6978 -1.6074  0.9081
 1946THY    HM348648   9.833   1.935   2.697  0.6965  0.6102  0.0087
 1946THY    CA648649   9.771   1.803   2.375 -0.1408 -0.6616  1.1463
 1946THY    HA648650   9.853   1.732   2.371  3.2102  2.9056 -1.6216
 1947THY      O48651   6.148   6.906   1.990 -0.2004  0.7609 -0.0658
 1947THY     HO48652   6.220   6.852   2.028 -0.1627  1.5582  1.0648
 1947THY    CA148653   6.031   6.867   2.041  0.6764  0.1110 -0.0700
 1947THY    CA248654   5.913   6.951   2.033 -0.3586  0.5521  0.1923
 1947THY    CP148655   5.918   7.100   1.987  0.3644  1.3524 -0.4179
 1947THY    HP148656   6.024   7.107   1.959  1.0678 -1.9888  0.9717
 1947THY    CP248657   5.828   7.121   1.859 -0.1463  0.2367 -0.4219
 1947THY    HP248658   5.834   7.226   1.827 -2.2452  0.8538  1.0086
 1947THY    HP348659   5.853   7.054   1.776 -2.1152 -1.4734  0.2629
 1947THY    HP448660   5.727   7.090   1.889  0.0618 -0.9829 -0.9286
 1947THY    CP348661   5.889   7.202   2.095 -1.1631  0.4855  0.4953
 1947THY    HP548662   5.928   7.298   2.060  0.3471 -0.5735 -0.9086
 1947THY    HP648663   5.782   7.222   2.094 -1.0550  1.0880  0.9197
 1947THY    HP748664   5.914   7.165   2.195 -2.9860  2.4596  1.7515
 1947THY    CA348665   5.794   6.901   2.095  0.0797  0.8508  0.9477
 1947THY    HA348666   5.704   6.960   2.106 -0.4150  0.1709  0.6524
 1947THY    CA448667   5.784   6.761   2.114  0.0133 -0.1300  0.3513
 1947THY    HA448668   5.691   6.716   2.148  0.8503 -0.7748  1.9055
 1947THY    CA548669   5.897   6.682   2.105  0.2951 -1.1526 -0.2290
 1947THY    CM148670   5.906   6.532   2.133  0.3156  0.7573 -0.6759
 1947THY    HM148671   5.807   6.493   2.160  0.2651  1.6698  0.5297
 1947THY    HM248672   5.936   6.482   2.040 -1.1054  0.6763 -1.1138
 1947THY    HM348673   5.966   6.505   2.220  0.9296  1.8275 -0.7434
 1947THY    CA648674   6.018   6.738   2.078  0.7451 -0.6493  0.3807
 1947THY    HA648675   6.101   6.668   2.087  1.3997  0.3897  3.3837
 1948THY      O48676   1.765   2.106   9.399 -0.4791  0.1464 -0.2187
 1948THY     HO48677   1.741   2.151   9.482 -1.2188 -0.4660 -0.0910
 1948THY    CA148678   1.890   2.065   9.436 -0.5893 -0.7540 -0.0109
 1948THY    CA248679   1.980   2.021   9.335  0.8723 -0.2220  0.1076
 1948THY    CP148680   1.933   2.020   9.188 -0.1705 -0.3653 -0.2871
 1948THY    HP148681   1.824   2.029   9.178 -0.1855 -2.3914 -2.8729
 1948THY    CP248682   1.992   2.143   9.119 -0.4001  0.4747 -0.3664
 1948THY    HP248683   1.986   2.227   9.190  0.4035  0.4231 -0.2306
 1948THY    HP348684   2.097   2.125   9.094 -0.3397 -1.6758  1.1388
 1948THY    HP448685   1.933   2.168   9.030  0.6062  0.4122 -1.0564
 1948THY    CP348686   1.959   1.888   9.103 -0.5560 -0.0430 -0.2492
 1948THY    HP548687   1.922   1.801   9.158 -0.2954 -0.3363 -0.5402
 1948THY    HP648688   1.916   1.901   9.003  0.9288 -2.9531 -1.3638
 1948THY    HP748689   2.065   1.864   9.093 -1.2138 -2.6360 -2.0380
 1948THY    CA348690   2.112   1.981   9.363  0.6229  0.8304 -0.0133
 1948THY    HA348691   2.179   1.939   9.288 -0.1473 -0.5356  0.0262
 1948THY    CA448692   2.143   1.970   9.501  0.3117  0.1758 -0.2629
 1948THY    HA448693   2.240   1.928   9.527 -0.6853 -1.5217  0.9068
 1948THY    CA548694   2.051   2.007   9.600  0.9544  1.2230  0.6659
 1948THY    CM148695   2.077   1.965   9.741  0.3004  0.1821  0.0556
 1948THY    HM148696   2.044   2.041   9.813 -0.6322 -1.6321  1.6150
 1948THY    HM248697   2.025   1.874   9.772  1.3010  0.4826  2.9788
 1948THY    HM348698   2.184   1.940   9.745  0.5409  1.0479 -0.6135
 1948THY    CA648699   1.920   2.049   9.567  0.4509 -0.1290 -0.2809
 1948THY    HA648700   1.846   2.071   9.643  0.7508  0.3792 -0.1296
 1949THY      O48701   3.906   7.777   1.953  0.1135 -0.0921 -0.1753
 1949THY     HO48702   3.917   7.736   1.866 -2.5827 -0.3476 -0.4843
 1949THY    CA148703   3.871   7.905   1.933 -0.1697  0.3598  0.5186
 1949THY    CA248704   3.902   8.002   2.030 -0.4795  0.1004 -0.9332
 1949THY    CP148705   3.976   7.959   2.164 -0.1703  0.0381  0.7344
 1949THY    HP148706   3.972   7.851   2.178 -0.4446  0.1559  1.5731
 1949THY    CP248707   4.124   8.004   2.151 -0.4834  0.2201  0.3370
 1949THY    HP248708   4.167   7.946   2.068 -0.7396 -1.1019  1.0982
 1949THY    HP348709   4.138   8.110   2.129  2.8840 -0.3419 -0.7632
 1949THY    HP448710   4.180   7.975   2.240  0.1189 -0.0456 -0.1203
 1949THY    CP348711   3.909   8.029   2.286  0.1463  0.1620 -0.0196
 1949THY    HP548712   3.915   8.138   2.291 -0.2617  0.1549  0.6758
 1949THY    HP648713   3.801   8.012   2.286  0.2444 -1.0819 -2.5182
 1949THY    HP748714   3.955   7.987   2.376 -1.1481  1.4371  1.2739
 1949THY    CA348715   3.857   8.132   2.014 -0.2446  0.4169  0.0927
 1949THY    HA348716   3.880   8.207   2.089 -1.2176 -0.3767  1.2344
 1949THY    CA448717   3.781   8.160   1.899  0.2523 -0.4631 -0.2175
 1949THY    HA448718   3.746   8.262   1.885 -0.3953 -0.6701 -0.1337
 1949THY    CA548719   3.742   8.063   1.808 -0.2833 -0.5492 -0.6434
 1949THY    CM148720   3.653   8.091   1.686 -0.1978  0.3613  0.6568
 1949THY    HM148721   3.570   8.020   1.695  0.0432  0.3025  3.1656
 1949THY    HM248722   3.609   8.191   1.687  1.1720  0.9950 -0.1928
 1949THY    HM348723   3.706   8.087   1.590 -0.7888 -0.5084  0.3567
 1949THY    CA648724   3.796   7.940   1.823 -0.3951 -1.1294  0.0860
 1949THY    HA648725   3.773   7.867   1.746 -1.8669  1.1502 -1.7624
 1950THY      O48726   7.546   2.702   0.287  0.3865  0.4905  0.1216
 1950THY     HO48727   7.493   2.726   0.365 -1.0304 -1.1738 -0.2749
 1950THY    CA148728   7.647   2.631   0.343 -0.2919  0.3637 -0.2364
 1950THY    CA248729   7.741   2.558   0.263 -0.4986 -0.8931 -0.2247
 1950THY    CP148730   7.730   2.556   0.109  0.2002 -0.7836  0.0111
 1950THY    HP148731   7.671   2.639   0.070  0.1771  0.9967  3.4549
 1950THY    CP248732   7.866   2.578   0.046 -0.3955 -0.6643  0.0605
 1950THY    HP248733   7.924   2.655   0.098  1.5589 -1.3101 -1.0451
 1950THY    HP348734   7.925   2.486   0.054 -1.7050 -1.4756  0.6535
 1950THY    HP448735   7.851   2.608  -0.058 -1.5368  0.1374  0.4382
 1950THY    CP348736   7.660   2.423   0.069 -0.3887  0.3805 -0.5382
 1950THY    HP548737   7.552   2.427   0.089  0.1625  0.3376  3.1206
 1950THY    HP648738   7.676   2.401  -0.037 -2.1792 -2.4717 -0.3340
 1950THY    HP748739   7.710   2.338   0.116  3.1015  1.1913 -2.4600
 1950THY    CA348740   7.834   2.468   0.322  0.4743 -0.4134 -0.5875
 1950THY    HA348741   7.894   2.405   0.257  0.1591  0.3073 -1.6053
 1950THY    CA448742   7.846   2.473   0.465 -0.3600 -0.2787 -0.0364
 1950THY    HA448743   7.918   2.419   0.526 -2.3252 -2.4374  0.5085
 1950THY    CA548744   7.759   2.552   0.538 -0.0200  0.0424 -0.3343
 1950THY    CM148745   7.770   2.550   0.694  0.0657  0.5870 -0.0420
 1950THY    HM148746   7.741   2.648   0.732  0.0469  0.4159  0.3916
 1950THY    HM248747   7.705   2.481   0.750  0.2955  0.4058  0.0048
 1950THY    HM348748   7.873   2.526   0.722  0.9313  1.8305 -1.9007
 1950THY    CA648749   7.658   2.630   0.484 -0.5546  0.4523  0.6354
 1950THY    HA648750   7.596   2.690   0.550  1.1599  2.1948  0.7650
 1951THY      O48751   3.833   4.794   7.111 -0.1917 -0.0260  0.4473
 1951THY     HO48752   3.859   4.887   7.109  1.1748 -0.3546  1.2508
 1951THY    CA148753   3.859   4.754   7.237  0.0539  0.0824  0.4186
 1951THY    CA248754   3.840   4.614   7.272  0.3612 -0.4009  0.0391
 1951THY    CP148755   3.798   4.509   7.169  0.0219  0.4544  0.5587
 1951THY    HP148756   3.790   4.556   7.070  0.4543  0.4417  0.5192
 1951THY    CP248757   3.906   4.397   7.159  0.0052  0.4124 -0.7508
 1951THY    HP248758   4.008   4.433   7.144  0.4398 -1.2986 -2.2557
 1951THY    HP348759   3.911   4.332   7.247 -0.6303  1.0321 -0.2452
 1951THY    HP448760   3.889   4.328   7.075  2.3915  1.9909 -2.6877
 1951THY    CP348761   3.665   4.431   7.199  0.0661  0.5511  0.4848
 1951THY    HP548762   3.572   4.489   7.202 -0.2751  0.0107  2.7681
 1951THY    HP648763   3.645   4.353   7.125 -0.1086  1.2882 -0.2485
 1951THY    HP748764   3.677   4.379   7.295 -2.1522  1.8326  1.5565
 1951THY    CA348765   3.857   4.585   7.410 -0.0742  0.3235 -0.2007
 1951THY    HA348766   3.843   4.486   7.454 -0.0682  0.4432  0.0704
 1951THY    CA448767   3.895   4.687   7.496  0.5534 -0.4939 -0.2573
 1951THY    HA448768   3.897   4.665   7.602 -0.0694 -1.5941 -0.4567
 1951THY    CA548769   3.929   4.818   7.452 -0.1339  0.4980 -0.1938
 1951THY    CM148770   3.980   4.916   7.548 -0.3465  0.1830 -0.0107
 1951THY    HM148771   4.050   4.883   7.625  0.2675 -0.1129 -0.6817
 1951THY    HM248772   4.012   5.011   7.504 -1.3236  0.8923  0.7612
 1951THY    HM348773   3.896   4.945   7.611  0.3496  2.1062  0.0826
 1951THY    CA648774   3.905   4.852   7.327  0.5256 -0.0796 -0.1980
 1951THY    HA648775   3.934   4.951   7.293  1.6556 -0.5878 -0.7746
 1952THY      O48776   2.139   9.093   0.994  0.7811 -0.0817 -0.3256
 1952THY     HO48777   2.045   9.080   1.015  0.8470 -0.0294  0.0099
 1952THY    CA148778   2.151   9.170   0.893 -0.0554 -0.1444 -0.6721
 1952THY    CA248779   2.218   9.126   0.773  1.5615  0.9627 -0.7681
 1952THY    CP148780   2.268   8.980   0.764  0.0563  0.7580 -0.1032
 1952THY    HP148781   2.245   8.921   0.854  1.3126 -0.3308 -0.4580
 1952THY    CP248782   2.200   8.907   0.643  0.2214 -0.0329 -0.4574
 1952THY    HP248783   2.253   8.943   0.554  1.5603  1.7248  0.9659
 1952THY    HP348784   2.199   8.798   0.654 -2.2811  0.0996  1.5683
 1952THY    HP448785   2.093   8.934   0.636  0.5111  1.2994 -0.1118
 1952THY    CP348786   2.425   8.965   0.742 -0.2756 -0.3907 -0.3135
 1952THY    HP548787   2.448   8.858   0.741  1.3057 -0.0681 -1.8267
 1952THY    HP648788   2.448   9.001   0.641 -1.1929  2.8369  0.5157
 1952THY    HP748789   2.490   9.013   0.816 -0.0293 -0.5665 -0.4167
 1952THY    CA348790   2.234   9.220   0.674 -0.7400  0.7111  0.5727
 1952THY    HA348791   2.272   9.184   0.579 -0.0447 -0.5237  1.2943
 1952THY    CA448792   2.193   9.348   0.689 -0.0867 -0.2406  0.2568
 1952THY    HA448793   2.212   9.413   0.604  0.7427 -0.1598  0.4856
 1952THY    CA548794   2.124   9.389   0.810  0.0980  0.2167  0.0416
 1952THY    CM148795   2.075   9.531   0.838  0.8692 -0.3230  0.8106
 1952THY    HM148796   2.145   9.594   0.894 -0.6610  2.4220 -0.1430
 1952THY    HM248797   2.076   9.586   0.743 -3.1609 -0.3404  0.5928
 1952THY    HM348798   1.975   9.531   0.883 -0.2874 -1.0555 -1.6056
 1952THY    CA648799   2.109   9.301   0.915  0.1632 -0.2911  0.2469
 1952THY    HA648800   2.060   9.330   1.007  1.5972 -0.4583  1.0965
 1953THY      O48801   9.046   3.175   1.666  0.0636  0.0262  0.1522
 1953THY     HO48802   9.056   3.168   1.570 -1.5595  0.0546 -0.0452
 1953THY    CA148803   9.070   3.305   1.690  0.1966  0.1437 -0.0663
 1953THY    CA248804   9.033   3.365   1.810 -0.2391 -0.0301 -0.3461
 1953THY    CP148805   8.951   3.293   1.919 -0.3174  0.2223 -0.0650
 1953THY    HP148806   8.980   3.189   1.898  1.1742  0.1788  1.8961
 1953THY    CP248807   8.992   3.317   2.066 -0.3482  0.6570  0.1606
 1953THY    HP248808   8.976   3.423   2.090 -2.9227  0.0301  1.6418
 1953THY    HP348809   8.923   3.259   2.128  1.4433 -0.6350  1.0257
 1953THY    HP448810   9.089   3.272   2.092  0.0371  0.7091 -1.1160
 1953THY    CP348811   8.800   3.309   1.908  0.2451  0.3683 -0.7571
 1953THY    HP548812   8.777   3.416   1.901 -0.8265  0.5583  3.2235
 1953THY    HP648813   8.765   3.259   1.817 -3.7978  1.8059 -0.2191
 1953THY    HP748814   8.745   3.268   1.994  1.9547 -0.5806 -0.0692
 1953THY    CA348815   9.063   3.506   1.829 -0.0997 -0.1350  0.3903
 1953THY    HA348816   9.019   3.552   1.918  2.8005 -2.7207  3.4274
 1953THY    CA448817   9.143   3.573   1.730 -0.6837  0.0961  0.2231
 1953THY    HA448818   9.167   3.679   1.740 -1.2207  0.3059 -0.5223
 1953THY    CA548819   9.176   3.512   1.615  0.0515  0.0447  0.0912
 1953THY    CM148820   9.231   3.580   1.492 -0.8432 -0.6397 -0.5620
 1953THY    HM148821   9.159   3.570   1.410 -1.0943 -1.3187 -0.2681
 1953THY    HM248822   9.246   3.689   1.493  0.8401 -0.7313  3.7248
 1953THY    HM348823   9.332   3.539   1.480  0.9921  2.5996  2.0795
 1953THY    CA648824   9.140   3.377   1.592  0.1849 -1.1926  0.0302
 1953THY    HA648825   9.177   3.330   1.502 -0.4660 -1.1057 -0.2824
 1954THY      O48826   5.629   7.324   5.320  0.1598 -0.5714 -0.6183
 1954THY     HO48827   5.643   7.416   5.349 -2.9605 -0.2034  0.0510
 1954THY    CA148828   5.737   7.266   5.258  0.5358 -0.2365  0.7708
 1954THY    CA248829   5.745   7.126   5.236  0.0991  0.6322  0.1388
 1954THY    CP148830   5.630   7.030   5.266 -0.4791  0.5584 -0.3534
 1954THY    HP148831   5.547   7.081   5.316 -1.5566 -2.2454  0.9272
 1954THY    CP248832   5.574   6.960   5.144 -0.0774  0.6752 -0.4077
 1954THY    HP248833   5.531   7.030   5.071 -1.3390  1.5914  1.1405
 1954THY    HP348834   5.656   6.903   5.098  1.7347  0.6119  2.6470
 1954THY    HP448835   5.494   6.889   5.168 -0.1250  0.8149 -0.1455
 1954THY    CP348836   5.673   6.920   5.373 -0.1408  0.3887 -0.1920
 1954THY    HP548837   5.754   6.860   5.331 -0.3270 -0.7410  0.9979
 1954THY    HP648838   5.710   6.972   5.462  1.4397 -0.6852 -0.1912
 1954THY    HP748839   5.597   6.848   5.405 -0.3268  1.1291  1.1113
 1954THY    CA348840   5.862   7.084   5.169  0.9677  1.5835 -0.3020
 1954THY    HA348841   5.871   6.978   5.148  0.3541  1.5834 -0.6076
 1954THY    CA448842   5.961   7.171   5.121 -0.0207  0.3792 -0.0545
 1954THY    HA448843   6.052   7.139   5.071 -0.9295  2.0568 -3.0604
 1954THY    CA548844   5.942   7.305   5.149  0.0659  0.8201  0.5306
 1954THY    CM148845   6.051   7.402   5.113 -0.4910  0.2472  0.3138
 1954THY    HM148846   6.029   7.452   5.018 -2.8592 -0.5509  0.3706
 1954THY    HM248847   6.065   7.474   5.195 -1.2494 -1.1525  1.7245
 1954THY    HM348848   6.141   7.343   5.098 -0.6465  0.1446 -0.2423
 1954THY    CA648849   5.824   7.355   5.208 -0.4253 -0.3821 -0.1909
 1954THY    HA648850   5.809   7.463   5.216 -1.2748 -0.3357 -1.9729
 1955THY      O48851   9.028   5.074   5.392 -0.2327 -0.7755 -0.9063
 1955THY     HO48852   9.006   5.164   5.419  0.8250 -0.8333  0.1940
 1955THY    CA148853   8.912   5.022   5.349  0.1177 -0.1787 -0.5030
 1955THY    CA248854   8.890   4.886   5.328  0.6031 -0.4800  0.0700
 1955THY    CP148855   9.000   4.781   5.343 -0.4967  0.7586 -0.2684
 1955THY    HP148856   9.083   4.831   5.393  0.2121  0.3032 -0.9648
 1955THY    CP248857   8.953   4.662   5.435  0.5511  0.1557 -0.3673
 1955THY    HP248858   9.035   4.598   5.467  0.3653  0.8444  1.6104
 1955THY    HP348859   8.898   4.699   5.522 -1.0662  0.9002 -1.6400
 1955THY    HP448860   8.879   4.594   5.391  1.4133 -2.6117  2.1280
 1955THY    CP348861   9.045   4.726   5.212 -0.3154  0.1166 -0.8696
 1955THY    HP548862   9.126   4.657   5.240 -1.3642 -0.5148  0.7660
 1955THY    HP648863   8.963   4.672   5.163 -1.9092  1.0557  0.6471
 1955THY    HP748864   9.082   4.803   5.143  0.7891 -0.9665 -1.5388
 1955THY    CA348865   8.761   4.847   5.276  0.0365 -0.4436  0.7066
 1955THY    HA348866   8.743   4.742   5.253  2.0213 -1.2608  2.4696
 1955THY    CA448867   8.665   4.950   5.255  0.3399  0.0359  0.1326
 1955THY    HA448868   8.567   4.923   5.217 -0.0763  1.2482  0.2976
 1955THY    CA548869   8.691   5.083   5.274 -0.3655 -0.4994 -0.1517
 1955THY    CM148870   8.607   5.194   5.227 -0.3605  0.1160 -0.5726
 1955THY    HM148871   8.557   5.246   5.310  2.9466  2.6871  0.0347
 1955THY    HM248872   8.670   5.266   5.173  1.7684 -3.3474 -3.0741
 1955THY    HM348873   8.527   5.155   5.162 -2.8633 -0.1656  2.4177
 1955THY    CA648874   8.818   5.118   5.321  0.7659 -0.2981  0.2022
 1955THY    HA648875   8.850   5.222   5.314  0.1254 -0.1631 -0.9116
 1956THY      O48876   8.524   4.928   3.523 -0.7452  0.3249  0.2702
 1956THY     HO48877   8.559   5.017   3.538 -0.6060  0.1309  1.1872
 1956THY    CA148878   8.447   4.901   3.635  0.1851  0.1075 -0.9020
 1956THY    CA248879   8.428   4.771   3.690 -0.1671 -0.1970 -0.3076
 1956THY    CP148880   8.487   4.654   3.621 -0.1409  0.9715 -0.2426
 1956THY    HP148881   8.554   4.706   3.552  2.0385  1.0795  1.8171
 1956THY    CP248882   8.566   4.560   3.704  0.2065  0.1180 -0.4558
 1956THY    HP248883   8.512   4.505   3.783  1.7947  0.5592  1.0073
 1956THY    HP348884   8.615   4.487   3.638  0.1140  0.2884 -0.7115
 1956THY    HP448885   8.638   4.615   3.766 -0.3708 -0.1336  0.4614
 1956THY    CP348886   8.392   4.567   3.531 -0.6643 -0.5251 -0.3181
 1956THY    HP548887   8.434   4.481   3.478 -1.4114 -1.6141  0.8088
 1956THY    HP648888   8.308   4.530   3.592  1.1169 -1.5730  1.6445
 1956THY    HP748889   8.360   4.641   3.457  0.1482  0.2645  0.1031
 1956THY    CA348890   8.363   4.754   3.817 -0.7577 -0.8935 -0.4719
 1956THY    HA348891   8.344   4.660   3.867  0.9144 -0.5347  0.9510
 1956THY    CA448892   8.318   4.874   3.880  0.4291 -0.0009  0.1600
 1956THY    HA448893   8.272   4.869   3.978  0.5856 -1.3066  0.1857
 1956THY    CA548894   8.343   5.000   3.823 -0.0486 -0.3841  0.5106
 1956THY    CM148895   8.296   5.114   3.895  0.8131  0.0959 -0.0690
 1956THY    HM148896   8.383   5.179   3.911  1.8717 -1.5109  1.0759
 1956THY    HM248897   8.218   5.173   3.845  0.7870 -0.7631 -1.0717
 1956THY    HM348898   8.257   5.092   3.995 -2.8158  1.8040 -0.9402
 1956THY    CA648899   8.405   5.015   3.704  0.3970  0.1951  0.3193
 1956THY    HA648900   8.428   5.114   3.667  1.6665 -0.0062  0.5207
 1957THY      O48901   4.240   3.634   1.323  0.7885  0.1890 -0.2898
 1957THY     HO48902   4.300   3.697   1.365  0.0076 -0.0071  1.1844
 1957THY    CA148903   4.237   3.523   1.397  0.3950 -0.1021  0.1088
 1957THY    CA248904   4.147   3.418   1.370  0.0876 -0.1727  0.2243
 1957THY    CP148905   4.054   3.430   1.257  0.0176  0.4543 -0.5344
 1957THY    HP148906   4.043   3.532   1.217 -0.5371  1.5670  2.2557
 1957THY    CP248907   4.113   3.345   1.142 -0.1955 -0.5501  0.0095
 1957THY    HP248908   4.049   3.352   1.053 -0.9534  0.5935  0.6278
 1957THY    HP348909   4.207   3.391   1.109  0.1265 -1.6752 -0.6791
 1957THY    HP448910   4.124   3.240   1.173  1.6402 -0.6372 -0.7887
 1957THY    CP348911   3.916   3.380   1.302 -0.0258 -0.4371  0.0274
 1957THY    HP548912   3.917   3.272   1.320  1.8732 -0.1961  1.7511
 1957THY    HP648913   3.883   3.435   1.391  1.7107 -1.6672  1.5180
 1957THY    HP748914   3.840   3.387   1.223  1.2442 -0.0426 -1.1918
 1957THY    CA348915   4.159   3.305   1.451 -0.4822 -0.5895  0.8258
 1957THY    HA348916   4.095   3.220   1.432 -0.4266 -0.2904 -0.8872
 1957THY    CA448917   4.234   3.303   1.571  0.2006  0.5489 -0.6123
 1957THY    HA448918   4.227   3.227   1.648  0.3461 -0.2492 -1.3683
 1957THY    CA548919   4.316   3.414   1.599  0.6307 -0.2639  0.2867
 1957THY    CM148920   4.378   3.429   1.730  0.6149  0.2061 -0.3012
 1957THY    HM148921   4.372   3.535   1.760  1.3573  0.7508 -1.9463
 1957THY    HM248922   4.314   3.374   1.800  0.4391 -0.4187 -0.9520
 1957THY    HM348923   4.480   3.388   1.731  0.0094 -1.3601  1.1590
 1957THY    CA648924   4.311   3.524   1.512  0.0353  0.2327  0.7134
 1957THY    HA648925   4.355   3.618   1.542  0.1770 -0.0826  1.5190
 1958THY      O48926   8.311   7.499   6.077 -0.1658 -0.3511  0.3882
 1958THY     HO48927   8.244   7.566   6.099  0.3548 -1.0616  5.0191
 1958THY    CA148928   8.246   7.380   6.095  1.0829 -0.5837 -0.5001
 1958THY    CA248929   8.197   7.309   5.984  0.5251  1.1528 -0.2276
 1958THY    CP148930   8.245   7.334   5.843  0.7684  0.4006 -0.5863
 1958THY    HP148931   8.294   7.432   5.841  1.5652  0.0760  1.1484
 1958THY    CP248932   8.364   7.246   5.815  0.7523  0.0180 -0.0789
 1958THY    HP248933   8.332   7.143   5.837 -2.3076  0.2893 -2.6042
 1958THY    HP348934   8.396   7.261   5.711  0.4026 -0.2233 -0.2224
 1958THY    HP448935   8.455   7.279   5.867  1.8612 -1.1003 -1.2308
 1958THY    CP348936   8.127   7.326   5.743  0.2860 -0.2466 -0.0367
 1958THY    HP548937   8.035   7.374   5.779  1.0335 -0.6957  2.7816
 1958THY    HP648938   8.153   7.382   5.653 -0.8727 -0.3193 -0.4301
 1958THY    HP748939   8.115   7.220   5.721  1.8171 -0.0110 -2.2640
 1958THY    CA348940   8.119   7.193   6.011  0.2525  0.8299  0.1371
 1958THY    HA348941   8.080   7.133   5.929 -3.3601 -2.0648  3.6013
 1958THY    CA448942   8.083   7.159   6.141 -0.7809  0.4307 -0.5535
 1958THY    HA448943   8.017   7.074   6.157  0.7325 -0.6879 -0.0071
 1958THY    CA548944   8.121   7.232   6.248 -0.0780 -0.0213  0.9298
 1958THY    CM148945   8.076   7.191   6.376  0.1037 -0.2856 -0.3176
 1958THY    HM148946   8.153   7.134   6.430 -0.1853  1.2596  1.8667
 1958THY    HM248947   8.032   7.278   6.426  0.4644  0.3447 -1.0728
 1958THY    HM348948   7.993   7.120   6.363  1.3135 -1.3900 -2.3693
 1958THY    CA648949   8.201   7.347   6.228 -0.4907 -0.2135  0.5048
 1958THY    HA648950   8.230   7.413   6.310  0.4502 -0.7518  0.6219
 1959THY      O48951   7.745   4.124   5.175 -0.1413 -0.0719  0.1100
 1959THY     HO48952   7.674   4.063   5.201  0.5218 -0.5747  0.7882
 1959THY    CA148953   7.696   4.172   5.061  0.4664  0.1452  0.7440
 1959THY    CA248954   7.776   4.250   4.979 -0.0184  0.8033 -0.4237
 1959THY    CP148955   7.918   4.293   5.022 -0.2465 -0.0193  0.3671
 1959THY    HP148956   7.946   4.248   5.118 -0.1355  0.0019  0.3448
 1959THY    CP248957   8.030   4.238   4.920 -0.0314  0.2771 -0.0222
 1959THY    HP248958   8.014   4.275   4.819 -2.3262 -0.0093  0.1900
 1959THY    HP348959   8.128   4.272   4.955 -0.1359  0.6768 -0.1206
 1959THY    HP448960   8.024   4.129   4.929 -2.3601  0.3768  0.2681
 1959THY    CP348961   7.932   4.443   5.039 -0.4432  0.9052 -0.3862
 1959THY    HP548962   8.033   4.481   5.021  0.7868 -1.8797  0.1875
 1959THY    HP648963   7.855   4.497   4.982 -2.3875 -0.7665  0.5186
 1959THY    HP748964   7.906   4.456   5.145  0.8122 -1.0710  0.2062
 1959THY    CA348965   7.725   4.302   4.857  0.2511  0.5620  0.0821
 1959THY    HA348966   7.786   4.370   4.798  0.0842  2.0296  1.5081
 1959THY    CA448967   7.597   4.254   4.817 -0.4860 -0.1941  0.5956
 1959THY    HA448968   7.566   4.282   4.717  1.1999 -0.2426  0.0315
 1959THY    CA548969   7.520   4.176   4.901 -0.3682  0.1593 -0.3340
 1959THY    CM148970   7.392   4.124   4.868 -0.5595  0.0084 -0.0994
 1959THY    HM148971   7.315   4.202   4.864  0.3635  0.9456 -0.0010
 1959THY    HM248972   7.411   4.062   4.779  1.0397 -1.1342  0.9683
 1959THY    HM348973   7.340   4.058   4.938 -0.1477 -1.9853 -1.5470
 1959THY    CA648974   7.562   4.137   5.026 -0.4083  0.0047 -0.2719
 1959THY    HA648975   7.497   4.075   5.088 -2.5802 -0.1214 -2.5297
 1960THY      O48976   2.691   8.594   0.594  0.0637 -0.0067  0.1250
 1960THY     HO48977   2.629   8.593   0.669 -1.4237 -0.6972 -1.0390
 1960THY    CA148978   2.797   8.672   0.627  0.2937  0.1767 -0.2767
 1960THY    CA248979   2.902   8.703   0.543 -0.1870 -0.3477  0.7625
 1960THY    CP148980   2.897   8.680   0.391 -0.4978  0.2034  0.1904
 1960THY    HP148981   2.795   8.699   0.357  0.3500  2.0946 -1.4642
 1960THY    CP248982   2.984   8.765   0.302  0.1611  0.3348  0.2170
 1960THY    HP248983   2.986   8.869   0.338 -0.4825  0.6569 -0.6460
 1960THY    HP348984   3.088   8.730   0.297 -0.4217 -1.4887  0.1003
 1960THY    HP448985   2.953   8.760   0.197 -0.3057  1.7585  0.2592
 1960THY    CP348986   2.925   8.533   0.368 -0.1007 -0.7597  0.7269
 1960THY    HP548987   2.969   8.518   0.269  0.5850 -0.8406  1.0381
 1960THY    HP648988   2.996   8.504   0.447  0.9215  0.0585  0.1425
 1960THY    HP748989   2.840   8.468   0.390 -1.3521  0.5354 -0.0981
 1960THY    CA348990   3.021   8.758   0.594  0.0490 -0.0667  0.3429
 1960THY    HA348991   3.104   8.788   0.530  0.3303  1.6938  1.4654
 1960THY    CA448992   3.022   8.799   0.728 -0.0378 -0.3512 -0.3730
 1960THY    HA448993   3.119   8.834   0.762  0.3510  1.4556 -3.0404
 1960THY    CA548994   2.914   8.773   0.812  0.2677  0.6617 -0.3707
 1960THY    CM148995   2.908   8.799   0.960 -0.9417 -0.5078 -0.0664
 1960THY    HM148996   2.981   8.876   0.986 -0.0553 -1.0420 -0.9145
 1960THY    HM248997   2.811   8.826   1.002 -1.1546 -4.0420  2.0723
 1960THY    HM348998   2.945   8.703   1.000  2.5545 -0.0181 -1.7127
 1960THY    CA648999   2.803   8.700   0.761 -0.1888  0.3065 -0.7160
 1960THY    HA649000   2.727   8.666   0.831  1.2893 -2.7039 -0.4416
 1961THY      O49001   4.387   5.569   4.383  0.4570 -0.0918  0.4782
 1961THY     HO49002   4.356   5.607   4.467  1.1609  2.6216 -0.3824
 1961THY    CA149003   4.519   5.599   4.384 -0.1030 -0.1617  0.2077
 1961THY    CA249004   4.614   5.514   4.319  0.2893  0.4750 -0.1211
 1961THY    CP149005   4.567   5.385   4.242 -0.2212 -0.0978 -0.3314
 1961THY    HP149006   4.461   5.370   4.262 -0.5183  1.7529 -0.3492
 1961THY    CP249007   4.586   5.407   4.091  0.4411 -0.4957  0.6050
 1961THY    HP249008   4.692   5.421   4.068  0.7793  0.4109  2.5355
 1961THY    HP349009   4.554   5.319   4.034 -2.3484  0.8927 -0.1418
 1961THY    HP449010   4.524   5.489   4.054 -1.9074 -1.2195  2.6274
 1961THY    CP349011   4.654   5.261   4.291 -0.1501  0.1576 -0.3778
 1961THY    HP549012   4.748   5.259   4.236  0.0406  0.9254 -0.0860
 1961THY    HP649013   4.677   5.272   4.397 -2.4543  0.4069  0.1483
 1961THY    HP749014   4.597   5.170   4.266  0.3896 -0.1337 -0.5513
 1961THY    CA349015   4.753   5.546   4.337 -0.3925  0.9055  0.1384
 1961THY    HA349016   4.837   5.486   4.302  0.5406  1.3635  1.5127
 1961THY    CA449017   4.788   5.655   4.413 -0.0298 -0.7020 -0.0992
 1961THY    HA449018   4.890   5.689   4.402 -0.0252 -0.7871 -0.3321
 1961THY    CA549019   4.692   5.739   4.468 -0.6260  0.4590  0.7790
 1961THY    CM149020   4.740   5.844   4.568 -0.0517  0.3438  0.2000
 1961THY    HM149021   4.672   5.876   4.647  0.5014 -0.1600  0.9008
 1961THY    HM249022   4.824   5.808   4.629  0.0675  3.0997  1.8189
 1961THY    HM349023   4.771   5.933   4.512 -1.2017  0.4454 -0.3028
 1961THY    CA649024   4.559   5.714   4.449  0.0932 -0.5371  0.1316
 1961THY    HA649025   4.494   5.786   4.497  0.7182  0.0687  0.0874
 1962THY      O49026   8.886   3.611   4.209  1.1571 -0.5543  0.6236
 1962THY     HO49027   8.966   3.643   4.255  0.1453  2.0552  0.7816
 1962THY    CA149028   8.867   3.479   4.231 -0.1041 -0.3749 -0.6775
 1962THY    CA249029   8.769   3.397   4.167  0.0252  0.3227 -0.7019
 1962THY    CP149030   8.675   3.458   4.084  0.5860 -0.3294  0.2559
 1962THY    HP149031   8.675   3.564   4.113  1.9850  0.0956 -1.0832
 1962THY    CP249032   8.726   3.465   3.937 -0.2128  0.2110 -0.0486
 1962THY    HP249033   8.823   3.515   3.933 -0.4878  0.7602  0.0049
 1962THY    HP349034   8.733   3.365   3.893  0.0975  0.6690 -1.0693
 1962THY    HP449035   8.647   3.512   3.877 -3.0564 -2.5885  1.2025
 1962THY    CP349036   8.521   3.415   4.103 -0.1138 -0.1394 -0.3756
 1962THY    HP549037   8.460   3.486   4.045  2.8352  2.4813 -0.5268
 1962THY    HP649038   8.508   3.313   4.066 -0.3331  0.1466 -1.0920
 1962THY    HP749039   8.492   3.426   4.209 -0.6166 -2.0134 -0.2880
 1962THY    CA349040   8.758   3.263   4.209  0.4503 -0.2605  0.3277
 1962THY    HA349041   8.683   3.198   4.165  0.4564  1.3933 -2.3426
 1962THY    CA449042   8.854   3.203   4.297  0.6626 -0.1075 -0.3945
 1962THY    HA449043   8.844   3.099   4.329 -0.6920 -0.0710 -0.6228
 1962THY    CA549044   8.950   3.289   4.357 -0.1119  0.7166 -0.2304
 1962THY    CM149045   9.062   3.224   4.436  0.7706 -0.5111  0.4058
 1962THY    HM149046   9.116   3.306   4.486 -2.1394 -0.0235  3.0656
 1962THY    HM249047   9.024   3.171   4.524  0.8266 -1.4816 -0.1469
 1962THY    HM349048   9.123   3.163   4.368 -0.9608  1.7785 -3.5244
 1962THY    CA649049   8.954   3.427   4.323 -0.3891 -0.4510  0.8393
 1962THY    HA649050   9.035   3.485   4.367  0.8913 -1.4060 -0.1554
 1963THY      O49051   4.182   9.610   9.048  0.1169  0.4341 -0.1102
 1963THY     HO49052   4.129   9.567   9.118  1.4071  0.3007  0.8186
 1963THY    CA149053   4.262   9.697   9.114 -0.3564  0.0332 -0.8301
 1963THY    CA249054   4.299   9.819   9.060 -0.4872  0.5620  0.4156
 1963THY    CP149055   4.236   9.865   8.929 -0.3149 -0.0916  0.7724
 1963THY    HP149056   4.137   9.822   8.909 -0.1452 -0.3648  0.5087
 1963THY    CP249057   4.195  10.015   8.930  0.8322  0.0609  0.2409
 1963THY    HP249058   4.105  10.038   8.988 -2.1336 -2.6414 -2.9220
 1963THY    HP349059   4.285  10.075   8.950  1.4593 -0.1871 -1.6592
 1963THY    HP449060   4.160  10.046   8.831 -2.6349  0.7529  1.5281
 1963THY    CP349061   4.340   9.843   8.805  0.7738 -0.0046 -0.4294
 1963THY    HP549062   4.362   9.738   8.782 -0.4138 -0.1103 -1.1743
 1963THY    HP649063   4.302   9.898   8.719  1.3455  1.4659  0.2361
 1963THY    HP749064   4.436   9.885   8.837  2.9938 -2.6244 -3.0117
 1963THY    CA349065   4.400   9.893   9.122 -0.2621 -0.5703 -0.0246
 1963THY    HA349066   4.432   9.986   9.076  1.0660 -0.3838  1.2410
 1963THY    CA449067   4.454   9.854   9.247 -0.4964 -0.3157 -0.8545
 1963THY    HA449068   4.522   9.919   9.302 -1.7956  0.6642 -0.3610
 1963THY    CA549069   4.421   9.727   9.300  0.3343  0.4786 -0.1010
 1963THY    CM149070   4.471   9.670   9.431  0.4830  0.1669 -0.2948
 1963THY    HM149071   4.386   9.661   9.499 -0.8037 -1.3516 -1.9927
 1963THY    HM249072   4.496   9.565   9.413 -0.3286 -0.2292  0.7922
 1963THY    HM349073   4.561   9.724   9.462  2.3900 -2.0433 -1.6596
 1963THY    CA649074   4.326   9.649   9.234  0.9635  0.5845 -0.0178
 1963THY    HA649075   4.290   9.556   9.275  1.4863  1.3931  2.4444
 1964THY      O49076   4.878   6.282   1.170  0.1797  0.6272 -0.4120
 1964THY     HO49077   4.937   6.298   1.095  2.2029 -1.9536  0.4659
 1964THY    CA149078   4.802   6.172   1.140 -0.1113  0.0209  0.1810
 1964THY    CA249079   4.778   6.065   1.233 -0.2832  0.0344  0.3238
 1964THY    CP149080   4.855   6.054   1.365  1.0953  0.3512 -0.2795
 1964THY    HP149081   4.936   6.127   1.371  0.1705  1.2713  2.2008
 1964THY    CP249082   4.761   6.084   1.491  0.5954  0.5216 -0.1763
 1964THY    HP249083   4.698   6.003   1.530  1.8458 -0.2489  0.3124
 1964THY    HP349084   4.835   6.087   1.572  2.1629 -1.5870 -1.3941
 1964THY    HP449085   4.703   6.177   1.486  0.3060  0.3684  0.3304
 1964THY    CP349086   4.904   5.921   1.384 -0.3742  0.3025  0.2393
 1964THY    HP549087   4.831   5.844   1.411 -0.3689  0.4678  0.7419
 1964THY    HP649088   4.978   5.894   1.309  0.8690  1.7620  0.8712
 1964THY    HP749089   4.981   5.939   1.460  0.4472  1.3530 -0.7953
 1964THY    CA349090   4.675   5.972   1.206  0.6836 -0.2618  0.7359
 1964THY    HA349091   4.668   5.886   1.270  3.6796 -0.0807  1.4665
 1964THY    CA449092   4.608   5.981   1.087  0.1097  0.2952  0.2281
 1964THY    HA449093   4.549   5.898   1.049  0.0411  0.3835  0.1433
 1964THY    CA549094   4.655   6.069   0.989 -0.1493  0.9066  0.3515
 1964THY    CM149095   4.582   6.067   0.851 -0.0089  0.4326 -0.2484
 1964THY    HM149096   4.501   5.993   0.855  1.2108 -0.9185  2.4777
 1964THY    HM249097   4.544   6.169   0.839  1.1646  1.0133  0.7825
 1964THY    HM349098   4.651   6.044   0.769 -0.4545 -1.2924 -0.1798
 1964THY    CA649099   4.741   6.171   1.020 -0.3108  0.3159  0.3906
 1964THY    HA649100   4.758   6.254   0.951  1.5655  2.4107  3.1436
 1965THY      O49101   5.146   5.151   2.105  0.4044 -0.2220 -0.1612
 1965THY     HO49102   5.102   5.136   2.190 -1.2447 -0.1381 -0.9570
 1965THY    CA149103   5.093   5.076   2.006 -0.5100  0.3807 -0.1643
 1965THY    CA249104   5.128   5.095   1.867  0.1930 -0.2023 -0.1866
 1965THY    CP149105   5.218   5.202   1.823 -0.2957  0.9203  0.0620
 1965THY    HP149106   5.285   5.236   1.903  1.3979 -1.2364 -0.3375
 1965THY    CP249107   5.311   5.159   1.708  0.0329  0.4947 -0.2214
 1965THY    HP249108   5.363   5.065   1.727 -1.3002 -0.3496 -0.6122
 1965THY    HP349109   5.253   5.149   1.615  1.6885 -2.1978 -1.0775
 1965THY    HP449110   5.391   5.230   1.685  1.6456 -1.3168 -0.4149
 1965THY    CP349111   5.146   5.326   1.775  0.2736 -0.0492  0.6409
 1965THY    HP549112   5.083   5.304   1.688  1.6828  2.3499 -1.0974
 1965THY    HP649113   5.084   5.371   1.854 -0.7050  0.4054 -0.3666
 1965THY    HP749114   5.214   5.408   1.752 -1.9927  1.9801  0.7892
 1965THY    CA349115   5.060   5.020   1.773  0.8840 -0.2933 -0.2771
 1965THY    HA349116   5.076   5.034   1.666 -0.9095 -1.8913 -0.7994
 1965THY    CA449117   4.973   4.916   1.802  0.0096 -0.1210 -0.8186
 1965THY    HA449118   4.925   4.862   1.721 -1.0713  0.8851 -0.8765
 1965THY    CA549119   4.927   4.907   1.936  0.5529  0.3488  0.1961
 1965THY    CM149120   4.809   4.818   1.969 -0.4426 -0.2211 -0.4351
 1965THY    HM149121   4.729   4.890   1.991 -2.1444 -0.5759 -4.6005
 1965THY    HM249122   4.771   4.756   1.887  1.5726 -1.3265 -0.6047
 1965THY    HM349123   4.827   4.757   2.058 -5.0334 -0.8198  0.3046
 1965THY    CA649124   4.995   4.983   2.039  0.1337 -0.3077 -0.2807
 1965THY    HA649125   4.966   4.961   2.141 -0.4057 -0.7103 -0.5184
 1966THY      O49126   0.718   5.245   5.685 -0.0553 -0.4648 -0.0041
 1966THY     HO49127   0.725   5.202   5.772 -0.7225 -0.7155 -0.0662
 1966THY    CA149128   0.837   5.305   5.673  0.8190  0.4220 -0.0284
 1966THY    CA249129   0.876   5.370   5.552  0.5032  0.9949 -0.3735
 1966THY    CP149130   0.774   5.383   5.437  0.5282  0.8131 -0.1353
 1966THY    HP149131   0.684   5.321   5.440 -0.4271  2.0581 -1.8590
 1966THY    CP249132   0.722   5.527   5.427  0.1546 -0.1530 -0.2610
 1966THY    HP249133   0.811   5.590   5.415 -0.3859  0.5690 -0.5336
 1966THY    HP349134   0.656   5.544   5.341  0.5346 -0.3029 -0.5837
 1966THY    HP449135   0.676   5.569   5.517  2.4214  0.1035  0.8456
 1966THY    CP349136   0.842   5.340   5.308  0.5422  0.0081 -0.4665
 1966THY    HP549137   0.781   5.369   5.221  0.9054  0.1249 -0.6880
 1966THY    HP649138   0.944   5.379   5.296  0.2889  1.0488  0.5991
 1966THY    HP749139   0.842   5.231   5.310 -1.9236 -0.0251  0.5261
 1966THY    CA349140   0.995   5.434   5.547  0.6013 -0.7880 -0.1530
 1966THY    HA349141   1.013   5.512   5.474  1.0982  2.2102  2.9280
 1966THY    CA449142   1.089   5.424   5.650  0.0309  0.0115 -0.7271
 1966THY    HA449143   1.185   5.474   5.647  0.3936 -0.5143  0.9116
 1966THY    CA549144   1.057   5.354   5.770  0.6128 -0.2133  1.0124
 1966THY    CM149145   1.149   5.337   5.887  0.4785 -0.4816  0.0859
 1966THY    HM149146   1.177   5.440   5.915 -0.1586  0.9664 -3.8603
 1966THY    HM249147   1.106   5.291   5.976  1.0730  0.2967  0.8028
 1966THY    HM349148   1.240   5.281   5.862 -0.0719 -0.8298 -1.2535
 1966THY    CA649149   0.929   5.293   5.778  0.6042  0.9138 -0.5745
 1966THY    HA649150   0.909   5.235   5.868 -1.3255 -0.1446 -1.6312
 1967THY      O49151   5.160   2.654   4.552 -0.2937 -0.2221 -0.2673
 1967THY     HO49152   5.187   2.590   4.620 -0.5520 -1.5696 -1.3812
 1967THY    CA149153   5.200   2.604   4.433 -0.8185 -0.8915  0.0608
 1967THY    CA249154   5.245   2.697   4.335 -0.2832  0.2265 -0.1407
 1967THY    CP149155   5.257   2.840   4.365  0.0341 -0.4685  0.4533
 1967THY    HP149156   5.189   2.870   4.446  0.5100 -0.7183  0.9599
 1967THY    CP249157   5.403   2.865   4.426  0.7145  0.3398  1.1543
 1967THY    HP249158   5.414   2.972   4.447 -2.7690  1.8702 -3.2411
 1967THY    HP349159   5.423   2.797   4.509  0.3509 -0.5809  0.5027
 1967THY    HP449160   5.475   2.842   4.347  0.5321  0.5975  0.9110
 1967THY    CP349161   5.222   2.933   4.246 -0.1871  0.0424  0.0943
 1967THY    HP549162   5.250   3.031   4.284 -1.4706  0.0040  1.2443
 1967THY    HP649163   5.285   2.924   4.157 -1.8275  0.0930 -1.1276
 1967THY    HP749164   5.118   2.928   4.210 -0.1747 -1.6411  0.1936
 1967THY    CA349165   5.289   2.646   4.214 -0.7715 -0.2909  0.1324
 1967THY    HA349166   5.329   2.702   4.130 -1.0130 -1.9881 -1.1768
 1967THY    CA449167   5.294   2.498   4.199  0.1263  0.0675 -0.6773
 1967THY    HA449168   5.338   2.453   4.110 -1.2837 -0.7130 -1.0030
 1967THY    CA549169   5.246   2.420   4.303  0.1753 -0.1451  0.7036
 1967THY    CM149170   5.254   2.269   4.296 -0.8324 -0.4756 -0.5247
 1967THY    HM149171   5.164   2.243   4.237 -0.4437  0.0528 -1.3713
 1967THY    HM249172   5.338   2.258   4.226  0.2921  2.5614  0.1982
 1967THY    HM349173   5.268   2.216   4.391 -1.5158  2.2019  1.1607
 1967THY    CA649174   5.195   2.476   4.418 -0.0373  0.3964 -0.3911
 1967THY    HA649175   5.172   2.404   4.496  1.2312 -1.2663 -1.4651
 1968THY      O49176   6.412   0.026   7.214 -0.3625 -0.5862  0.1995
 1968THY     HO49177   6.469  -0.037   7.262 -2.4906 -2.0571  0.9662
 1968THY    CA149178   6.467   0.046   7.092 -0.4058  0.2838  0.2049
 1968THY    CA249179   6.527   0.170   7.055 -0.2612 -0.3646 -0.2290
 1968THY    CP149180   6.491   0.295   7.121 -0.5515  0.1918  0.3920
 1968THY    HP149181   6.416   0.272   7.197 -0.4366 -1.2314  0.1111
 1968THY    CP249182   6.610   0.361   7.194  0.4479  0.4993  0.1143
 1968THY    HP249183   6.574   0.441   7.260  0.4908  0.4973  0.1401
 1968THY    HP349184   6.656   0.276   7.246  0.7340  0.7502  0.2708
 1968THY    HP449185   6.689   0.390   7.123 -0.1998 -1.0338 -1.3263
 1968THY    CP349186   6.413   0.385   7.027 -0.4381 -0.8239  0.4666
 1968THY    HP549187   6.353   0.458   7.083 -0.3414 -0.2117 -0.2014
 1968THY    HP649188   6.483   0.443   6.966  1.6605 -1.6203  2.0389
 1968THY    HP749189   6.353   0.325   6.957 -0.2032 -1.4554  0.7966
 1968THY    CA349190   6.608   0.171   6.939  0.3869 -0.0804  0.6900
 1968THY    HA349191   6.649   0.266   6.908  1.0763 -0.5084  0.2502
 1968THY    CA449192   6.620   0.044   6.868 -0.4517 -0.5093  0.7181
 1968THY    HA449193   6.694   0.039   6.789 -0.2867  2.0185  0.6263
 1968THY    CA549194   6.550  -0.073   6.909 -0.2467  0.2461  0.3384
 1968THY    CM149195   6.588  -0.209   6.850 -0.6908 -0.2125  0.1268
 1968THY    HM149196   6.606  -0.202   6.742 -0.1258 -0.3306  0.2102
 1968THY    HM249197   6.687  -0.243   6.882 -0.3296 -0.5186 -1.2297
 1968THY    HM349198   6.514  -0.288   6.867 -0.2663 -0.2628  1.9201
 1968THY    CA649199   6.481  -0.070   7.023  0.2327  0.1745  0.5123
 1968THY    HA649200   6.431  -0.158   7.063 -1.2948  1.4830  1.6076
 1969THY      O49201   2.017   6.552   9.293  0.2457 -0.2179  0.1070
 1969THY     HO49202   1.960   6.610   9.239 -1.3862  0.1156  2.0442
 1969THY    CA149203   1.935   6.509   9.394  0.4421 -0.5989 -0.2790
 1969THY    CA249204   1.922   6.375   9.427  0.2418  0.5045  0.2321
 1969THY    CP149205   1.995   6.265   9.351  0.1249  0.6875  0.2184
 1969THY    HP149206   2.086   6.311   9.310  1.1599 -2.0747 -0.7995
 1969THY    CP249207   2.055   6.154   9.436  0.0437 -0.4807 -0.2806
 1969THY    HP249208   2.106   6.182   9.529 -0.7763 -1.0922  0.3683
 1969THY    HP349209   1.967   6.114   9.488 -1.2426  4.4796  1.9355
 1969THY    HP449210   2.115   6.085   9.376 -1.2280 -0.3369 -1.7717
 1969THY    CP349211   1.912   6.201   9.239 -0.4430 -0.3314 -0.6267
 1969THY    HP549212   1.879   6.291   9.186  2.5722  1.1438 -0.1703
 1969THY    HP649213   1.969   6.136   9.172  0.4749  0.6139 -0.7793
 1969THY    HP749214   1.827   6.141   9.274  1.4353 -2.5414  0.4036
 1969THY    CA349215   1.824   6.335   9.514  0.9975  0.2378  0.0242
 1969THY    HA349216   1.805   6.229   9.530  0.9559 -0.1532 -2.2926
 1969THY    CA449217   1.746   6.429   9.580  0.3024 -0.2517  0.1737
 1969THY    HA449218   1.670   6.397   9.651 -0.9781 -0.1689 -1.1156
 1969THY    CA549219   1.751   6.561   9.552  0.6723 -0.4924  0.2334
 1969THY    CM149220   1.659   6.660   9.628  0.1199 -0.5760 -0.3214
 1969THY    HM149221   1.588   6.600   9.686  1.0506 -2.1596 -0.7467
 1969THY    HM249222   1.713   6.723   9.699  1.1984 -2.9928  1.1416
 1969THY    HM349223   1.613   6.730   9.558  0.5554  0.5119  0.4535
 1969THY    CA649224   1.847   6.603   9.456  0.0540 -0.1382  0.0900
 1969THY    HA649225   1.849   6.710   9.437  0.2870  0.4359  3.0262
 1970THY      O49226   4.626   2.709   8.238 -0.2520 -0.1661 -0.2532
 1970THY     HO49227   4.620   2.741   8.146  4.5826 -1.3412 -1.2569
 1970THY    CA149228   4.701   2.805   8.290 -0.0285 -0.1164  0.2814
 1970THY    CA249229   4.695   2.848   8.422  0.3880  0.2951  0.3893
 1970THY    CP149230   4.581   2.784   8.508  0.0556 -0.6341 -0.3853
 1970THY    HP149231   4.566   2.683   8.470 -0.7196  0.1818 -2.3909
 1970THY    CP249232   4.616   2.756   8.647 -0.3551 -0.0776 -0.7353
 1970THY    HP249233   4.533   2.709   8.700 -0.8976 -0.0503 -1.5479
 1970THY    HP349234   4.712   2.702   8.646  0.7771  1.8749 -1.5679
 1970THY    HP449235   4.634   2.856   8.687 -0.3809  0.1018 -1.1751
 1970THY    CP349236   4.463   2.870   8.485 -0.0257 -0.1479 -0.5681
 1970THY    HP549237   4.392   2.869   8.569 -2.3382  1.5260 -2.3488
 1970THY    HP649238   4.496   2.974   8.477  0.1614 -0.3064 -2.1895
 1970THY    HP749239   4.402   2.845   8.397 -1.7520 -0.9773  0.8018
 1970THY    CA349240   4.792   2.939   8.463  0.3526  0.4035 -0.0224
 1970THY    HA349241   4.778   2.965   8.568 -1.6408  0.8855 -0.3682
 1970THY    CA449242   4.886   2.991   8.377 -0.0334  0.3650 -0.8725
 1970THY    HA449243   4.965   3.064   8.396 -0.0584  0.6935 -1.9725
 1970THY    CA549244   4.887   2.948   8.246  0.2689  0.6913 -0.4178
 1970THY    CM149245   4.982   2.997   8.148  0.4062 -0.3200  0.1048
 1970THY    HM149246   5.027   3.093   8.175 -1.6437  0.8185 -0.3276
 1970THY    HM249247   5.074   2.938   8.140 -0.1908 -0.9732 -3.0188
 1970THY    HM349248   4.936   3.007   8.049 -0.4293  1.5256  0.6335
 1970THY    CA649249   4.797   2.853   8.206 -0.5574 -0.0612 -0.2308
 1970THY    HA649250   4.821   2.819   8.106 -1.8177  1.0749 -0.9435
 1971THY      O49251   9.271   3.985   9.444  0.2658 -0.1779  0.3376
 1971THY     HO49252   9.272   3.891   9.469  1.0469  0.7601  4.5099
 1971THY    CA149253   9.169   3.994   9.348 -0.5218  0.3837  0.4731
 1971THY    CA249254   9.132   4.117   9.293  0.7351  1.2912  0.7206
 1971THY    CP149255   9.190   4.257   9.321 -0.6103 -0.2484 -0.1446
 1971THY    HP149256   9.208   4.263   9.429  1.8631 -1.1764 -0.4385
 1971THY    CP249257   9.333   4.286   9.256 -0.8429 -0.4702  0.2532
 1971THY    HP249258   9.313   4.303   9.150 -0.7646 -0.4947  0.2342
 1971THY    HP349259   9.374   4.381   9.292  0.1584 -0.0389 -1.9173
 1971THY    HP449260   9.403   4.201   9.261  1.3891  1.1547 -1.4544
 1971THY    CP349261   9.103   4.373   9.289 -0.6908  0.1901 -0.7449
 1971THY    HP549262   9.149   4.459   9.337  0.8677  0.0742 -1.9497
 1971THY    HP649263   9.102   4.396   9.182  0.0324 -1.7587 -1.2184
 1971THY    HP749264   9.002   4.354   9.327 -0.0281  0.1085  1.0444
 1971THY    CA349265   9.029   4.110   9.197 -0.0443  0.5143  0.2941
 1971THY    HA349266   8.999   4.197   9.139  1.7887  1.8480  1.2179
 1971THY    CA449267   8.982   3.988   9.149  0.0344 -0.4088 -0.9100
 1971THY    HA449268   8.909   3.987   9.069  1.0778  0.0759 -1.8877
 1971THY    CA549269   9.022   3.869   9.205  0.4345  0.3263  0.2174
 1971THY    CM149270   8.961   3.739   9.164 -0.1423  0.2042  0.3518
 1971THY    HM149271   9.018   3.674   9.097  0.7447 -1.8044  2.8590
 1971THY    HM249272   8.975   3.682   9.257 -1.4923  0.4921  0.7547
 1971THY    HM349273   8.851   3.735   9.162 -0.1320 -2.5725  1.0478
 1971THY    CA649274   9.116   3.871   9.310 -0.0561  0.3101  0.3915
 1971THY    HA649275   9.159   3.776   9.341 -1.8672 -0.6911  0.0271
 1972THY      O49276   8.330   9.365   8.845 -0.1244  1.0693  0.1412
 1972THY     HO49277   8.423   9.346   8.869 -1.2626 -1.6377  3.0869
 1972THY    CA149278   8.322   9.323   8.716 -0.0961 -0.6194  0.2544
 1972THY    CA249279   8.205   9.260   8.678  0.2943 -0.0767  0.1424
 1972THY    CP149280   8.084   9.248   8.775  0.2430  0.5119  0.0033
 1972THY    HP149281   8.099   9.299   8.871  1.7238  2.0289 -0.9619
 1972THY    CP249282   7.969   9.329   8.704  0.4347  0.1965  0.0205
 1972THY    HP249283   7.940   9.275   8.613  0.3249 -0.7463  0.6033
 1972THY    HP349284   7.879   9.326   8.766  0.1169 -0.5946 -0.4621
 1972THY    HP449285   8.003   9.431   8.679  1.2059  0.0233  0.3179
 1972THY    CP349286   8.039   9.104   8.801  0.3212 -0.9950 -0.3289
 1972THY    HP549287   7.967   9.071   8.725 -2.3357  1.4445  0.9518
 1972THY    HP649288   8.121   9.032   8.813 -0.5251 -1.8168  0.7811
 1972THY    HP749289   7.965   9.113   8.881 -1.5584 -0.1490 -2.0832
 1972THY    CA349290   8.196   9.220   8.542 -0.0639  0.0728 -0.5140
 1972THY    HA349291   8.111   9.165   8.502  1.1552 -1.8796 -0.5659
 1972THY    CA449292   8.306   9.231   8.459 -0.3615 -0.0289  0.0630
 1972THY    HA449293   8.306   9.195   8.356  2.5108 -0.7288  0.2180
 1972THY    CA549294   8.425   9.290   8.497 -0.0580 -0.1686  0.4776
 1972THY    CM149295   8.547   9.307   8.403 -0.5867  0.2081 -0.4318
 1972THY    HM149296   8.512   9.294   8.300 -3.4344  0.5443  0.3934
 1972THY    HM249297   8.598   9.402   8.423 -0.2838 -0.1564  0.5840
 1972THY    HM349298   8.619   9.227   8.420 -1.5863 -0.9395 -1.4324
 1972THY    CA649299   8.435   9.327   8.629  0.1060 -0.8622 -0.5859
 1972THY    HA649300   8.523   9.375   8.671 -0.5459  1.2897 -1.5052
 1973THY      O49301   2.184   8.097   1.638 -0.5152 -0.4704 -0.0801
 1973THY     HO49302   2.132   8.144   1.705  0.6477 -0.8714  1.1322
 1973THY    CA149303   2.259   8.186   1.571  0.4099 -0.3002  0.0949
 1973THY    CA249304   2.324   8.142   1.449  0.2379 -0.5775  0.2038
 1973THY    CP149305   2.296   8.006   1.385  0.1817  0.2996  0.2331
 1973THY    HP149306   2.223   7.947   1.441  0.1658  0.0874 -0.0083
 1973THY    CP249307   2.238   8.026   1.243  0.1070  0.3562 -0.8329
 1973THY    HP249308   2.256   7.937   1.180  0.7254  0.5283 -0.9073
 1973THY    HP349309   2.139   8.070   1.251  0.2664  0.8580 -1.4817
 1973THY    HP449310   2.302   8.096   1.187  0.0566  1.2602  0.2175
 1973THY    CP349311   2.426   7.930   1.378  0.0366  0.4740  0.4292
 1973THY    HP549312   2.420   7.826   1.343 -0.2532  0.8217 -0.5797
 1973THY    HP649313   2.501   7.982   1.318  0.8505 -1.7339 -0.5884
 1973THY    HP749314   2.468   7.925   1.479  0.9225 -1.2052  0.0214
 1973THY    CA349315   2.414   8.238   1.391 -0.1340  0.5370 -0.1773
 1973THY    HA349316   2.472   8.205   1.306 -0.5989 -4.4043  1.1041
 1973THY    CA449317   2.424   8.366   1.444  0.2793 -0.7696  0.2659
 1973THY    HA449318   2.479   8.446   1.394 -0.7180 -0.1334  0.1609
 1973THY    CA549319   2.348   8.404   1.555  0.3071 -0.3871  0.4462
 1973THY    CM149320   2.348   8.546   1.591 -0.3754 -0.2004 -0.5659
 1973THY    HM149321   2.246   8.584   1.602  0.0087  0.4769  1.0869
 1973THY    HM249322   2.396   8.566   1.688 -1.0835  3.1638 -0.7776
 1973THY    HM349323   2.407   8.607   1.521  1.5150 -2.5858 -1.1682
 1973THY    CA649324   2.268   8.315   1.619 -1.3040  0.4261  0.1368
 1973THY    HA649325   2.222   8.352   1.710  0.9717  3.1905  0.2929
 1974THY      O49326   3.282   3.888   5.300 -0.7442  0.3210 -0.0351
 1974THY     HO49327   3.193   3.926   5.300 -1.1259 -0.5128  1.0934
 1974THY    CA149328   3.320   3.865   5.172 -0.4527 -0.2387 -0.6967
 1974THY    CA249329   3.452   3.853   5.134 -0.5018 -0.0997  0.5615
 1974THY    CP149330   3.560   3.852   5.239 -0.4684  0.0184  0.2116
 1974THY    HP149331   3.522   3.851   5.342 -0.9464 -0.3099  0.0374
 1974THY    CP249332   3.654   3.727   5.223 -0.3440 -0.1877 -0.0281
 1974THY    HP249333   3.732   3.744   5.298  0.0827  0.4615 -0.6015
 1974THY    HP349334   3.593   3.644   5.259  0.8977 -0.4416  1.5584
 1974THY    HP449335   3.702   3.707   5.126  1.0688 -1.9659  1.0010
 1974THY    CP349336   3.640   3.981   5.223  0.0603  0.0483 -0.0104
 1974THY    HP549337   3.688   3.995   5.125 -0.9551  0.0506 -0.5152
 1974THY    HP649338   3.578   4.068   5.247 -0.1883  0.3898 -1.7730
 1974THY    HP749339   3.716   3.992   5.301  1.0991  4.2308 -1.3765
 1974THY    CA349340   3.479   3.847   4.996 -0.1247  0.0453  0.5064
 1974THY    HA349341   3.581   3.853   4.958  0.5972  1.0040  2.4264
 1974THY    CA449342   3.364   3.839   4.911  0.2564  0.8157  0.7862
 1974THY    HA449343   3.372   3.833   4.802 -1.9697 -2.6634  0.6691
 1974THY    CA549344   3.237   3.846   4.953  0.0363 -0.4860 -0.0410
 1974THY    CM149345   3.117   3.847   4.855  0.4357  0.4326 -0.1108
 1974THY    HM149346   3.020   3.869   4.900  0.3303  0.2516 -0.2477
 1974THY    HM249347   3.132   3.918   4.773  1.4961 -0.7633 -0.9995
 1974THY    HM349348   3.110   3.745   4.816  0.1156 -0.3633  1.9177
 1974THY    CA649349   3.215   3.863   5.087 -0.2786  0.0748  0.1559
 1974THY    HA649350   3.112   3.865   5.120 -0.2252 -0.9207  0.4031
 1975THY      O49351   6.996   9.544   0.785 -1.1049 -0.3682 -0.3373
 1975THY     HO49352   6.949   9.498   0.857 -1.1339  2.0502  1.3125
 1975THY    CA149353   7.128   9.547   0.827  0.0126 -0.3303  0.0726
 1975THY    CA249354   7.224   9.591   0.739  0.1752 -0.3096 -0.0436
 1975THY    CP149355   7.189   9.655   0.601 -0.6792  0.5853 -0.5284
 1975THY    HP149356   7.083   9.684   0.600 -1.1125 -0.8034  0.6485
 1975THY    CP249357   7.260   9.785   0.563 -0.4506  0.5477  0.5655
 1975THY    HP249358   7.362   9.771   0.524 -0.4073  0.7563  0.6021
 1975THY    HP349359   7.220   9.832   0.473  1.0637  0.4328 -0.2093
 1975THY    HP449360   7.256   9.864   0.639  1.0447  1.2980 -0.0920
 1975THY    CP349361   7.205   9.559   0.492  0.6341 -0.4303 -0.3571
 1975THY    HP549362   7.142   9.593   0.410  1.5458  1.1625 -0.4353
 1975THY    HP649363   7.310   9.560   0.458  0.4963 -0.1512 -0.7806
 1975THY    HP749364   7.171   9.460   0.524 -2.2804  0.6752  0.2558
 1975THY    CA349365   7.359   9.576   0.776 -0.0340 -0.1037 -0.3063
 1975THY    HA349366   7.431   9.584   0.696 -0.7818  4.3872 -0.7732
 1975THY    CA449367   7.390   9.548   0.912 -0.5946 -0.2621  0.4106
 1975THY    HA449368   7.491   9.565   0.946  0.1562 -0.0338 -1.7548
 1975THY    CA549369   7.287   9.508   0.995 -0.5080  0.2443  0.0243
 1975THY    CM149370   7.322   9.467   1.137  0.6224 -0.3489 -0.2218
 1975THY    HM149371   7.285   9.367   1.162  0.4709 -0.6895 -1.7371
 1975THY    HM249372   7.428   9.445   1.151  1.0489 -0.3604 -2.8815
 1975THY    HM349373   7.272   9.539   1.203  0.1711  0.1558 -1.0861
 1975THY    CA649374   7.158   9.503   0.956 -0.2369  0.2312 -0.1208
 1975THY    HA649375   7.075   9.468   1.017  0.3867 -0.5089  0.3217
 1976THY      O49376   1.705   8.112   9.583 -0.1092 -0.0029 -0.3613
 1976THY     HO49377   1.796   8.145   9.575 -0.2030  0.5047  0.5901
 1976THY    CA149378   1.645   8.138   9.463 -0.4307  0.0827 -0.8689
 1976THY    CA249379   1.505   8.104   9.431 -0.5824 -0.5650 -0.3922
 1976THY    CP149380   1.429   8.023   9.540  0.0509 -0.0224  0.6711
 1976THY    HP149381   1.506   7.953   9.573  1.0859  0.1178 -1.2556
 1976THY    CP249382   1.386   8.124   9.651  0.5939  0.6814  0.4956
 1976THY    HP249383   1.464   8.190   9.692 -0.8903  1.4264  2.2741
 1976THY    HP349384   1.298   8.175   9.608 -0.4435 -2.6254 -1.7008
 1976THY    HP449385   1.339   8.059   9.725  1.0509  0.5043  0.6296
 1976THY    CP349386   1.301   7.951   9.488 -0.2104  0.2524 -0.4470
 1976THY    HP549387   1.322   7.883   9.405 -1.7177 -1.9949  0.8831
 1976THY    HP649388   1.272   7.886   9.572  1.0482  1.4913  1.0054
 1976THY    HP749389   1.216   8.017   9.464 -0.0073  0.4192 -0.7104
 1976THY    CA349390   1.467   8.129   9.299  0.8602  0.2445  0.3136
 1976THY    HA349391   1.366   8.101   9.269  0.8203 -1.7930  2.1785
 1976THY    CA449392   1.546   8.190   9.208  0.5261  0.1151 -0.4088
 1976THY    HA449393   1.504   8.196   9.109  1.0467  1.0574 -0.5838
 1976THY    CA549394   1.677   8.213   9.242 -0.1797 -0.6814 -0.6227
 1976THY    CM149395   1.775   8.267   9.138  0.6142  0.4328  0.0806
 1976THY    HM149396   1.824   8.184   9.084 -1.1007 -0.2273 -0.5223
 1976THY    HM249397   1.731   8.333   9.062  0.7395  1.0963  0.5793
 1976THY    HM349398   1.867   8.317   9.171  0.5575  1.1165 -0.7493
 1976THY    CA649399   1.724   8.195   9.367 -0.4834  0.3867 -0.0194
 1976THY    HA649400   1.823   8.228   9.395  0.0253 -1.1358  0.0477
 1977THY      O49401   7.477   2.838   7.085 -0.3327 -0.8626 -0.1552
 1977THY     HO49402   7.439   2.752   7.108 -3.3058 -0.7974 -3.8236
 1977THY    CA149403   7.382   2.938   7.090  0.3036  0.1884  0.6581
 1977THY    CA249404   7.418   3.073   7.078  0.1994  0.4714 -0.1149
 1977THY    CP149405   7.564   3.106   7.042  0.2032 -0.4288  0.0270
 1977THY    HP149406   7.608   3.032   6.975  0.6254 -0.1946  0.0440
 1977THY    CP249407   7.589   3.251   6.977 -0.6934  0.3108 -0.3533
 1977THY    HP249408   7.575   3.325   7.057  0.0538  0.5931 -0.4803
 1977THY    HP349409   7.693   3.262   6.944  0.5596 -1.8074  2.4919
 1977THY    HP449410   7.519   3.283   6.899  1.3560  4.3614 -0.8133
 1977THY    CP349411   7.646   3.108   7.178  0.0695 -0.2854  0.1683
 1977THY    HP549412   7.635   3.023   7.246 -1.3787  0.8669  1.4634
 1977THY    HP649413   7.752   3.130   7.160 -0.3627  1.2571 -0.6267
 1977THY    HP749414   7.605   3.192   7.236  1.5051  2.6471 -2.7570
 1977THY    CA349415   7.325   3.176   7.103  0.2841  0.6854 -0.3368
 1977THY    HA349416   7.350   3.281   7.107 -0.2551  0.7853  0.6124
 1977THY    CA449417   7.194   3.137   7.135  0.0478 -0.0980 -1.0691
 1977THY    HA449418   7.125   3.218   7.156 -0.6343 -1.3600  2.2234
 1977THY    CA549419   7.149   3.003   7.135  0.2982  0.1637  0.1167
 1977THY    CM149420   7.009   2.977   7.181 -0.3021 -0.0215  0.3333
 1977THY    HM149421   6.963   3.056   7.242 -0.4288  0.6257 -0.5778
 1977THY    HM249422   6.934   2.960   7.102  0.4080 -0.8462 -0.1776
 1977THY    HM349423   7.018   2.891   7.249 -2.5061  1.6637  2.9499
 1977THY    CA649424   7.247   2.908   7.114 -0.6235 -0.0610 -0.5487
 1977THY    HA649425   7.217   2.806   7.131 -1.0402  0.2458  0.6508
 1978THY      O49426   2.324   1.961   5.776  0.3673  0.1669  0.8306
 1978THY     HO49427   2.395   2.017   5.739 -2.2208  2.7748 -0.6345
 1978THY    CA149428   2.241   2.039   5.841  0.8326  0.0264  0.1998
 1978THY    CA249429   2.108   1.999   5.853 -1.0238  0.5886  0.4980
 1978THY    CP149430   2.055   1.873   5.785 -0.0559  0.2242  0.6230
 1978THY    HP149431   2.133   1.798   5.768 -0.9298 -0.3020 -1.3911
 1978THY    CP249432   1.943   1.798   5.868  0.0927 -0.0080 -0.0564
 1978THY    HP249433   1.904   1.714   5.809  0.8292  1.3380 -2.6142
 1978THY    HP349434   1.984   1.747   5.957 -0.5674  0.5189  0.5635
 1978THY    HP449435   1.864   1.859   5.913  1.4910  0.8236  1.3720
 1978THY    CP349436   2.003   1.907   5.646  0.3040  0.7321 -0.5016
 1978THY    HP549437   2.075   1.960   5.581  0.9807 -0.6132 -0.8917
 1978THY    HP649438   1.983   1.808   5.603  0.6393  0.3391  0.2296
 1978THY    HP749439   1.907   1.960   5.643 -0.1088 -0.0240 -1.0904
 1978THY    CA349440   2.026   2.095   5.918 -0.0069  0.3303 -0.1217
 1978THY    HA349441   1.920   2.076   5.936 -0.1114  0.7924 -0.2401
 1978THY    CA449442   2.082   2.206   5.986 -0.1172  0.1675  0.4405
 1978THY    HA449443   2.008   2.273   6.029 -2.0391  0.4429 -2.9200
 1978THY    CA549444   2.223   2.241   5.980 -0.5159  1.3184 -0.1664
 1978THY    CM149445   2.282   2.360   6.050  0.3732  0.1545 -0.4753
 1978THY    HM149446   2.304   2.338   6.155  0.3710 -0.1306 -0.5340
 1978THY    HM249447   2.371   2.405   6.006  0.0795  2.8543  1.4228
 1978THY    HM349448   2.217   2.448   6.055 -0.2025 -0.3154  0.9979
 1978THY    CA649449   2.297   2.146   5.904 -0.4599  0.4326 -0.3890
 1978THY    HA649450   2.403   2.165   5.885 -0.1416 -0.6591  0.1933
 1979THY      O49451   1.938   1.115   0.273  0.6608 -0.2843  0.1612
 1979THY     HO49452   1.902   1.171   0.344  3.2311  0.3732  1.0552
 1979THY    CA149453   1.871   1.142   0.155  0.0160 -0.2877 -0.1185
 1979THY    CA249454   1.892   1.064   0.036 -0.4126 -0.7163 -0.1904
 1979THY    CP149455   1.984   0.935   0.043  0.3964 -0.3936  0.2630
 1979THY    HP149456   2.038   0.927   0.138  0.8485  1.3340  0.1730
 1979THY    CP249457   1.906   0.802   0.025 -0.3120  0.1041 -0.1191
 1979THY    HP249458   1.977   0.719   0.031  0.3359  0.6662  0.0918
 1979THY    HP349459   1.841   0.778   0.110 -0.8594 -3.9025 -1.4558
 1979THY    HP449460   1.859   0.793  -0.074 -0.5258 -1.1971  0.0830
 1979THY    CP349461   2.093   0.937  -0.064  1.0151 -0.3085 -0.2286
 1979THY    HP549462   2.160   0.851  -0.053  0.8316 -0.1541  3.1925
 1979THY    HP649463   2.055   0.935  -0.167  2.2155 -0.7374 -0.6740
 1979THY    HP749464   2.155   1.027  -0.052 -1.8918  1.7618  0.3694
 1979THY    CA349465   1.824   1.099  -0.086 -0.5267 -0.0862  0.0360
 1979THY    HA349466   1.835   1.037  -0.175  0.0647  0.9782 -0.6535
 1979THY    CA449467   1.763   1.222  -0.093  0.3848 -0.3719  0.6590
 1979THY    HA449468   1.716   1.254  -0.186 -1.4292 -0.2954  1.5712
 1979THY    CA549469   1.751   1.298   0.020 -0.0133 -0.0119 -0.8292
 1979THY    CM149470   1.674   1.435   0.027  0.0888  0.0143 -0.4214
 1979THY    HM149471   1.578   1.419   0.078  1.0260  0.2041  1.4835
 1979THY    HM249472   1.732   1.509   0.084  0.8523 -0.0759 -1.0619
 1979THY    HM349473   1.653   1.485  -0.069  2.8965  2.9326  0.2948
 1979THY    CA649474   1.808   1.259   0.144  0.2870  0.5534  0.6943
 1979THY    HA649475   1.789   1.329   0.225 -3.4955  0.6066 -0.0587
 1980THY      O49476   9.655   5.275   7.674 -0.2889  0.7630 -0.3616
 1980THY     HO49477   9.561   5.295   7.685 -0.3088  0.7099 -0.4371
 1980THY    CA149478   9.681   5.163   7.603  0.1459 -0.2152 -0.4912
 1980THY    CA249479   9.790   5.083   7.630 -0.3724 -0.0168  0.0938
 1980THY    CP149480   9.894   5.118   7.744 -0.2304 -0.0804 -0.8328
 1980THY    HP149481   9.864   5.213   7.789 -0.7941 -0.2049 -0.9371
 1980THY    CP249482   9.887   5.007   7.852 -0.0680  0.8357 -0.7366
 1980THY    HP249483   9.906   4.907   7.810  0.9474  0.5369  0.3815
 1980THY    HP349484   9.959   5.042   7.927 -0.9582  1.0845  0.0151
 1980THY    HP449485   9.786   5.013   7.892  0.4048  0.3336  0.5720
 1980THY    CP349486  10.042   5.124   7.693  0.2145  0.0334  0.4745
 1980THY    HP549487  10.064   5.019   7.668 -1.2045 -0.4914  1.3093
 1980THY    HP649488  10.053   5.179   7.599  1.5910 -2.7586 -1.1366
 1980THY    HP749489  10.120   5.144   7.768  0.4064 -3.5920  1.4597
 1980THY    CA349490   9.799   4.960   7.565  0.6629 -0.2054 -0.3334
 1980THY    HA349491   9.872   4.887   7.599 -0.6628 -2.2676 -1.6597
 1980THY    CA449492   9.705   4.916   7.476  1.1651 -0.0535 -0.2162
 1980THY    HA449493   9.705   4.816   7.432 -0.0112  0.8713 -2.4654
 1980THY    CA549494   9.595   4.994   7.447  1.1255 -0.1489 -0.2762
 1980THY    CM149495   9.491   4.951   7.360  0.2073  0.0489  0.4454
 1980THY    HM149496   9.535   4.877   7.292  1.2521 -0.0454  1.1899
 1980THY    HM249497   9.395   4.921   7.403 -0.6567  1.4006 -0.4582
 1980THY    HM349498   9.475   5.031   7.287 -1.1461  1.0363  1.7740
 1980THY    CA649499   9.582   5.121   7.509  0.1908  0.0604  0.2611
 1980THY    HA649500   9.496   5.184   7.492 -0.1746 -0.3527  0.5637
 1981THY      O49501   0.343   8.859   7.840  0.1111 -0.2246  0.3097
 1981THY     HO49502   0.259   8.867   7.888 -0.1502 -1.3635  0.0568
 1981THY    CA149503   0.421   8.967   7.875  0.3406 -0.0689 -0.3016
 1981THY    CA249504   0.545   8.991   7.812 -0.5678 -0.2231  0.0146
 1981THY    CP149505   0.589   8.911   7.695 -0.2335  0.2496 -0.7222
 1981THY    HP149506   0.529   8.822   7.672  0.3956  0.5811 -4.1740
 1981THY    CP249507   0.579   8.994   7.568  0.3995  0.3431 -0.5447
 1981THY    HP249508   0.598   8.941   7.474  0.4970  1.3037 -1.0816
 1981THY    HP349509   0.481   9.041   7.561  0.4735  0.5549 -0.1718
 1981THY    HP449510   0.649   9.078   7.571  1.4143 -0.4135  3.8120
 1981THY    CP349511   0.731   8.851   7.713 -0.4181 -0.5268  0.3928
 1981THY    HP549512   0.755   8.774   7.639  1.9478 -0.1771  0.7183
 1981THY    HP649513   0.808   8.928   7.699 -0.2270 -0.8968 -0.6123
 1981THY    HP749514   0.748   8.807   7.812  0.8912  0.1060  0.4682
 1981THY    CA349515   0.624   9.097   7.857 -0.7621 -0.1656  0.0919
 1981THY    HA349516   0.718   9.117   7.808 -1.6470 -0.1234 -1.6719
 1981THY    CA449517   0.582   9.168   7.971 -0.3991  0.2487 -0.0813
 1981THY    HA449518   0.648   9.248   8.003  0.5892 -0.1951 -0.9437
 1981THY    CA549519   0.459   9.143   8.034  0.2735  0.3095 -0.3324
 1981THY    CM149520   0.422   9.226   8.156 -0.5456  0.0703  0.2939
 1981THY    HM149521   0.326   9.194   8.199 -0.6628 -3.7549 -2.2933
 1981THY    HM249522   0.497   9.210   8.235  0.0676 -1.4791 -0.5666
 1981THY    HM349523   0.416   9.334   8.136 -0.1348  0.0268 -0.0962
 1981THY    CA649524   0.385   9.036   7.985  0.4861  0.7605 -0.4544
 1981THY    HA649525   0.290   9.011   8.031  0.6117 -1.0802 -1.1001
 1982THY      O49526   9.767   8.672   7.173 -0.1856 -0.4233 -0.4603
 1982THY     HO49527   9.772   8.730   7.251  2.7697 -0.0696 -0.7746
 1982THY    CA149528   9.890   8.686   7.126  0.1232 -0.2412  0.0036
 1982THY    CA249529   9.930   8.688   6.991 -0.1304  0.9171  0.3365
 1982THY    CP149530   9.818   8.678   6.881 -0.5144 -0.3099  0.1695
 1982THY    HP149531   9.726   8.695   6.940  0.0224  0.3830  0.8408
 1982THY    CP249532   9.844   8.795   6.784  1.0454  0.5525  0.6728
 1982THY    HP249533   9.929   8.765   6.722 -0.2600 -1.5340 -0.2015
 1982THY    HP349534   9.765   8.814   6.710 -0.2219 -1.0162  1.5581
 1982THY    HP449535   9.883   8.876   6.847  2.8161 -0.9010  1.5322
 1982THY    CP349536   9.807   8.543   6.816  0.1518 -0.1381  0.2540
 1982THY    HP549537   9.772   8.478   6.896  2.0619  0.3986  1.5743
 1982THY    HP649538   9.724   8.549   6.744  1.7605  0.5487 -1.6355
 1982THY    HP749539   9.901   8.504   6.776  0.6581  1.2096  0.0645
 1982THY    CA349540  10.064   8.702   6.956 -0.3669  0.3566 -0.7554
 1982THY    HA349541  10.097   8.712   6.853 -1.8427  0.5085 -1.2492
 1982THY    CA449542  10.159   8.714   7.060  0.0400 -0.6733  0.5392
 1982THY    HA449543  10.263   8.713   7.027  0.0860 -0.2588  0.6676
 1982THY    CA549544  10.124   8.711   7.195 -0.3196  0.0458 -0.8321
 1982THY    CM149545  10.237   8.731   7.300 -0.0598 -0.8207  0.1245
 1982THY    HM149546  10.306   8.646   7.304  1.2284  0.2287  0.5611
 1982THY    HM249547  10.291   8.821   7.270 -0.6294 -0.7469 -0.7116
 1982THY    HM349548  10.197   8.769   7.395 -0.9350  1.9446 -1.2575
 1982THY    CA649549   9.985   8.698   7.226 -0.2760  0.2882  0.9734
 1982THY    HA649550   9.948   8.702   7.328 -1.2685  0.1231  0.6225
 1983THY      O49551   4.660   0.719   0.539 -0.4120  0.4191 -0.2114
 1983THY     HO49552   4.734   0.682   0.592 -0.7658 -1.6581 -1.0646
 1983THY    CA149553   4.722   0.822   0.476 -0.5040  0.3832  0.7149
 1983THY    CA249554   4.708   0.844   0.333  0.4464 -0.0360 -0.6096
 1983THY    CP149555   4.624   0.753   0.242  0.9435  0.0515  0.5011
 1983THY    HP149556   4.636   0.652   0.284 -0.1622 -0.0965  0.4823
 1983THY    CP249557   4.478   0.803   0.245 -0.2360  0.0085  0.4128
 1983THY    HP249558   4.472   0.909   0.220 -0.3062  0.1011  0.8203
 1983THY    HP349559   4.414   0.750   0.174 -0.9703  1.7477 -0.2657
 1983THY    HP449560   4.440   0.781   0.345 -0.2150 -0.3624  0.3399
 1983THY    CP349561   4.665   0.747   0.095 -0.8069  0.1328  0.5816
 1983THY    HP549562   4.608   0.668   0.044  0.4979 -0.8033  0.5191
 1983THY    HP649563   4.646   0.840   0.041 -0.5577 -0.6901 -0.9761
 1983THY    HP749564   4.772   0.726   0.079  0.0329  3.7874  0.6302
 1983THY    CA349565   4.755   0.968   0.278 -0.1186 -0.6851 -0.0007
 1983THY    HA349566   4.732   0.992   0.175  0.8776  0.1272 -0.0532
 1983THY    CA449567   4.821   1.060   0.361  0.7525 -0.0423  0.0088
 1983THY    HA449568   4.857   1.152   0.317  1.8687  0.5096  1.9266
 1983THY    CA549569   4.858   1.021   0.491  0.2942 -0.1686  0.2432
 1983THY    CM149570   4.946   1.106   0.579  0.0981  1.4290 -0.7212
 1983THY    HM149571   4.959   1.062   0.679 -1.5558  1.4830 -0.4526
 1983THY    HM249572   5.046   1.115   0.536  0.8840 -1.0092  0.3703
 1983THY    HM349573   4.906   1.207   0.590  0.4966  1.4974  0.2166
 1983THY    CA649574   4.802   0.908   0.551  0.0278  0.0632 -0.4326
 1983THY    HA649575   4.819   0.886   0.656  3.1131 -1.1870 -1.0798
 1984THY      O49576   8.442   5.070   4.658  0.6506  0.1472 -0.4091
 1984THY     HO49577   8.406   5.086   4.747 -0.5984 -0.9736 -0.6706
 1984THY    CA149578   8.577   5.077   4.668 -0.0557  0.0146 -0.3297
 1984THY    CA249579   8.665   5.067   4.552 -0.8506  0.0851 -0.6712
 1984THY    CP149580   8.599   5.037   4.420 -0.2580 -0.8322  0.0201
 1984THY    HP149581   8.490   5.039   4.430 -0.1999  1.9901  1.3435
 1984THY    CP249582   8.626   5.157   4.324 -0.7617  0.2566 -0.2940
 1984THY    HP249583   8.731   5.180   4.306 -0.0394 -0.3211  2.7218
 1984THY    HP349584   8.583   5.139   4.224 -0.0281  3.1207 -1.2317
 1984THY    HP449585   8.579   5.249   4.360  0.6241  0.5874  0.7167
 1984THY    CP349586   8.661   4.909   4.346  0.2236  0.0413  0.3274
 1984THY    HP549587   8.647   4.820   4.409 -3.0047  0.4682  0.4038
 1984THY    HP649588   8.617   4.895   4.247  1.1017 -0.0502 -0.0574
 1984THY    HP749589   8.766   4.924   4.320 -0.6432  2.9623 -1.9375
 1984THY    CA349590   8.804   5.079   4.572  0.1716  0.5811 -0.4332
 1984THY    HA349591   8.864   5.070   4.482  0.9703 -2.0081  0.2799
 1984THY    CA449592   8.850   5.105   4.701  0.2386  0.1949  0.0692
 1984THY    HA449593   8.955   5.132   4.704  0.0333  1.0778 -0.1409
 1984THY    CA549594   8.766   5.117   4.812  0.4235  0.0955 -0.2354
 1984THY    CM149595   8.825   5.164   4.934 -1.6101 -0.4287  0.3833
 1984THY    HM149596   8.848   5.083   5.004  0.8442  0.2625  0.4895
 1984THY    HM249597   8.919   5.217   4.913 -2.6234  0.8137 -1.2461
 1984THY    HM349598   8.763   5.238   4.985 -2.0724  0.2385 -1.0930
 1984THY    CA649599   8.631   5.108   4.791  1.0380  0.0842  0.1613
 1984THY    HA649600   8.559   5.112   4.872 -0.5803  2.0730 -1.2536
 1985THY      O49601   2.190   8.829   7.435 -0.0999 -0.1667 -0.0809
 1985THY     HO49602   2.198   8.799   7.343  1.9859  0.7676 -0.2640
 1985THY    CA149603   2.307   8.803   7.497  0.9633  0.0011  0.4135
 1985THY    CA249604   2.310   8.786   7.634  0.6333 -0.0046 -0.3403
 1985THY    CP149605   2.176   8.798   7.709 -0.6471  0.5280  0.1524
 1985THY    HP149606   2.095   8.758   7.647 -1.2399  0.5614  0.8812
 1985THY    CP249607   2.160   8.699   7.830 -0.2863  0.2956  0.2678
 1985THY    HP249608   2.154   8.594   7.799 -0.9260  0.4514 -0.1694
 1985THY    HP349609   2.237   8.729   7.901  1.2428 -0.4206 -1.0066
 1985THY    HP449610   2.064   8.724   7.875 -0.1688 -1.3675  1.5390
 1985THY    CP349611   2.155   8.939   7.749 -0.2276 -1.0622 -0.3251
 1985THY    HP549612   2.239   8.968   7.812 -1.8198 -1.4223  2.0685
 1985THY    HP649613   2.140   9.005   7.663 -1.2441  0.6258  1.0860
 1985THY    HP749614   2.067   8.955   7.811  1.8626  2.0369  2.1314
 1985THY    CA349615   2.433   8.779   7.702  0.0758 -0.1609  0.1411
 1985THY    HA349616   2.430   8.772   7.810  2.0213 -1.2670  0.1635
 1985THY    CA449617   2.552   8.768   7.626 -0.1335  0.3895  0.2446
 1985THY    HA449618   2.647   8.751   7.676  0.1399 -1.2229 -0.7514
 1985THY    CA549619   2.546   8.774   7.484 -0.1233  0.2381  0.5336
 1985THY    CM149620   2.673   8.762   7.408 -0.0015  0.0619 -0.7605
 1985THY    HM149621   2.662   8.708   7.313  0.9863 -2.0023  0.2262
 1985THY    HM249622   2.720   8.861   7.406 -1.0463  0.7946  2.8176
 1985THY    HM349623   2.741   8.699   7.467 -0.6279  1.3184  1.4213
 1985THY    CA649624   2.424   8.797   7.423 -0.8258 -0.1433 -0.2471
 1985THY    HA649625   2.415   8.813   7.315 -0.4507 -1.2224 -0.4478
 1986THY      O49626   6.628   2.425   6.105 -0.3937  0.0229  0.3580
 1986THY     HO49627   6.564   2.478   6.054 -1.3411 -1.2708  0.1495
 1986THY    CA149628   6.741   2.425   6.038 -0.7271  1.1344 -1.1308
 1986THY    CA249629   6.869   2.443   6.097 -0.2534 -0.4926  0.7417
 1986THY    CP149630   6.884   2.457   6.248  0.0612 -0.2608 -0.6205
 1986THY    HP149631   6.803   2.397   6.291  0.8289 -0.8662  0.0305
 1986THY    CP249632   6.995   2.387   6.307 -0.3398  0.5771  0.1488
 1986THY    HP249633   7.083   2.450   6.287 -0.7753  0.8463 -0.9638
 1986THY    HP349634   6.992   2.386   6.417  2.6472 -0.8904  0.3142
 1986THY    HP449635   7.003   2.284   6.270 -0.0432 -0.1521  2.1079
 1986THY    CP349636   6.874   2.597   6.310  0.1991  0.4136 -0.5467
 1986THY    HP549637   6.885   2.588   6.418  2.5731  1.6850 -0.5997
 1986THY    HP649638   6.951   2.663   6.267  0.6300  0.5659  0.4443
 1986THY    HP749639   6.778   2.643   6.284  1.2610  2.7203 -0.6880
 1986THY    CA349640   6.985   2.424   6.009  0.2866  0.1122  0.5477
 1986THY    HA349641   7.088   2.423   6.043 -0.2407 -2.4750  2.3746
 1986THY    CA449642   6.962   2.408   5.872 -0.0212  0.0637 -0.2410
 1986THY    HA449643   7.046   2.388   5.807  0.5220 -1.0618  0.7646
 1986THY    CA549644   6.836   2.409   5.818 -0.3445 -0.2038  0.4574
 1986THY    CM149645   6.822   2.384   5.671  0.4409 -0.2467  0.1876
 1986THY    HM149646   6.917   2.390   5.617  0.8550 -0.8489  0.8356
 1986THY    HM249647   6.788   2.282   5.651  1.3212 -0.5378  0.1230
 1986THY    HM349648   6.750   2.452   5.623 -0.3326 -0.4082  1.0925
 1986THY    CA649649   6.729   2.414   5.902  0.2649  0.7996  0.5319
 1986THY    HA649650   6.638   2.392   5.847  2.2405 -0.5150 -2.4851
 1987THY      O49651   6.870   2.143   0.008 -0.5361  0.5398 -0.2164
 1987THY     HO49652   6.793   2.112  -0.043 -2.5187  1.6766  1.9198
 1987THY    CA149653   6.969   2.063  -0.019  0.6370  0.3601 -0.1801
 1987THY    CA249654   7.100   2.097   0.007 -0.6634  0.3059 -0.1764
 1987THY    CP149655   7.141   2.214   0.093  0.2884  0.9992 -0.3340
 1987THY    HP149656   7.065   2.291   0.103 -0.1838  0.3010  2.0606
 1987THY    CP249657   7.175   2.166   0.238  0.0177  0.3694 -0.2101
 1987THY    HP249658   7.252   2.089   0.250  0.1828  0.4082 -0.9979
 1987THY    HP349659   7.193   2.252   0.303 -0.8817  0.2920  0.1628
 1987THY    HP449660   7.089   2.113   0.281  0.4349 -0.3652 -0.2609
 1987THY    CP349661   7.260   2.288   0.036  0.3873  0.1984  0.1612
 1987THY    HP549662   7.241   2.290  -0.072  0.7498  0.5680  0.0992
 1987THY    HP649663   7.261   2.389   0.079  0.3372  0.8985 -1.4121
 1987THY    HP749664   7.352   2.232   0.058 -0.1582  0.4111  3.5209
 1987THY    CA349665   7.198   1.999  -0.018  0.3204  0.5195  0.0690
 1987THY    HA349666   7.300   2.013   0.015 -0.4616  4.6362  1.4165
 1987THY    CA449667   7.160   1.875  -0.076  0.0444 -0.4787  1.2364
 1987THY    HA449668   7.242   1.811  -0.107  0.3728  0.5771 -0.1911
 1987THY    CA549669   7.029   1.842  -0.104 -0.1875  0.5383 -0.1625
 1987THY    CM149670   6.992   1.711  -0.165 -0.7517 -0.1163 -0.4178
 1987THY    HM149671   6.915   1.660  -0.106 -0.2039 -3.3718 -2.2547
 1987THY    HM249672   6.953   1.710  -0.267 -1.9446 -0.8305  0.0270
 1987THY    HM349673   7.084   1.654  -0.182 -0.1773  0.4659  0.6045
 1987THY    CA649674   6.934   1.939  -0.077  0.0918 -0.4017  0.1482
 1987THY    HA649675   6.831   1.911  -0.097  0.9283 -2.2769 -1.9710
 1988THY      O49676   2.454   9.653   4.563 -0.1275  0.6375 -0.2972
 1988THY     HO49677   2.402   9.734   4.552 -0.6202  1.0112  3.4879
 1988THY    CA149678   2.544   9.630   4.462  0.2576 -0.7188  0.7160
 1988THY    CA249679   2.598   9.508   4.436  0.3322 -0.3770  0.1019
 1988THY    CP149680   2.566   9.391   4.532 -0.7502  0.3465 -0.1441
 1988THY    HP149681   2.532   9.434   4.627  0.6192 -1.9362  1.4773
 1988THY    CP249682   2.444   9.315   4.479  0.0673  0.2761 -0.4388
 1988THY    HP249683   2.464   9.295   4.373 -0.1930  0.0832 -0.4519
 1988THY    HP349684   2.427   9.222   4.534 -2.1129  1.2417  0.6412
 1988THY    HP449685   2.355   9.380   4.477  0.4950  0.9833  1.5204
 1988THY    CP349686   2.690   9.295   4.546 -0.2615  0.1249 -0.2489
 1988THY    HP549687   2.784   9.348   4.567  0.9941 -1.6354 -1.1743
 1988THY    HP649688   2.679   9.214   4.619  1.3214 -0.7905 -0.9792
 1988THY    HP749689   2.692   9.242   4.450 -0.9990 -0.6489  0.1580
 1988THY    CA349690   2.685   9.487   4.327 -0.8098 -0.5760  0.0478
 1988THY    HA349691   2.725   9.390   4.302 -1.0919 -0.8179  0.5379
 1988THY    CA449692   2.718   9.599   4.252  0.1098 -0.0079 -0.0268
 1988THY    HA449693   2.779   9.581   4.163  1.7201 -0.1154  1.0547
 1988THY    CA549694   2.666   9.724   4.277  0.0216 -0.0153  0.1855
 1988THY    CM149695   2.702   9.845   4.192  0.5099  0.2618  0.4662
 1988THY    HM149696   2.716   9.820   4.086 -1.0809 -0.4957  0.4137
 1988THY    HM249697   2.625   9.922   4.197 -0.2021 -0.4789  1.3215
 1988THY    HM349698   2.798   9.873   4.237  0.2456 -0.4118  1.4904
 1988THY    CA649699   2.575   9.737   4.379  0.5245  0.8844  0.3749
 1988THY    HA649700   2.526   9.834   4.386 -0.0353  0.6371 -0.0591
 1989THY      O49701   9.638   6.793   9.302  0.3082 -0.2014 -0.0239
 1989THY     HO49702   9.734   6.805   9.300  0.2081  0.5977 -0.8712
 1989THY    CA149703   9.622   6.661   9.329 -0.8225 -0.2398 -0.0984
 1989THY    CA249704   9.497   6.596   9.328  0.5714  0.5952  0.0244
 1989THY    CP149705   9.373   6.662   9.263  0.1357  0.1189 -0.0435
 1989THY    HP149706   9.386   6.769   9.285  2.0636 -0.3225  1.2372
 1989THY    CP249707   9.370   6.646   9.112 -0.3596  0.7298  0.1591
 1989THY    HP249708   9.301   6.721   9.073 -1.5234 -0.0699  0.6148
 1989THY    HP349709   9.473   6.658   9.078 -0.0190  0.2804  1.0032
 1989THY    HP449710   9.329   6.546   9.093 -0.1855  0.5578  0.6563
 1989THY    CP349711   9.232   6.625   9.325  0.5857 -0.0721 -0.5019
 1989THY    HP549712   9.245   6.602   9.431  0.6687  1.9825 -0.0307
 1989THY    HP649713   9.159   6.707   9.316 -0.1587 -0.7522 -0.8566
 1989THY    HP749714   9.187   6.532   9.287 -4.1855  0.8866  1.9498
 1989THY    CA349715   9.486   6.458   9.369 -0.6463  0.6974 -0.2006
 1989THY    HA349716   9.388   6.413   9.379  0.1008 -0.8663  0.3911
 1989THY    CA449717   9.606   6.398   9.406  0.2630  0.4953  0.0333
 1989THY    HA449718   9.604   6.290   9.418 -1.6528  0.7446  2.6865
 1989THY    CA549719   9.724   6.462   9.411  0.0074  0.3886  0.0236
 1989THY    CM149720   9.847   6.398   9.470 -0.0159 -0.1774  0.5501
 1989THY    HM149721   9.937   6.434   9.420 -2.0563  3.5874 -0.7869
 1989THY    HM249722   9.863   6.423   9.575 -1.4584  0.2481  0.6868
 1989THY    HM349723   9.841   6.291   9.445  1.6889 -0.0927 -0.3484
 1989THY    CA649724   9.729   6.602   9.391 -0.3702 -0.0960 -0.1632
 1989THY    HA649725   9.820   6.661   9.398  1.1838 -2.0369 -2.4506
 1990THY      O49726   6.288   0.813   1.216  1.0318 -0.5453  0.1410
 1990THY     HO49727   6.321   0.810   1.125  1.3803 -0.3907  0.2605
 1990THY    CA149728   6.156   0.798   1.191 -0.4711  0.3894 -0.3051
 1990THY    CA249729   6.065   0.826   1.290  0.4646  0.2822  0.3131
 1990THY    CP149730   6.104   0.880   1.433  0.7663  0.4141 -0.1097
 1990THY    HP149731   6.211   0.888   1.456  0.6802  1.0600  0.0760
 1990THY    CP249732   6.051   1.026   1.463 -0.1369  0.2924 -0.5867
 1990THY    HP249733   5.945   1.035   1.439 -0.8100 -1.1633  1.5648
 1990THY    HP349734   6.067   1.043   1.570 -1.7566  4.9456 -0.8807
 1990THY    HP449735   6.108   1.097   1.401  0.7108 -0.8061 -1.0985
 1990THY    CP349736   6.050   0.791   1.541 -0.4646 -0.3939 -0.2478
 1990THY    HP549737   6.079   0.687   1.522  1.5161 -0.2930  1.7390
 1990THY    HP649738   6.084   0.822   1.641 -3.4058 -2.0174  1.3794
 1990THY    HP749739   5.941   0.797   1.545 -0.4637 -0.7239  0.3851
 1990THY    CA349740   5.931   0.807   1.258 -0.5572 -0.1710 -0.8023
 1990THY    HA349741   5.858   0.833   1.334  0.8822 -1.2303  1.0457
 1990THY    CA449742   5.889   0.779   1.125 -1.2093  0.6318  0.6396
 1990THY    HA449743   5.785   0.768   1.099 -1.0449 -1.1474  0.6297
 1990THY    CA549744   5.988   0.757   1.026 -0.4840  0.1068  0.0350
 1990THY    CM149745   5.946   0.720   0.888  0.2283  0.0144 -0.1640
 1990THY    HM149746   6.031   0.717   0.818  0.6529  0.1203  0.3373
 1990THY    HM249747   5.911   0.616   0.884  1.2504 -0.6056  3.2523
 1990THY    HM349748   5.864   0.778   0.845  0.3022 -1.6098 -2.6992
 1990THY    CA649749   6.124   0.760   1.058  0.1033 -0.0153 -0.2086
 1990THY    HA649750   6.198   0.753   0.978 -1.4596 -0.4064 -1.6858
 1991THY      O49751   1.336   0.466   1.397 -0.1641 -0.7253  0.5743
 1991THY     HO49752   1.408   0.401   1.391  2.8307  2.2988  0.3412
 1991THY    CA149753   1.357   0.540   1.285  0.4554  0.0649  0.9353
 1991THY    CA249754   1.347   0.675   1.280 -0.2929 -0.3782  0.2815
 1991THY    CP149755   1.285   0.745   1.399 -0.7338 -0.3025 -0.2028
 1991THY    HP149756   1.238   0.673   1.467  1.7497  0.8402  2.9971
 1991THY    CP249757   1.399   0.794   1.498 -0.1161 -0.7002  0.5135
 1991THY    HP249758   1.467   0.710   1.518 -0.7019 -0.4843  4.0472
 1991THY    HP349759   1.458   0.876   1.456  0.5897 -1.0801  0.7402
 1991THY    HP449760   1.354   0.829   1.591 -2.8666 -0.1607 -0.9162
 1991THY    CP349761   1.191   0.854   1.355  0.5319  0.4755 -0.5321
 1991THY    HP549762   1.253   0.935   1.316  1.8954 -0.2578  0.0174
 1991THY    HP649763   1.115   0.826   1.282  0.0768 -1.0055  0.4500
 1991THY    HP749764   1.141   0.893   1.444  1.2595 -1.8701  1.0090
 1991THY    CA349765   1.391   0.739   1.162 -0.5064  0.6221 -0.2468
 1991THY    HA349766   1.395   0.847   1.169  2.1923  0.6289 -0.6623
 1991THY    CA449767   1.421   0.673   1.045  0.1207  0.0640 -0.1913
 1991THY    HA449768   1.457   0.724   0.956 -0.6283  0.6090 -0.1854
 1991THY    CA549769   1.409   0.530   1.050 -0.0784 -1.1622 -0.7733
 1991THY    CM149770   1.434   0.449   0.934 -0.4259  0.2734 -0.4055
 1991THY    HM149771   1.450   0.508   0.843 -0.9499 -1.0657 -1.4009
 1991THY    HM249772   1.518   0.379   0.938 -2.6316 -2.6047 -1.0828
 1991THY    HM349773   1.341   0.397   0.909 -0.3269 -0.3545  0.4862
 1991THY    CA649774   1.385   0.462   1.172  0.2351 -0.7878 -0.4367
 1991THY    HA649775   1.382   0.354   1.177 -1.7537 -0.8273 -1.2799
 1992THY      O49776   5.998   8.469   3.073  0.1673 -0.1151  0.0883
 1992THY     HO49777   5.931   8.417   3.026 -0.0678  0.2687 -0.0069
 1992THY    CA149778   5.932   8.537   3.168 -0.5300 -0.6311  0.6427
 1992THY    CA249779   5.985   8.647   3.231 -0.2028  0.0498  0.0827
 1992THY    CP149780   6.124   8.699   3.199  0.0392 -0.5858 -0.4938
 1992THY    HP149781   6.169   8.627   3.130  2.8801  0.2530  0.3873
 1992THY    CP249782   6.118   8.837   3.128  0.1438  1.1850  0.3315
 1992THY    HP249783   6.112   8.922   3.197 -0.1966 -0.4354  2.3866
 1992THY    HP349784   6.212   8.855   3.075  1.0336  0.0117  1.4526
 1992THY    HP449785   6.034   8.846   3.058  0.1368  0.8650  0.2973
 1992THY    CP349786   6.215   8.708   3.322  0.0769 -0.5732 -0.0243
 1992THY    HP549787   6.180   8.785   3.392 -1.8625 -2.4396  1.1961
 1992THY    HP649788   6.227   8.612   3.375 -0.1863 -0.2217  0.6906
 1992THY    HP749789   6.320   8.715   3.292 -0.5087  0.3419 -2.0589
 1992THY    CA349790   5.907   8.714   3.329 -0.4967  0.3921  0.0998
 1992THY    HA349791   5.934   8.810   3.371 -3.6665  0.8830  1.2632
 1992THY    CA449792   5.786   8.666   3.363  0.0923 -0.4665 -0.0833
 1992THY    HA449793   5.731   8.722   3.438  1.2271 -0.9491  1.1523
 1992THY    CA549794   5.736   8.546   3.310 -0.2072  0.5875  0.2774
 1992THY    CM149795   5.608   8.493   3.356  0.9203  0.3239 -0.7692
 1992THY    HM149796   5.572   8.409   3.295  1.6368 -1.3131  0.9621
 1992THY    HM249797   5.608   8.465   3.462  2.6128  2.4054 -0.1611
 1992THY    HM349798   5.532   8.569   3.333  2.2649  1.6985 -0.8256
 1992THY    CA649799   5.805   8.486   3.203  0.1350  0.1009 -0.1874
 1992THY    HA649800   5.777   8.396   3.148  1.6926 -0.1576 -0.6108
 1993THY      O49801   0.810   1.476   1.115 -0.6691  0.2531  0.0247
 1993THY     HO49802   0.718   1.478   1.147 -0.0943 -1.3375  1.9801
 1993THY    CA149803   0.860   1.605   1.133  0.2052  0.3833  0.0563
 1993THY    CA249804   0.995   1.635   1.104  0.2843 -0.1295 -0.0363
 1993THY    CP149805   1.084   1.538   1.036 -0.1497 -0.6840 -0.1305
 1993THY    HP149806   1.053   1.436   1.063 -2.4009  0.5875  2.7548
 1993THY    CP249807   1.078   1.557   0.888  0.4449 -0.6113  0.2899
 1993THY    HP249808   1.071   1.665   0.867  1.8151 -0.7280 -0.9190
 1993THY    HP349809   1.151   1.496   0.834 -0.8649 -0.3604 -1.9006
 1993THY    HP449810   0.983   1.515   0.855 -1.5610  2.3810  1.8285
 1993THY    CP349811   1.225   1.558   1.088  0.2484  0.5639  0.2712
 1993THY    HP549812   1.269   1.648   1.043  0.0264  1.1664  1.2482
 1993THY    HP649813   1.238   1.554   1.197 -0.9171  2.6491  0.5378
 1993THY    HP749814   1.282   1.469   1.056  0.6105  0.4854  1.1107
 1993THY    CA349815   1.035   1.769   1.127  0.5410  0.7992 -0.2430
 1993THY    HA349816   1.138   1.799   1.105  0.5687  0.3593 -0.7379
 1993THY    CA449817   0.936   1.860   1.170 -0.6941 -0.2748  0.2936
 1993THY    HA449818   0.971   1.960   1.193 -1.0002 -0.6510  2.6368
 1993THY    CA549819   0.807   1.828   1.205 -0.1286  0.3422  1.0280
 1993THY    CM149820   0.721   1.935   1.272 -0.1861 -0.2722  0.4901
 1993THY    HM149821   0.772   2.031   1.285  0.4834 -0.7620  1.6869
 1993THY    HM249822   0.633   1.954   1.210 -0.1852  2.2967  1.1790
 1993THY    HM349823   0.685   1.910   1.372  1.4533  0.8580  1.4111
 1993THY    CA649824   0.765   1.699   1.189 -0.4514  0.5301 -0.6033
 1993THY    HA649825   0.661   1.675   1.209 -0.1290 -0.4690 -0.0694
 1994THY      O49826   0.332   8.348   3.411 -0.0643 -0.1385 -0.7530
 1994THY     HO49827   0.321   8.253   3.425  1.9012 -0.6530 -2.1623
 1994THY    CA149828   0.444   8.380   3.481 -0.1354 -0.5915  0.5461
 1994THY    CA249829   0.540   8.478   3.440  0.2011  0.2797 -0.2130
 1994THY    CP149830   0.515   8.551   3.312 -0.4891  0.1307  0.6639
 1994THY    HP149831   0.407   8.565   3.308 -0.5818 -0.8519 -1.0663
 1994THY    CP249832   0.580   8.686   3.311 -0.1144  0.0051  0.3953
 1994THY    HP249833   0.559   8.739   3.217 -0.8809  1.5683  1.4207
 1994THY    HP349834   0.537   8.747   3.391  0.6031  0.3362  0.5349
 1994THY    HP449835   0.689   8.672   3.319 -0.3533 -0.8723  3.2480
 1994THY    CP349836   0.566   8.472   3.191 -0.0277  0.1610 -0.0742
 1994THY    HP549837   0.666   8.429   3.206  0.8800  1.9683 -0.7104
 1994THY    HP649838   0.499   8.388   3.169 -1.0589  0.6290  1.0785
 1994THY    HP749839   0.572   8.532   3.100  0.5209 -0.2165 -0.2910
 1994THY    CA349840   0.656   8.490   3.519 -0.5805 -0.3241  0.5586
 1994THY    HA349841   0.737   8.555   3.485 -1.0989 -0.2933 -0.6593
 1994THY    CA449842   0.678   8.417   3.633 -0.0935  0.1667 -0.4266
 1994THY    HA449843   0.765   8.433   3.695 -0.2197  0.6302 -0.3601
 1994THY    CA549844   0.584   8.317   3.665 -0.1459 -0.0012 -0.6645
 1994THY    CM149845   0.620   8.228   3.774  0.2579  0.4223  0.1748
 1994THY    HM149846   0.666   8.136   3.735 -3.3822 -0.7006 -1.9709
 1994THY    HM249847   0.683   8.270   3.853  0.9906 -3.6168  1.9636
 1994THY    HM349848   0.523   8.196   3.814  0.9102  0.0363  1.4876
 1994THY    CA649849   0.465   8.299   3.592  0.0743  0.1830  0.0157
 1994THY    HA649850   0.392   8.227   3.628 -1.2557  0.4672 -1.9731
 1995THY      O49851   1.456   1.380   2.782  0.1658  0.6083  0.1794
 1995THY     HO49852   1.495   1.369   2.871 -0.8138  0.0149  0.5496
 1995THY    CA149853   1.551   1.379   2.690 -0.3633 -0.4585  0.1580
 1995THY    CA249854   1.542   1.303   2.566  0.4157  0.4418 -0.3064
 1995THY    CP149855   1.412   1.219   2.527  0.3688  0.1600 -0.6750
 1995THY    HP149856   1.343   1.238   2.610  3.1685  0.0122  1.9044
 1995THY    CP249857   1.351   1.265   2.398 -0.5211 -0.1115 -0.0234
 1995THY    HP249858   1.423   1.231   2.322  1.8602  1.3849  1.4103
 1995THY    HP349859   1.249   1.227   2.387  0.1827 -2.2548  0.4074
 1995THY    HP449860   1.355   1.375   2.399 -2.7360  0.0086  1.3112
 1995THY    CP349861   1.436   1.069   2.511 -0.2109 -0.3906 -0.4347
 1995THY    HP549862   1.519   1.048   2.442  0.7123  0.4622  0.3847
 1995THY    HP649863   1.479   1.029   2.603 -3.6825 -3.9024 -0.0538
 1995THY    HP749864   1.351   1.004   2.486 -2.2539  1.5981  0.9349
 1995THY    CA349865   1.656   1.296   2.484  0.8115 -0.1475  0.0475
 1995THY    HA349866   1.661   1.233   2.396  0.2850  2.3578 -1.9177
 1995THY    CA449867   1.759   1.387   2.501 -0.4099 -0.3876 -0.3386
 1995THY    HA449868   1.847   1.393   2.438 -1.2121  2.0895 -1.3086
 1995THY    CA549869   1.766   1.468   2.620 -0.3645  0.1400  0.4270
 1995THY    CM149870   1.874   1.576   2.630 -0.5515 -0.1004 -0.5193
 1995THY    HM149871   1.973   1.529   2.622 -0.4709  0.1592 -1.1297
 1995THY    HM249872   1.870   1.647   2.546  0.0252 -0.6395 -1.0156
 1995THY    HM349873   1.883   1.621   2.730 -0.5928 -2.8426  0.8074
 1995THY    CA649874   1.666   1.454   2.720 -0.1559 -0.3267 -0.4866
 1995THY    HA649875   1.674   1.521   2.805 -0.1077 -0.0533 -0.7075
 1996THY      O49876   1.815   4.146   1.276 -0.2590  0.1050  0.1428
 1996THY     HO49877   1.808   4.241   1.256 -3.9037 -0.0343  0.0652
 1996THY    CA149878   1.923   4.128   1.359 -0.5120 -0.0741  1.0174
 1996THY    CA249879   1.966   4.004   1.412  0.0102 -0.6344  0.7773
 1996THY    CP149880   1.870   3.878   1.405 -0.3334  0.0457 -0.0969
 1996THY    HP149881   1.776   3.911   1.359 -0.6230  0.2934  0.6547
 1996THY    CP249882   1.942   3.775   1.321  0.2785  0.0388 -0.1512
 1996THY    HP249883   2.016   3.731   1.388 -0.3503 -0.1343  0.4460
 1996THY    HP349884   1.888   3.684   1.292  2.3612 -0.6740 -2.0314
 1996THY    HP449885   1.982   3.831   1.236  0.3569 -1.2729 -1.0089
 1996THY    CP349886   1.838   3.809   1.537  0.3065 -0.3774  0.2999
 1996THY    HP549887   1.807   3.706   1.518  2.6853 -0.6834 -2.5258
 1996THY    HP649888   1.924   3.822   1.604  1.9176 -1.0906 -1.5539
 1996THY    HP749889   1.749   3.850   1.588 -0.0493  1.1250 -1.4211
 1996THY    CA349890   2.092   3.996   1.480 -0.6661 -0.4989  0.1073
 1996THY    HA349891   2.129   3.904   1.525  1.6288  1.5994  2.8604
 1996THY    CA449892   2.167   4.120   1.494  0.0344 -0.1546  0.1826
 1996THY    HA449893   2.260   4.131   1.549  0.0666  1.7274 -0.1815
 1996THY    CA549894   2.127   4.236   1.425  0.1756 -0.0504 -0.3070
 1996THY    CM149895   2.196   4.361   1.424 -0.3797 -0.1823  0.0441
 1996THY    HM149896   2.291   4.363   1.480 -0.6035 -0.0943  0.4252
 1996THY    HM249897   2.215   4.404   1.325  1.1224 -0.2369  0.2755
 1996THY    HM349898   2.147   4.445   1.475 -0.5283 -0.4885  0.4063
 1996THY    CA649899   2.008   4.236   1.354  0.4907 -0.4012 -0.4607
 1996THY    HA649900   1.971   4.324   1.303 -2.7418 -1.7511 -0.6970
 1997THY      O49901   7.746   7.297   0.805  0.5197  0.1666 -0.4610
 1997THY     HO49902   7.748   7.375   0.747  0.0319  0.5421  0.0172
 1997THY    CA149903   7.708   7.188   0.728 -1.0420 -0.0079 -0.2783
 1997THY    CA249904   7.787   7.069   0.728  0.1582 -0.4032  0.0205
 1997THY    CP149905   7.888   7.038   0.834 -0.3050  0.2661 -0.4378
 1997THY    HP149906   7.906   7.131   0.890 -4.7971  1.4978 -0.5989
 1997THY    CP249907   7.824   6.943   0.931 -0.3514  0.2853  0.2497
 1997THY    HP249908   7.728   6.981   0.967 -2.2546 -2.6277 -1.4144
 1997THY    HP349909   7.812   6.850   0.875  0.8634  0.7923 -0.9321
 1997THY    HP449910   7.886   6.930   1.020 -2.5001  2.3800  2.1930
 1997THY    CP349911   8.027   6.981   0.789  0.2943  0.4888  0.6376
 1997THY    HP549912   8.103   6.983   0.868 -0.5582  4.0804  1.5776
 1997THY    HP649913   8.015   6.882   0.744 -0.2006  0.8726 -0.0912
 1997THY    HP749914   8.072   7.032   0.703  2.1176 -0.4910  0.9580
 1997THY    CA349915   7.761   6.968   0.633  0.1267  0.1630  0.2497
 1997THY    HA349916   7.804   6.869   0.635 -1.8040 -0.7419 -0.9480
 1997THY    CA449917   7.670   6.988   0.537 -0.1765 -0.0637 -0.0641
 1997THY    HA449918   7.659   6.908   0.465  2.0237 -0.1060 -0.4178
 1997THY    CA549919   7.582   7.102   0.537 -0.5144  0.0402  0.6757
 1997THY    CM149920   7.471   7.109   0.436  0.3058  0.4446  0.2095
 1997THY    HM149921   7.514   7.091   0.336 -1.6117  1.0903 -0.7754
 1997THY    HM249922   7.389   7.038   0.453 -1.7341  2.0573 -2.2603
 1997THY    HM349923   7.427   7.209   0.433 -2.4846 -0.6725  0.4262
 1997THY    CA649924   7.606   7.201   0.637  0.2846 -1.0428 -0.2791
 1997THY    HA649925   7.552   7.295   0.628  3.0093  0.5377 -1.4246
 1998THY      O49926   3.870   2.862   5.274 -0.2618  0.0624  0.3894
 1998THY     HO49927   3.914   2.792   5.222 -1.0311 -0.7628  0.8264
 1998THY    CA149928   3.971   2.955   5.297  0.5625  0.2515 -0.6242
 1998THY    CA249929   3.984   3.022   5.424 -0.0426 -0.9578  0.4295
 1998THY    CP149930   3.874   3.009   5.536  0.5638  0.1691  0.4720
 1998THY    HP149931   3.798   2.944   5.489 -0.6713  1.7472  0.1696
 1998THY    CP249932   3.928   2.924   5.648  0.3368 -0.1256 -0.7128
 1998THY    HP249933   3.860   2.923   5.734  0.8503 -0.3505 -0.2988
 1998THY    HP349934   3.939   2.820   5.614 -1.4018  0.1860 -2.3435
 1998THY    HP449935   4.025   2.971   5.670  0.4794  1.4016 -4.0182
 1998THY    CP349936   3.808   3.138   5.571  0.6058  1.0059 -0.2806
 1998THY    HP549937   3.770   3.192   5.484 -0.1743  0.1725 -0.4852
 1998THY    HP649938   3.723   3.134   5.640 -0.0561  2.3899 -0.9749
 1998THY    HP749939   3.878   3.206   5.619  0.0248  0.3755  1.5310
 1998THY    CA349940   4.095   3.106   5.443 -0.3563 -0.3425  0.0956
 1998THY    HA349941   4.113   3.147   5.542  1.6310 -2.3314  0.6327
 1998THY    CA449942   4.187   3.114   5.339 -0.7166 -0.1648  0.6351
 1998THY    HA449943   4.280   3.170   5.350 -0.8027  0.0313  0.3819
 1998THY    CA549944   4.177   3.046   5.221 -0.6427 -0.1799 -0.5543
 1998THY    CM149945   4.271   3.069   5.102 -0.2156 -0.6553 -0.2142
 1998THY    HM149946   4.213   3.056   5.011 -1.9565  1.0842  0.5917
 1998THY    HM249947   4.322   3.165   5.092  0.9421 -1.2935 -0.7217
 1998THY    HM349948   4.357   3.000   5.101  1.5238  1.3414  1.0881
 1998THY    CA649949   4.070   2.962   5.202 -0.0944 -0.3685  0.1436
 1998THY    HA649950   4.052   2.920   5.104 -1.4973  1.1454 -0.2816
 1999THY      O49951   1.832   2.574   6.792 -0.6622  0.3232  0.9585
 1999THY     HO49952   1.890   2.651   6.795  0.9761 -0.8498  0.9287
 1999THY    CA149953   1.716   2.597   6.860  0.3324  0.4331  0.4536
 1999THY    CA249954   1.586   2.579   6.794  0.2054 -0.6329 -0.8873
 1999THY    CP149955   1.576   2.511   6.659  0.0169  0.5928  0.6051
 1999THY    HP149956   1.665   2.554   6.611  0.7900 -0.2174  1.2577
 1999THY    CP249957   1.600   2.355   6.677 -0.1131  1.1676 -0.5359
 1999THY    HP249958   1.503   2.304   6.670  0.7248 -0.4017 -1.4086
 1999THY    HP349959   1.647   2.321   6.584 -0.6031  3.2238 -1.5945
 1999THY    HP449960   1.662   2.330   6.764 -1.1369  0.7533  0.0810
 1999THY    CP349961   1.443   2.529   6.577  0.0600  0.3348 -0.0022
 1999THY    HP549962   1.447   2.480   6.480  1.0366  0.4470 -0.0294
 1999THY    HP649963   1.362   2.476   6.629  0.7275  0.7083  1.4732
 1999THY    HP749964   1.431   2.637   6.561  0.9018  0.1265 -2.3371
 1999THY    CA349965   1.471   2.614   6.870  0.3583  0.2180 -0.1980
 1999THY    HA349966   1.372   2.611   6.826  0.4413  1.8453 -0.5875
 1999THY    CA449967   1.488   2.664   6.994  0.5453  0.5265 -0.7772
 1999THY    HA449968   1.401   2.693   7.052  1.5966 -0.0986  1.2182
 1999THY    CA549969   1.611   2.677   7.062 -0.3832  0.4563  0.2768
 1999THY    CM149970   1.624   2.731   7.202  0.2096 -0.8270  0.4489
 1999THY    HM149971   1.638   2.645   7.268 -0.3713  0.6878  2.6527
 1999THY    HM249972   1.715   2.792   7.205 -1.0712  1.3965 -1.7098
 1999THY    HM349973   1.541   2.795   7.234  1.1907  0.7447 -0.0506
 1999THY    CA649974   1.725   2.641   6.991  0.4887  1.0087  0.5426
 1999THY    HA649975   1.824   2.648   7.035  1.6183 -0.2355 -1.6736
 2000THY      O49976   1.348   1.860   7.488 -0.1816 -0.0122  0.6697
 2000THY     HO49977   1.434   1.849   7.442  0.1668  2.0426  0.7516
 2000THY    CA149978   1.374   1.898   7.617 -0.2163  0.6253 -0.3047
 2000THY    CA249979   1.270   1.940   7.697  0.0927  0.2286 -0.2304
 2000THY    CP149980   1.125   1.941   7.647  0.4637  0.1191  0.2282
 2000THY    HP149981   1.105   1.887   7.554  0.5610  0.5815 -0.0636
 2000THY    CP249982   1.028   1.899   7.756  0.0394  0.7143  0.1425
 2000THY    HP249983   1.039   1.790   7.757  2.5824  0.9075 -0.2350
 2000THY    HP349984   1.029   1.957   7.850  0.3496  2.4889 -0.9104
 2000THY    HP449985   0.929   1.904   7.710  0.3187 -0.2565 -0.5954
 2000THY    CP349986   1.091   2.084   7.605  0.1176  0.2665 -0.3723
 2000THY    HP549987   1.175   2.127   7.551  2.1480 -3.0004 -0.0453
 2000THY    HP649988   1.008   2.085   7.533 -0.2172  3.1001 -0.0554
 2000THY    HP749989   1.072   2.144   7.695  0.3298  0.8657 -0.7241
 2000THY    CA349990   1.299   2.004   7.820  0.2014  0.6488 -0.3252
 2000THY    HA349991   1.225   2.070   7.865  0.4221 -0.1190  1.2057
 2000THY    CA449992   1.429   2.001   7.864  0.0855 -1.0244  0.0397
 2000THY    HA449993   1.459   2.049   7.957  2.6531  1.6695 -1.9773
 2000THY    CA549994   1.531   1.947   7.786 -0.8017  0.0645  0.5568
 2000THY    CM149995   1.672   1.959   7.839 -0.3537 -0.3615  0.5512
 2000THY    HM149996   1.738   1.877   7.809  2.1495  1.5816  0.3976
 2000THY    HM249997   1.701   2.047   7.780 -1.7118 -0.6106 -0.5490
 2000THY    HM349998   1.673   1.975   7.947 -3.4470  3.2029  0.2274
 2000THY    CA649999   1.505   1.902   7.657  0.1955 -0.1414  0.1001
 2000THY    HA650000   1.580   1.853   7.596 -0.0623  0.2330 -0.5303
 2001THY      O50001   0.888   7.585   5.828  0.1804  0.1918 -0.2321
 2001THY     HO50002   0.912   7.494   5.803  2.1984  1.2770 -2.7271
 2001THY    CA150003   0.866   7.588   5.961  1.2617 -0.1014  0.4321
 2001THY    CA250004   0.835   7.701   6.027 -0.2529  0.1114  0.0755
 2001THY    CP150005   0.838   7.841   5.962 -0.5216  1.3325 -0.4189
 2001THY    HP150006   0.904   7.835   5.875  0.0504 -0.0217  0.0907
 2001THY    CP250007   0.707   7.895   5.922 -0.0309 -0.2773  0.8391
 2001THY    HP250008   0.662   7.831   5.845 -0.9397  2.5352 -1.1051
 2001THY    HP350009   0.645   7.908   6.012  1.9249 -1.6781  2.4709
 2001THY    HP450010   0.727   7.996   5.885 -0.8494 -1.1613 -2.2799
 2001THY    CP350011   0.902   7.946   6.060  0.2900 -0.3748  0.8531
 2001THY    HP550012   1.011   7.932   6.054  0.2770 -0.5422  1.0096
 2001THY    HP650013   0.879   8.050   6.033 -0.1928 -0.0485  2.4251
 2001THY    HP750014   0.856   7.945   6.159 -1.1681 -1.2692  0.1982
 2001THY    CA350015   0.786   7.681   6.162  0.2385  0.4160  0.0512
 2001THY    HA350016   0.741   7.767   6.211 -1.5867 -0.4994  0.0412
 2001THY    CA450017   0.799   7.556   6.228 -0.2121 -0.2129  0.4791
 2001THY    HA450018   0.777   7.545   6.334  2.2312  1.0465  1.2046
 2001THY    CA550019   0.841   7.447   6.156 -0.1146 -0.4222  0.2203
 2001THY    CM150020   0.833   7.305   6.211  0.7967 -0.0811  0.4974
 2001THY    HM150021   0.921   7.257   6.167 -0.8571 -3.8200  0.7930
 2001THY    HM250022   0.856   7.313   6.318  0.7113 -1.3856  0.6314
 2001THY    HM350023   0.744   7.245   6.189  0.1204  1.3471 -0.8246
 2001THY    CA650024   0.867   7.463   6.023 -0.6814 -0.5264 -0.1721
 2001THY    HA650025   0.886   7.374   5.964  0.8690 -0.6898  0.5163
 2002THY      O50026   8.896   2.118   9.691 -0.2365 -0.2550 -0.1288
 2002THY     HO50027   8.886   2.192   9.754 -2.3882 -0.9011  0.3622
 2002THY    CA150028   8.873   2.018   9.776 -0.1226 -0.5107  0.1357
 2002THY    CA250029   8.901   1.885   9.754 -0.4731  0.3203  0.3436
 2002THY    CP150030   8.967   1.840   9.625 -0.8450  0.9181  0.1576
 2002THY    HP150031   8.987   1.925   9.559 -0.7060  0.3349 -0.5607
 2002THY    CP250032   9.118   1.780   9.647  0.7541 -0.0815  0.6572
 2002THY    HP250033   9.171   1.781   9.551 -1.7483  4.3657 -0.9895
 2002THY    HP350034   9.176   1.841   9.717  1.4181 -0.1790  0.1992
 2002THY    HP450035   9.113   1.686   9.703  0.6100  1.0871  2.7057
 2002THY    CP350036   8.888   1.749   9.541 -0.2191  0.2285 -0.0436
 2002THY    HP550037   8.863   1.798   9.446 -1.8190 -2.3707 -1.0760
 2002THY    HP650038   8.961   1.674   9.509 -0.2625  0.4291 -0.6143
 2002THY    HP750039   8.808   1.695   9.594  1.0136 -0.9512  0.6815
 2002THY    CA350040   8.884   1.792   9.859  0.1384  0.1135  0.5596
 2002THY    HA350041   8.917   1.689   9.845  1.4241  0.7303 -1.4569
 2002THY    CA450042   8.825   1.826   9.980  0.1205  0.1037  0.8633
 2002THY    HA450043   8.806   1.753  10.058 -3.9566 -0.7947 -0.6826
 2002THY    CA550044   8.808   1.960  10.005  0.0550 -0.2915  0.2917
 2002THY    CM150045   8.755   2.003  10.138  0.5745 -0.7303 -0.1113
 2002THY    HM150046   8.835   2.062  10.184  2.1311 -2.1128 -0.9661
 2002THY    HM250047   8.657   2.051  10.124  0.7297  0.1414  1.4945
 2002THY    HM350048   8.738   1.918  10.205 -0.6968  0.1797  0.7771
 2002THY    CA650049   8.821   2.056   9.902 -0.6465  0.4939  0.3982
 2002THY    HA650050   8.802   2.161   9.922 -1.8162  0.3500  0.1148
 2003THY      O50051   5.834   8.353   4.763  0.3449 -0.2428  0.3484
 2003THY     HO50052   5.749   8.401   4.764 -0.5441 -1.6723 -1.1997
 2003THY    CA150053   5.884   8.364   4.882  0.1986 -0.3714 -1.1194
 2003THY    CA250054   5.942   8.245   4.951 -0.3236  0.0680 -0.2419
 2003THY    CP150055   5.966   8.112   4.881 -0.1566 -0.3534 -0.7936
 2003THY    HP150056   5.953   8.127   4.773  1.0318  0.8098 -0.8032
 2003THY    CP250057   6.118   8.074   4.897  0.0101  0.8978 -0.3678
 2003THY    HP250058   6.137   8.033   4.997 -0.0920  1.0306 -0.2943
 2003THY    HP350059   6.139   7.992   4.828  0.2269 -0.4414  1.2006
 2003THY    HP450060   6.188   8.155   4.876  0.5794  0.5328  0.0641
 2003THY    CP350061   5.876   8.010   4.931  0.5261  0.3660  0.5138
 2003THY    HP550062   5.913   7.907   4.924  1.2242  0.5172  1.7232
 2003THY    HP650063   5.879   8.016   5.040  3.4092 -0.7890  0.5927
 2003THY    HP750064   5.778   8.013   4.882  0.1581 -0.2634  1.1909
 2003THY    CA350065   5.971   8.268   5.086 -0.3974  1.3331 -1.3036
 2003THY    HA350066   6.011   8.188   5.148 -2.0567  0.3725 -1.4018
 2003THY    CA450067   5.966   8.403   5.141  0.0034 -0.0761  0.2646
 2003THY    HA450068   5.995   8.422   5.243 -0.1740  2.1337 -0.0386
 2003THY    CA550069   5.898   8.501   5.072 -0.2524 -0.9005  0.7148
 2003THY    CM150070   5.880   8.632   5.133  0.6729  0.2434 -0.3331
 2003THY    HM150071   5.920   8.625   5.235  1.5848  0.7179 -0.6476
 2003THY    HM250072   5.935   8.719   5.096  1.5303  0.4670  1.3774
 2003THY    HM350073   5.773   8.655   5.146  0.4537 -1.6002  1.6688
 2003THY    CA650074   5.858   8.484   4.940 -0.1989 -0.0382  0.1511
 2003THY    HA650075   5.810   8.562   4.882 -2.9018 -1.6605  0.0417
 2004THY      O50076   7.637   3.960   2.758 -0.3240 -0.2107  0.8874
 2004THY     HO50077   7.578   4.034   2.734 -0.0163 -0.3625 -0.4339
 2004THY    CA150078   7.729   3.940   2.662  0.0514 -0.7908  0.7538
 2004THY    CA250079   7.806   3.818   2.648 -0.0031  0.2304 -0.1880
 2004THY    CP150080   7.788   3.704   2.746 -0.8351  0.2720  0.0127
 2004THY    HP150081   7.692   3.716   2.798  0.4879  0.1385  2.6826
 2004THY    CP250082   7.782   3.567   2.682 -0.1221 -0.0162 -0.6625
 2004THY    HP250083   7.693   3.572   2.619 -0.0521  2.0072 -0.6404
 2004THY    HP350084   7.873   3.533   2.630 -0.5421 -1.0287 -0.7669
 2004THY    HP450085   7.763   3.494   2.762 -1.4092  0.0814 -0.8726
 2004THY    CP350086   7.899   3.696   2.863  0.5069 -0.5502  0.2471
 2004THY    HP550087   7.857   3.644   2.950 -0.0967  0.2871  0.4633
 2004THY    HP650088   7.991   3.650   2.825  0.0151 -0.8901 -0.5600
 2004THY    HP750089   7.925   3.797   2.896 -1.6140  0.3163 -0.6234
 2004THY    CA350090   7.884   3.807   2.539 -0.4683  0.6592  0.2513
 2004THY    HA350091   7.929   3.711   2.514 -1.1169  0.6752 -1.0549
 2004THY    CA450092   7.911   3.916   2.451  0.2069  0.9441  0.3403
 2004THY    HA450093   7.978   3.906   2.366  1.0178 -0.0469  1.0599
 2004THY    CA550094   7.841   4.035   2.469 -0.4454  0.2749  0.3450
 2004THY    CM150095   7.841   4.155   2.368  0.2798  0.6478  0.0165
 2004THY    HM150096   7.814   4.110   2.272 -0.0472  2.6828 -0.9029
 2004THY    HM250097   7.772   4.232   2.404  1.1148  1.3606  0.1280
 2004THY    HM350098   7.940   4.194   2.340  0.3592  0.1036 -0.4773
 2004THY    CA650099   7.747   4.044   2.568 -0.0680 -0.6002 -0.0200
 2004THY    HA650100   7.690   4.135   2.580 -1.2984 -1.5729  2.3014
 2005THY      O50101   7.059   7.735   1.462 -0.3647  0.2520 -0.0172
 2005THY     HO50102   7.075   7.819   1.507  0.3802 -0.4651  1.1118
 2005THY    CA150103   7.157   7.655   1.514 -0.1665  0.4171  0.3520
 2005THY    CA250104   7.269   7.606   1.438  0.2930 -1.0656 -0.1919
 2005THY    CP150105   7.277   7.657   1.287  0.0451  0.1987  1.0213
 2005THY    HP150106   7.187   7.710   1.253 -0.3863 -1.0265  0.1692
 2005THY    CP250107   7.399   7.754   1.283  0.5122 -0.2696 -0.5031
 2005THY    HP250108   7.388   7.842   1.348 -1.3861 -0.3499 -0.6538
 2005THY    HP350109   7.488   7.704   1.321  1.1905  0.3699 -1.2059
 2005THY    HP450110   7.420   7.793   1.183  2.7249  0.8087  0.3207
 2005THY    CP350111   7.308   7.539   1.195  0.0690  0.2109 -0.6649
 2005THY    HP550112   7.226   7.466   1.197 -0.8465  1.1412  2.9556
 2005THY    HP650113   7.317   7.579   1.093  2.6434  1.1173 -0.1555
 2005THY    HP750114   7.408   7.499   1.211  0.9973  2.6664  0.1782
 2005THY    CA350115   7.365   7.525   1.505  0.0955  0.3653 -0.5733
 2005THY    HA350116   7.448   7.488   1.445 -0.1302  0.2763 -0.8301
 2005THY    CA450117   7.347   7.486   1.639  0.2363  0.5974  0.2205
 2005THY    HA450118   7.417   7.420   1.691 -1.5855 -0.1049  1.9443
 2005THY    CA550119   7.238   7.533   1.714 -0.5120  0.8342  0.3052
 2005THY    CM150120   7.214   7.488   1.848  0.5873 -0.5021 -1.0455
 2005THY    HM150121   7.157   7.566   1.900  1.5701 -1.0566  0.9920
 2005THY    HM250122   7.157   7.394   1.850 -0.6620  0.0847 -3.9064
 2005THY    HM350123   7.304   7.483   1.910 -0.4433  2.3590  0.9128
 2005THY    CA650124   7.140   7.608   1.646 -0.1454 -0.5511 -0.5243
 2005THY    HA650125   7.055   7.642   1.704  0.4454  2.8406 -1.4060
 2006THY      O50126   6.444   2.754   0.236  0.1716  0.5956 -0.2968
 2006THY     HO50127   6.470   2.751   0.329  0.6520 -2.1254 -0.4321
 2006THY    CA150128   6.482   2.641   0.177  0.2752  0.4194  0.3846
 2006THY    CA250129   6.397   2.583   0.075  0.2742 -0.6333 -0.3992
 2006THY    CP150130   6.267   2.650   0.027  0.5646  0.5364  0.0352
 2006THY    HP150131   6.225   2.707   0.111 -1.5781 -0.6530 -0.1491
 2006THY    CP250132   6.296   2.748  -0.086 -0.8665  0.3843 -0.1057
 2006THY    HP250133   6.342   2.702  -0.174 -1.4422 -2.1560  0.8408
 2006THY    HP350134   6.206   2.800  -0.123 -0.6980  0.5000 -0.3513
 2006THY    HP450135   6.369   2.824  -0.056 -0.3585 -0.7064  1.5420
 2006THY    CP350136   6.164   2.549  -0.021  0.5775 -0.2326  0.4690
 2006THY    HP550137   6.198   2.515  -0.120  4.1808  0.1661  1.4140
 2006THY    HP650138   6.143   2.465   0.046  1.9105 -1.5304 -0.6573
 2006THY    HP750139   6.065   2.592  -0.036  0.5157 -0.7847 -0.8691
 2006THY    CA350140   6.437   2.454   0.032  0.2239 -0.3342 -0.0121
 2006THY    HA350141   6.380   2.403  -0.046 -1.0102 -0.9666  1.2663
 2006THY    CA450142   6.560   2.403   0.060 -0.3517  0.0281  0.4755
 2006THY    HA450143   6.605   2.320   0.006 -0.7450  0.7792 -1.0957
 2006THY    CA550144   6.648   2.470   0.153  0.3320 -0.0696  0.5892
 2006THY    CM150145   6.785   2.423   0.180 -0.5751 -0.3470  0.1031
 2006THY    HM150146   6.834   2.389   0.088  1.2865 -0.9767  1.2737
 2006THY    HM250147   6.832   2.511   0.227  2.4445 -0.7697 -1.8186
 2006THY    HM350148   6.785   2.327   0.233 -0.9634 -0.5994 -0.3484
 2006THY    CA650149   6.599   2.583   0.209 -0.1455 -0.4139  0.3495
 2006THY    HA650150   6.674   2.638   0.265  1.0744  0.0706 -1.6629
 2007THY      O50151   8.010   3.717   1.648  0.5846  0.3192  0.0574
 2007THY     HO50152   7.996   3.632   1.692  1.1637  0.4524  0.5063
 2007THY    CA150153   7.915   3.804   1.713 -0.9188  0.4996  0.2756
 2007THY    CA250154   7.863   3.916   1.650 -0.2005 -0.2693 -0.1206
 2007THY    CP150155   7.878   3.936   1.496  0.6881  0.8132  1.0928
 2007THY    HP150156   7.914   3.840   1.458 -1.0056  0.6414 -0.1855
 2007THY    CP250157   7.752   3.975   1.423  0.1695  0.2474  0.3226
 2007THY    HP250158   7.678   3.895   1.438  0.0731  0.4011  0.6869
 2007THY    HP350159   7.703   4.068   1.452  0.0279 -0.2980  1.9224
 2007THY    HP450160   7.787   3.979   1.319  1.0788 -0.8409  0.5587
 2007THY    CP350161   7.995   4.036   1.465 -0.6392 -1.1823 -0.0804
 2007THY    HP550162   7.954   4.137   1.468  2.2565  0.1367 -1.3030
 2007THY    HP650163   8.080   4.027   1.534  0.7546 -1.3946 -1.7557
 2007THY    HP750164   8.039   4.032   1.365  0.6446  0.4112  0.3846
 2007THY    CA350165   7.774   3.996   1.721 -0.8309 -0.4977  0.3581
 2007THY    HA350166   7.726   4.077   1.667 -0.0904 -0.4266 -0.2090
 2007THY    CA450167   7.743   3.957   1.849  0.2647 -0.2190 -0.3188
 2007THY    HA450168   7.668   4.020   1.896 -0.5250  2.1163 -4.2246
 2007THY    CA550169   7.796   3.850   1.914  0.6435  0.1104 -0.3400
 2007THY    CM150170   7.787   3.822   2.063 -0.5352 -0.1365 -1.4970
 2007THY    HM150171   7.828   3.906   2.120  0.2541 -0.8904 -0.9301
 2007THY    HM250172   7.684   3.817   2.101  0.8225 -2.1062  2.4445
 2007THY    HM350173   7.833   3.727   2.091 -1.8725 -0.5760 -0.7318
 2007THY    CA650174   7.886   3.773   1.845  0.3264  0.1230  0.5519
 2007THY    HA650175   7.926   3.680   1.884 -0.7036 -1.6341 -2.2903
 2008THY      O50176   5.964   9.740   1.081  0.4025 -0.2082  0.2872
 2008THY     HO50177   5.948   9.835   1.091 -0.4952 -0.3685  0.3751
 2008THY    CA150178   5.883   9.703   0.979 -0.1255  0.0090 -0.1229
 2008THY    CA250179   5.889   9.577   0.923  0.2360  0.4281 -0.0435
 2008THY    CP150180   5.979   9.467   0.993  0.2568 -0.2712 -0.1067
 2008THY    HP150181   6.065   9.514   1.041 -0.0879  0.5428 -0.2594
 2008THY    CP250182   5.894   9.401   1.100  0.2575  0.3297  0.4784
 2008THY    HP250183   5.820   9.338   1.049  2.6190 -1.0064 -1.5305
 2008THY    HP350184   5.965   9.347   1.163  0.3272  0.6698  0.6902
 2008THY    HP450185   5.836   9.482   1.147 -1.2061 -0.8795  0.8298
 2008THY    CP350186   6.040   9.366   0.890  0.5827  0.4452  0.2847
 2008THY    HP550187   6.119   9.421   0.838 -0.1840  0.8084 -0.5238
 2008THY    HP650188   6.092   9.289   0.948 -1.2723 -1.3542 -0.2929
 2008THY    HP750189   5.977   9.319   0.814  0.8174 -1.3074  1.1313
 2008THY    CA350190   5.810   9.547   0.812  0.3658 -0.6266  0.3274
 2008THY    HA350191   5.810   9.446   0.772  0.5899 -0.1268 -0.9856
 2008THY    CA450192   5.720   9.646   0.759 -1.0078  0.0884  0.4879
 2008THY    HA450193   5.660   9.637   0.670  0.0877 -0.4123 -0.2315
 2008THY    CA550194   5.715   9.771   0.820 -0.8061 -0.3628  0.2672
 2008THY    CM150195   5.624   9.881   0.774 -0.3742 -0.3552 -0.6104
 2008THY    HM150196   5.680   9.972   0.749  2.5087 -2.1609 -1.2019
 2008THY    HM250197   5.564   9.846   0.689  2.5704 -4.1019 -1.4242
 2008THY    HM350198   5.562   9.912   0.859  3.5728  0.4206  2.2860
 2008THY    CA650199   5.807   9.802   0.924 -0.4854 -0.1832  0.7432
 2008THY    HA650200   5.799   9.901   0.968 -2.1234 -0.5207  1.2510
 2009THY      O50201   6.541   6.514   7.492  0.2265 -0.1746  0.1827
 2009THY     HO50202   6.509   6.425   7.470 -1.9578  0.5509  0.1921
 2009THY    CA150203   6.635   6.481   7.583  0.0658  0.5214  0.0316
 2009THY    CA250204   6.744   6.565   7.604  0.6490  0.2381  0.5713
 2009THY    CP150205   6.766   6.699   7.524 -0.2938 -0.2817  0.0056
 2009THY    HP150206   6.702   6.718   7.437  0.0239  1.1165  0.0477
 2009THY    CP250207   6.736   6.812   7.621 -0.0325 -0.1408 -0.2396
 2009THY    HP250208   6.750   6.914   7.584 -0.0377  0.1706  0.6035
 2009THY    HP350209   6.633   6.802   7.658  0.2427  2.6909  1.6111
 2009THY    HP450210   6.798   6.803   7.711  3.6430 -0.0685 -2.5540
 2009THY    CP350211   6.916   6.715   7.469  0.2343 -0.1549  1.1617
 2009THY    HP550212   6.951   6.625   7.417  2.6635  0.6251  1.3201
 2009THY    HP650213   6.913   6.802   7.402 -3.9174  0.9155  2.4273
 2009THY    HP750214   6.986   6.744   7.548  0.6965  2.3924 -0.1041
 2009THY    CA350215   6.841   6.524   7.697 -0.4927 -0.1755 -0.3512
 2009THY    HA350216   6.926   6.591   7.711 -0.0242 -0.2932 -2.3650
 2009THY    CA450217   6.821   6.406   7.764  0.0088 -0.3147  0.0994
 2009THY    HA450218   6.892   6.380   7.841  2.9987  0.3993 -2.2312
 2009THY    CA550219   6.714   6.327   7.747  0.3033 -0.1600  0.0846
 2009THY    CM150220   6.682   6.204   7.829 -0.5711 -0.0620 -0.1709
 2009THY    HM150221   6.605   6.139   7.785 -1.2847 -0.0054  0.9539
 2009THY    HM250222   6.774   6.145   7.822 -1.0907 -1.2407  2.0575
 2009THY    HM350223   6.656   6.223   7.934  0.9416 -0.5464  0.3153
 2009THY    CA650224   6.622   6.359   7.647  0.2963 -0.1389  0.1885
 2009THY    HA650225   6.536   6.297   7.621 -0.2355  0.8118 -0.3805
 2010THY      O50226   9.334   2.319   8.697 -0.4372  0.2650  0.1310
 2010THY     HO50227   9.401   2.389   8.690  1.0050 -1.1806 -1.7250
 2010THY    CA150228   9.373   2.237   8.806 -0.4603 -1.0669 -0.8586
 2010THY    CA250229   9.295   2.132   8.850 -0.1336 -0.2283 -0.2863
 2010THY    CP150230   9.176   2.091   8.767  0.8226  0.2159  0.3990
 2010THY    HP150231   9.158   2.148   8.675  1.0909  0.1884  0.3301
 2010THY    CP250232   9.183   1.941   8.728 -0.1272  0.9378 -0.1083
 2010THY    HP250233   9.091   1.910   8.678  1.2952 -1.8995 -1.1812
 2010THY    HP350234   9.259   1.912   8.654  1.1759 -0.9017  1.8418
 2010THY    HP450235   9.202   1.873   8.812 -1.2043  1.8971  0.9697
 2010THY    CP350236   9.044   2.108   8.839  0.3585 -0.1289  0.2984
 2010THY    HP550237   9.042   2.065   8.940  0.1997 -0.7268  0.0484
 2010THY    HP650238   9.021   2.214   8.854  0.0711 -0.2655  0.8418
 2010THY    HP750239   8.960   2.066   8.784 -0.2252  1.5640 -0.1700
 2010THY    CA350240   9.327   2.084   8.968  0.3176 -0.4456  0.5979
 2010THY    HA350241   9.266   2.003   9.007 -1.1290 -0.3077 -1.2413
 2010THY    CA450242   9.439   2.131   9.037 -0.3173  0.0641 -0.0175
 2010THY    HA450243   9.460   2.082   9.132 -0.4125  0.5261  0.2506
 2010THY    CA550244   9.518   2.236   8.994 -1.0337  0.0554 -0.3696
 2010THY    CM150245   9.614   2.311   9.074 -0.1940  0.6577 -0.8214
 2010THY    HM150246   9.711   2.307   9.024  0.6497  0.3184  0.7587
 2010THY    HM250247   9.583   2.413   9.098  0.3144  0.9668 -1.4632
 2010THY    HM350248   9.637   2.261   9.169 -1.0191  1.2763 -0.2815
 2010THY    CA650249   9.482   2.287   8.874  0.0712 -0.7989 -0.1041
 2010THY    HA650250   9.526   2.384   8.851  0.6234 -0.2004  2.9314
 2011THY      O50251   8.376   0.984   9.813  0.3474  0.0432 -0.2263
 2011THY     HO50252   8.325   0.979   9.730 -1.4464  2.6361  0.5980
 2011THY    CA150253   8.331   0.885   9.900  0.4221 -0.7209 -0.0393
 2011THY    CA250254   8.354   0.887  10.034 -0.0848 -0.2995 -0.7505
 2011THY    CP150255   8.434   1.006  10.092 -0.6945 -0.4153  0.7320
 2011THY    HP150256   8.415   1.093  10.028 -0.4800 -0.5460  0.4886
 2011THY    CP250257   8.380   1.055  10.227 -0.3346  0.7584  0.6614
 2011THY    HP250258   8.411   1.159  10.240 -3.1715  1.7137  0.5528
 2011THY    HP350259   8.270   1.055  10.233 -0.5346 -4.3883  4.4323
 2011THY    HP450260   8.410   0.982  10.303 -0.6026 -0.8792 -0.7513
 2011THY    CP350261   8.576   0.980  10.091  0.0220 -0.6570  0.1422
 2011THY    HP550262   8.607   0.912  10.011 -0.8490 -3.5051  2.0589
 2011THY    HP650263   8.631   1.073  10.077  1.7341 -1.6085  0.2537
 2011THY    HP750264   8.607   0.940  10.188  0.4194 -0.4482  0.1014
 2011THY    CA350265   8.307   0.774  10.110  1.0097 -0.6142  0.9564
 2011THY    HA350266   8.324   0.771  10.217 -1.3700 -1.8031  1.3779
 2011THY    CA450267   8.227   0.674  10.048  0.0584  0.2171  0.6238
 2011THY    HA450268   8.186   0.591  10.105 -1.5508  0.4505 -0.1224
 2011THY    CA550269   8.207   0.678   9.913 -0.6948  0.1724  0.2624
 2011THY    CM150270   8.105   0.591   9.846  0.3083  0.1957 -0.6449
 2011THY    HM150271   8.042   0.541   9.921  0.1569  3.2111  1.3897
 2011THY    HM250272   8.046   0.664   9.790  0.4052  0.5298 -0.3183
 2011THY    HM350273   8.156   0.524   9.775  1.2315  0.0732  0.1050
 2011THY    CA650274   8.259   0.781   9.842  0.5225  0.0149 -0.0061
 2011THY    HA650275   8.236   0.786   9.735 -0.6090 -1.4904  0.1373
 2012THY      O50276   8.790   6.399   0.532  0.3651  0.3922  0.2333
 2012THY     HO50277   8.744   6.372   0.614 -0.5938  0.1921 -0.3577
 2012THY    CA150278   8.922   6.361   0.556  0.4534  0.1594 -0.3586
 2012THY    CA250279   8.987   6.263   0.475 -0.1985 -0.1258  0.0341
 2012THY    CP150280   8.913   6.207   0.348  0.0821  0.0063 -0.1894
 2012THY    HP150281   8.805   6.215   0.363 -0.1896 -1.2043 -1.3788
 2012THY    CP250282   8.948   6.300   0.237 -0.3168  0.0569 -0.0260
 2012THY    HP250283   9.056   6.321   0.232 -0.1895 -0.6921 -0.6580
 2012THY    HP350284   8.908   6.255   0.146 -1.1118 -0.2593  0.4720
 2012THY    HP450285   8.889   6.391   0.247 -3.9940 -1.8506 -2.3793
 2012THY    CP350286   8.935   6.056   0.321 -0.3351 -0.0129  0.2156
 2012THY    HP550287   8.877   6.019   0.236 -0.4552  1.2057 -0.2549
 2012THY    HP650288   9.044   6.044   0.308 -0.5859 -1.9992 -0.4090
 2012THY    HP750289   8.922   6.007   0.419  2.0128 -0.1210  0.5440
 2012THY    CA350290   9.122   6.225   0.516 -0.4937 -0.3886 -0.5621
 2012THY    HA350291   9.173   6.149   0.457 -2.8590 -0.6583 -2.4739
 2012THY    CA450292   9.184   6.290   0.622  0.2604 -0.2372 -0.1294
 2012THY    HA450293   9.288   6.275   0.649  0.4817  1.2581 -0.1160
 2012THY    CA550294   9.110   6.374   0.707  0.4949  0.3768 -0.0657
 2012THY    CM150295   9.170   6.436   0.829 -0.8266 -0.7524 -0.2844
 2012THY    HM150296   9.103   6.471   0.908 -1.7246 -0.7904 -1.0116
 2012THY    HM250297   9.256   6.386   0.873 -0.1595 -0.0838 -0.8037
 2012THY    HM350298   9.221   6.530   0.806  1.9166 -1.5874  1.8140
 2012THY    CA650299   8.978   6.404   0.673 -0.1704 -0.4267 -0.4102
 2012THY    HA650300   8.927   6.463   0.749  0.3272 -1.6239  0.8957
 2013THY      O50301   5.272   5.571   4.309 -0.5412  0.2613 -0.1906
 2013THY     HO50302   5.320   5.627   4.372  1.0820  0.0793 -1.2010
 2013THY    CA150303   5.171   5.649   4.266  0.0467  0.0946  1.4083
 2013THY    CA250304   5.089   5.605   4.162 -0.7826 -0.3605  0.8254
 2013THY    CP150305   5.125   5.469   4.089  0.5637  0.1956 -0.0656
 2013THY    HP150306   5.148   5.391   4.162 -0.9950 -1.7022 -1.5121
 2013THY    CP250307   5.004   5.413   4.016 -0.2976 -0.0423  0.0092
 2013THY    HP250308   4.999   5.452   3.913 -2.4957  1.3823  0.5895
 2013THY    HP350309   5.023   5.305   4.008 -0.2152 -0.1414  1.3214
 2013THY    HP450310   4.916   5.429   4.080 -0.8694 -1.6921 -0.3024
 2013THY    CP350311   5.242   5.494   3.986 -0.0028 -0.5692  0.5617
 2013THY    HP550312   5.335   5.526   4.035  0.3503 -0.4300 -0.1777
 2013THY    HP650313   5.273   5.414   3.918 -0.4036 -0.1063 -0.1868
 2013THY    HP750314   5.212   5.575   3.918 -2.2615 -0.7714  1.2474
 2013THY    CA350315   4.997   5.707   4.109  0.0351 -0.0633  0.9641
 2013THY    HA350316   4.924   5.681   4.032  0.4129 -0.4535  0.7349
 2013THY    CA450317   4.985   5.834   4.161 -0.3831  0.1577 -1.0886
 2013THY    HA450318   4.904   5.898   4.128 -0.0052  0.7299 -0.9135
 2013THY    CA550319   5.069   5.867   4.261 -0.1995 -0.3418 -0.4471
 2013THY    CM150320   5.052   6.009   4.311 -0.1147  0.0406  0.3685
 2013THY    HM150321   4.957   6.057   4.283  1.1490  2.6670  0.2871
 2013THY    HM250322   5.062   6.021   4.419 -0.1505  1.0870  0.2642
 2013THY    HM350323   5.127   6.073   4.262  0.8727 -1.1797  0.2187
 2013THY    CA650324   5.163   5.780   4.315 -0.3423  0.5052  0.2812
 2013THY    HA650325   5.216   5.816   4.403 -0.4523  1.3007  0.0265
 2014THY      O50326   7.683   6.554   5.122  0.4670 -0.3355  0.0589
 2014THY     HO50327   7.766   6.573   5.075  0.2076 -0.2572 -0.3727
 2014THY    CA150328   7.588   6.648   5.085  0.4460 -0.5169 -0.4872
 2014THY    CA250329   7.446   6.626   5.098  0.2124 -0.0333 -0.0976
 2014THY    CP150330   7.392   6.498   5.157  0.6333 -0.1728  0.1893
 2014THY    HP150331   7.463   6.438   5.214  0.3268 -0.9639 -0.2556
 2014THY    CP250332   7.286   6.533   5.261 -0.2912  0.4420  0.3123
 2014THY    HP250333   7.259   6.431   5.290 -1.3102 -0.0114 -1.9778
 2014THY    HP350334   7.336   6.591   5.340  1.2381  1.3979 -1.2701
 2014THY    HP450335   7.197   6.590   5.232 -1.1306  0.3845  2.5963
 2014THY    CP350336   7.334   6.411   5.048  0.2997 -0.3148 -0.5547
 2014THY    HP550337   7.321   6.308   5.084  1.0213  0.0259  0.7189
 2014THY    HP650338   7.240   6.455   5.011  0.0083 -0.2379  0.2606
 2014THY    HP750339   7.396   6.405   4.957 -1.6841 -0.8354 -1.9550
 2014THY    CA350340   7.360   6.722   5.044  0.1548  0.4413 -0.5118
 2014THY    HA350341   7.255   6.703   5.062  0.3858 -1.5759 -0.9443
 2014THY    CA450342   7.413   6.840   4.996  0.3458  0.3319  1.1649
 2014THY    HA450343   7.340   6.917   4.974 -1.1712 -1.6421 -1.2779
 2014THY    CA550344   7.547   6.861   4.996 -0.0939 -0.1130  0.2296
 2014THY    CM150345   7.606   6.985   4.937  0.7338  0.3593 -0.6118
 2014THY    HM150346   7.715   6.973   4.928  0.7236 -0.8492  0.5310
 2014THY    HM250347   7.552   7.002   4.843  0.2077  0.9312 -0.2152
 2014THY    HM350348   7.591   7.071   5.003 -1.2663  1.9904 -3.0184
 2014THY    CA650349   7.637   6.766   5.041  0.0450  0.1948 -0.0845
 2014THY    HA650350   7.745   6.781   5.042 -0.0050  0.6175 -0.5178
 2015THY      O50351   3.116   3.822   6.647 -0.4655  0.1367 -0.6988
 2015THY     HO50352   3.057   3.892   6.614 -1.4574  0.0775  0.8372
 2015THY    CA150353   3.195   3.790   6.545  0.7385 -0.0974 -0.0067
 2015THY    CA250354   3.275   3.679   6.548 -0.5638  0.1523 -0.4023
 2015THY    CP150355   3.290   3.583   6.670  0.3924  0.1633 -0.0592
 2015THY    HP150356   3.220   3.631   6.740 -0.6890  2.6608 -2.6965
 2015THY    CP250357   3.238   3.443   6.639  0.0501 -0.1970 -0.5699
 2015THY    HP250358   3.296   3.395   6.560  2.2899  0.4707  0.5981
 2015THY    HP350359   3.259   3.391   6.734  0.7543  0.4693 -0.3555
 2015THY    HP450360   3.133   3.435   6.608  0.3922 -1.7464 -1.4357
 2015THY    CP350361   3.427   3.588   6.725 -0.6200 -0.2498  0.0273
 2015THY    HP550362   3.497   3.547   6.652  1.7565 -0.3533  2.2140
 2015THY    HP650363   3.455   3.686   6.767 -0.3045 -0.7650  1.0673
 2015THY    HP750364   3.446   3.513   6.802 -0.3112 -1.2075 -0.9626
 2015THY    CA350365   3.349   3.663   6.427  0.0538 -0.2078 -0.0299
 2015THY    HA350366   3.415   3.577   6.420 -0.3814 -0.5932  0.4771
 2015THY    CA450367   3.340   3.757   6.328  0.2809 -0.0093  0.6987
 2015THY    HA450368   3.415   3.765   6.250 -0.0150  0.8488  0.4801
 2015THY    CA550369   3.264   3.871   6.331 -0.1093  0.4096  0.0512
 2015THY    CM150370   3.277   3.981   6.227  0.3214  0.2211 -1.1281
 2015THY    HM150371   3.357   3.963   6.154  0.5634  0.1208 -0.8409
 2015THY    HM250372   3.179   4.002   6.182 -1.1693  0.0816  1.8483
 2015THY    HM350373   3.313   4.069   6.280  0.4201 -0.7118  0.4009
 2015THY    CA650374   3.183   3.886   6.439 -0.2000  0.6506  0.4156
 2015THY    HA650375   3.125   3.977   6.447 -1.9561 -0.4233  0.6529
 2016THY      O50376   1.990   2.080   1.999 -0.3718  0.1146  0.2038
 2016THY     HO50377   2.028   2.137   1.931  1.8764 -2.2180 -0.6883
 2016THY    CA150378   2.094   2.042   2.084 -0.2867  0.0685  0.6182
 2016THY    CA250379   2.073   1.938   2.173  0.1035 -0.5767 -0.1749
 2016THY    CP150380   1.941   1.873   2.204  0.5212  1.1076  0.7883
 2016THY    HP150381   1.863   1.922   2.144 -0.3199  0.2044  1.1080
 2016THY    CP250382   1.937   1.727   2.160 -0.1787 -0.5291 -0.3481
 2016THY    HP250383   1.860   1.670   2.214  0.9552 -1.0385  0.7915
 2016THY    HP350384   1.929   1.711   2.052 -0.3071 -0.4696 -0.3464
 2016THY    HP450385   2.031   1.676   2.187 -0.2982 -0.0881  0.9964
 2016THY    CP350386   1.891   1.893   2.347  1.0302  0.1632  0.3555
 2016THY    HP550387   1.874   2.000   2.364  0.1974  0.2115 -0.6945
 2016THY    HP650388   1.800   1.835   2.364  0.7841  0.3160 -0.4341
 2016THY    HP750389   1.959   1.852   2.423  1.7206 -1.8985 -1.2832
 2016THY    CA350390   2.185   1.904   2.255  0.2723  0.4135  0.2970
 2016THY    HA350391   2.178   1.830   2.334  0.1864 -1.6287 -1.5391
 2016THY    CA450392   2.306   1.968   2.251 -1.1574 -0.2879 -0.1528
 2016THY    HA450393   2.387   1.947   2.321 -1.4398 -1.5679 -0.1819
 2016THY    CA550394   2.317   2.074   2.167  0.2921 -0.1570  0.4500
 2016THY    CM150395   2.442   2.163   2.166  0.0168  0.1450  0.7807
 2016THY    HM150396   2.416   2.266   2.191  0.6078  0.8473 -1.3358
 2016THY    HM250397   2.523   2.120   2.227  1.7580  1.2115 -0.6900
 2016THY    HM350398   2.481   2.159   2.064 -0.8342 -0.3500  0.4624
 2016THY    CA650399   2.210   2.120   2.098 -0.7553 -0.0301  0.0427
 2016THY    HA650400   2.222   2.214   2.046 -2.0500  1.2338  1.9387
 2017THY      O50401   1.468   6.169   0.155  0.5621 -0.3164  0.2090
 2017THY     HO50402   1.476   6.246   0.213  1.6566 -0.1333 -0.1575
 2017THY    CA150403   1.579   6.093   0.177  0.5722 -0.4464 -0.2651
 2017THY    CA250404   1.590   5.954   0.157 -0.3457 -0.0506 -0.8525
 2017THY    CP150405   1.479   5.876   0.088  0.2179  0.1844 -0.0883
 2017THY    HP150406   1.409   5.948   0.044 -0.0294  0.5459  0.8898
 2017THY    CP250407   1.538   5.802  -0.029  0.3783 -0.3758  0.1126
 2017THY    HP250408   1.615   5.738   0.014  0.5415 -0.4898 -0.3379
 2017THY    HP350409   1.460   5.739  -0.075  1.0261 -1.9117  1.0619
 2017THY    HP450410   1.575   5.864  -0.112  1.3397  0.3968  1.0982
 2017THY    CP350411   1.411   5.783   0.184  0.0596  0.8569 -0.9370
 2017THY    HP550412   1.335   5.723   0.134 -1.2888  0.6229  1.2607
 2017THY    HP650413   1.481   5.713   0.230  0.4981  1.4700 -0.6448
 2017THY    HP750414   1.367   5.821   0.278  0.3210 -1.4114  0.1747
 2017THY    CA350415   1.708   5.886   0.197 -0.4938 -0.1816 -0.0199
 2017THY    HA350416   1.720   5.778   0.199 -0.3165 -0.1587  0.5719
 2017THY    CA450417   1.814   5.965   0.243 -0.1688 -0.0891 -0.1394
 2017THY    HA450418   1.913   5.927   0.266 -0.2123  0.3632  0.8780
 2017THY    CA550419   1.806   6.103   0.251 -0.3728  0.1356 -0.1543
 2017THY    CM150420   1.929   6.182   0.287  0.0505 -0.7268  0.1595
 2017THY    HM150421   2.022   6.142   0.245  0.9218  2.0442 -0.7532
 2017THY    HM250422   1.938   6.279   0.237  1.4894  0.0682  1.8245
 2017THY    HM350423   1.937   6.181   0.397  0.3276 -1.2888  0.1404
 2017THY    CA650424   1.687   6.163   0.225 -0.4797 -0.2534  0.0836
 2017THY    HA650425   1.685   6.270   0.241 -0.1489  0.0579 -1.6806
 2018THY      O50426   4.369   8.387   9.496 -0.0829  0.1740 -0.4786
 2018THY     HO50427   4.453   8.420   9.459  0.2001  0.3725  0.3255
 2018THY    CA150428   4.407   8.368   9.621  0.5171  0.3150 -0.7938
 2018THY    CA250429   4.320   8.292   9.717 -0.2513 -0.4286 -0.2912
 2018THY    CP150430   4.195   8.219   9.670  0.2258  0.2284  0.1117
 2018THY    HP150431   4.177   8.277   9.578 -0.1176  1.3364  0.8593
 2018THY    CP250432   4.224   8.074   9.633  0.0392 -0.2333 -0.2802
 2018THY    HP250433   4.134   8.012   9.640 -1.0131  1.3108  0.3731
 2018THY    HP350434   4.248   8.073   9.526 -0.9013 -1.0385 -0.4988
 2018THY    HP450435   4.304   8.043   9.701 -0.1870  1.7467  0.9853
 2018THY    CP350436   4.076   8.246   9.761 -0.7989 -0.3040  0.1345
 2018THY    HP550437   4.063   8.350   9.794 -0.0173  0.4184 -1.7259
 2018THY    HP650438   3.977   8.210   9.729 -0.0375 -2.0894 -0.3115
 2018THY    HP750439   4.093   8.191   9.855 -2.8163 -1.6104 -0.1854
 2018THY    CA350440   4.377   8.272   9.847 -0.8176 -0.6521 -0.1595
 2018THY    HA350441   4.326   8.214   9.923 -1.8367  0.8039  0.3104
 2018THY    CA450442   4.502   8.339   9.882 -0.0365  0.5006 -0.6847
 2018THY    HA450443   4.549   8.319   9.978 -1.1419 -1.0344 -0.4155
 2018THY    CA550444   4.575   8.405   9.789  0.4653 -0.7657  0.0825
 2018THY    CM150445   4.704   8.455   9.843  0.8519 -0.0775  0.0653
 2018THY    HM150446   4.734   8.385   9.921  1.4414  0.2692  0.1516
 2018THY    HM250447   4.775   8.459   9.760  1.9863 -2.2522  0.8555
 2018THY    HM350448   4.679   8.553   9.885 -3.4503 -0.0725 -1.9194
 2018THY    CA650449   4.525   8.429   9.660  0.1762 -0.3277 -0.3074
 2018THY    HA650450   4.580   8.483   9.583  0.4425  1.4548  1.0919
 2019THY      O50451   3.535   8.263   6.944 -0.1893 -0.1171  0.0978
 2019THY     HO50452   3.504   8.187   6.892 -0.5107 -1.7583  2.5132
 2019THY    CA150453   3.559   8.208   7.059  0.0220  0.3353  0.0304
 2019THY    CA250454   3.648   8.262   7.148 -0.1161 -0.2972  0.6751
 2019THY    CP150455   3.736   8.380   7.104  0.0909 -0.3187  0.0609
 2019THY    HP150456   3.696   8.419   7.009 -1.9492  1.0700  1.4183
 2019THY    CP250457   3.726   8.493   7.208  0.8861 -0.4735  0.1167
 2019THY    HP250458   3.618   8.514   7.212  1.0324  0.3643 -0.0225
 2019THY    HP350459   3.761   8.464   7.307  1.6513  2.3131  0.7604
 2019THY    HP450460   3.790   8.577   7.178 -0.5945 -0.2972 -3.0374
 2019THY    CP350461   3.881   8.336   7.085  0.4205 -0.5573 -0.5565
 2019THY    HP550462   3.937   8.410   7.028  1.1278 -0.0304  0.7760
 2019THY    HP650463   3.927   8.309   7.181 -1.5221 -2.5014 -0.0699
 2019THY    HP750464   3.877   8.242   7.028 -0.5839 -1.6658  1.2364
 2019THY    CA350465   3.678   8.204   7.270  0.0552  0.2453 -0.3379
 2019THY    HA350466   3.758   8.249   7.329  0.4974  2.0524 -2.1902
 2019THY    CA450467   3.609   8.091   7.307 -0.2265  0.2334 -0.0486
 2019THY    HA450468   3.639   8.041   7.399 -0.1736 -0.5689 -0.4970
 2019THY    CA550469   3.513   8.041   7.222  0.2137  0.6343  0.4101
 2019THY    CM150470   3.432   7.918   7.260  0.3731 -0.2139 -0.4845
 2019THY    HM150471   3.396   7.874   7.166  0.4005 -0.3663 -0.4243
 2019THY    HM250472   3.494   7.845   7.313 -2.0310 -0.9255  1.6061
 2019THY    HM350473   3.345   7.950   7.319 -0.4028 -0.1972 -1.6219
 2019THY    CA650474   3.493   8.090   7.095 -0.9365 -0.9020  0.0709
 2019THY    HA650475   3.408   8.070   7.031 -0.9459  2.6450 -1.2494
 2020THY      O50476   3.245   2.608   7.241 -0.0123  0.7667 -0.3289
 2020THY     HO50477   3.296   2.649   7.313 -2.5669 -0.8186  2.6710
 2020THY    CA150478   3.154   2.536   7.309  0.2567 -0.6722 -0.1706
 2020THY    CA250479   3.037   2.498   7.241 -0.2092  0.4030  0.2260
 2020THY    CP150480   3.028   2.505   7.089  0.0509  0.5535  0.7955
 2020THY    HP150481   3.125   2.533   7.045  1.3874 -4.0692  0.2651
 2020THY    CP250482   3.009   2.369   7.021 -0.3716 -0.0493 -0.0167
 2020THY    HP250483   2.904   2.342   7.033 -0.7884  1.7658  0.7797
 2020THY    HP350484   3.031   2.382   6.914  0.6488 -0.5855  0.1141
 2020THY    HP450485   3.082   2.302   7.066  1.3980  2.5479  1.2492
 2020THY    CP350486   2.933   2.617   7.054 -0.3041 -0.4027  0.7242
 2020THY    HP550487   2.830   2.594   7.084 -0.9905 -0.8832 -1.7816
 2020THY    HP650488   2.966   2.716   7.087 -0.8976 -0.8817  2.9408
 2020THY    HP750489   2.923   2.626   6.945  3.0970 -0.4335  0.3282
 2020THY    CA350490   2.932   2.441   7.319  0.3895  0.0421  0.6637
 2020THY    HA350491   2.852   2.388   7.269  1.6541 -3.6964  2.2355
 2020THY    CA450492   2.949   2.415   7.459  0.6454  0.4256  0.0048
 2020THY    HA450493   2.864   2.379   7.516  0.6518 -2.9882 -1.8750
 2020THY    CA550494   3.067   2.452   7.524 -0.2406 -0.4986  0.4910
 2020THY    CM150495   3.091   2.441   7.669  0.6313  0.2743 -0.4427
 2020THY    HM150496   3.093   2.539   7.718  1.7872  0.1179 -0.1511
 2020THY    HM250497   3.003   2.388   7.709  0.7185  0.3724 -0.1119
 2020THY    HM350498   3.176   2.375   7.690 -1.1067 -1.9394  0.1567
 2020THY    CA650499   3.167   2.513   7.447 -0.1519 -0.5474 -0.2053
 2020THY    HA650500   3.256   2.552   7.494  0.5265 -1.2078 -0.9036
 2021THY      O50501   3.203   6.584   6.976  0.0676 -0.0736 -0.0659
 2021THY     HO50502   3.128   6.606   6.918 -1.6714 -0.4963  1.8728
 2021THY    CA150503   3.318   6.616   6.924 -0.2976  0.2284 -0.6400
 2021THY    CA250504   3.400   6.716   6.969  0.5347 -0.0797 -0.2954
 2021THY    CP150505   3.360   6.783   7.104 -0.4369  0.6220 -0.5703
 2021THY    HP150506   3.251   6.798   7.109 -0.5872 -0.0934 -1.3946
 2021THY    CP250507   3.406   6.701   7.227  0.2018 -0.0703 -0.4202
 2021THY    HP250508   3.501   6.649   7.212  0.4276 -0.9649  3.2138
 2021THY    HP350509   3.407   6.762   7.318  0.1120  0.5246 -0.8144
 2021THY    HP450510   3.325   6.632   7.253  1.0496 -0.2108  2.2015
 2021THY    CP350511   3.424   6.916   7.125 -0.2969  0.4319  0.2140
 2021THY    HP550512   3.409   6.974   7.034  1.5711 -1.7652 -1.6121
 2021THY    HP650513   3.370   6.956   7.212  0.2072  0.1930  0.6469
 2021THY    HP750514   3.532   6.909   7.143 -0.2680  1.9280  0.8256
 2021THY    CA350515   3.506   6.760   6.889  1.1281  0.9862  0.6915
 2021THY    HA350516   3.573   6.837   6.926  1.6649  0.3254  1.0997
 2021THY    CA450517   3.526   6.698   6.765 -0.0898  0.3905  0.2138
 2021THY    HA450518   3.609   6.728   6.701  0.7471  0.1486  1.1685
 2021THY    CA550519   3.448   6.585   6.727 -0.0963 -0.0557  0.2727
 2021THY    CM150520   3.477   6.497   6.607  0.5057 -0.4267  0.1157
 2021THY    HM150521   3.383   6.456   6.569 -0.1973  1.2195 -0.0007
 2021THY    HM250522   3.539   6.538   6.527  0.4360 -4.2706 -2.1548
 2021THY    HM350523   3.531   6.408   6.641  1.3739 -0.6559 -1.7737
 2021THY    CA650524   3.344   6.549   6.805 -0.9976  0.5546 -0.0931
 2021THY    HA650525   3.278   6.472   6.767 -2.0346 -0.3485  3.2620
 2022THY      O50526   4.061   1.723   2.363  0.1717 -0.3603  0.0844
 2022THY     HO50527   4.046   1.705   2.268 -2.5103 -0.6605  0.5056
 2022THY    CA150528   4.007   1.845   2.383 -0.4241  0.3030  0.3397
 2022THY    CA250529   3.962   1.886   2.508 -0.8643 -0.7247 -0.0902
 2022THY    CP150530   3.945   1.781   2.617  0.3062  0.4182 -0.4428
 2022THY    HP150531   3.997   1.685   2.613 -0.4382 -0.1308  1.6563
 2022THY    CP250532   4.003   1.833   2.748 -0.3830 -0.1652  0.3463
 2022THY    HP250533   4.008   1.752   2.822  1.8771  3.3545  4.5416
 2022THY    HP350534   4.103   1.875   2.728  0.4347 -2.6870 -1.3923
 2022THY    HP450535   3.949   1.919   2.790  0.7944  1.0648 -0.5716
 2022THY    CP350536   3.792   1.749   2.645 -0.1120  0.7907 -0.5647
 2022THY    HP550537   3.785   1.643   2.673 -0.8427  0.8426 -0.5248
 2022THY    HP650538   3.754   1.785   2.742 -3.2718 -0.5243 -1.1823
 2022THY    HP750539   3.728   1.782   2.563 -1.7433 -1.3560 -0.2415
 2022THY    CA350540   3.920   2.018   2.528  0.0649 -0.3849 -0.1962
 2022THY    HA350541   3.880   2.053   2.623 -1.0910 -1.6811 -0.1764
 2022THY    CA450542   3.926   2.108   2.421 -0.2099  0.4145  0.3186
 2022THY    HA450543   3.884   2.207   2.428  1.4393  1.0959  1.3338
 2022THY    CA550544   3.974   2.066   2.298 -0.7604 -1.1657  0.6130
 2022THY    CM150545   3.984   2.152   2.177 -0.2325 -0.4039 -0.5170
 2022THY    HM150546   3.886   2.198   2.161 -0.6058 -1.3589 -1.0325
 2022THY    HM250547   4.047   2.240   2.198 -0.7886 -0.2545  0.5319
 2022THY    HM350548   4.023   2.103   2.087  0.6943  1.1986 -1.0336
 2022THY    CA650549   4.015   1.938   2.282  0.6117  0.0667  0.7966
 2022THY    HA650550   4.043   1.904   2.183 -1.7071  0.7659 -0.1562
 2023THY      O50551   9.660   9.889   2.829  0.0079  0.3369 -0.7764
 2023THY     HO50552   9.728   9.925   2.888 -2.0660  3.6161 -0.0819
 2023THY    CA150553   9.607   9.781   2.891 -0.1673 -0.6181  0.4778
 2023THY    CA250554   9.529   9.692   2.818  0.9800 -0.7310  0.0897
 2023THY    CP150555   9.506   9.717   2.666  0.1992 -0.0839 -0.4765
 2023THY    HP150556   9.486   9.823   2.646  0.5984 -0.0957 -0.9825
 2023THY    CP250557   9.618   9.683   2.570  0.0080 -0.1868 -0.9204
 2023THY    HP250558   9.616   9.745   2.480  1.3717  2.7017  0.8798
 2023THY    HP350559   9.709   9.707   2.627 -1.8177  2.7490  1.0321
 2023THY    HP450560   9.606   9.578   2.541 -2.4005 -1.1371  2.8371
 2023THY    CP350561   9.373   9.656   2.619  0.8043 -0.5616  0.3215
 2023THY    HP550562   9.293   9.679   2.690 -1.3477  0.8717 -2.3666
 2023THY    HP650563   9.338   9.690   2.520 -1.4416 -0.0483  1.2319
 2023THY    HP750564   9.385   9.547   2.613 -2.4855 -1.1113  1.9422
 2023THY    CA350565   9.474   9.584   2.890 -0.7646  0.4739  0.1526
 2023THY    HA350566   9.413   9.510   2.839 -0.7175  0.6988 -0.2409
 2023THY    CA450567   9.503   9.564   3.031 -0.1317 -0.0361  0.2386
 2023THY    HA450568   9.468   9.477   3.085 -2.0092  0.1362 -0.6295
 2023THY    CA550569   9.573   9.663   3.100 -0.0197 -0.3002  0.3591
 2023THY    CM150570   9.608   9.653   3.244  0.3939 -0.0994 -0.0097
 2023THY    HM150571   9.695   9.718   3.261  1.5135 -0.6612 -2.9335
 2023THY    HM250572   9.535   9.676   3.322 -1.7043 -3.0247 -0.9467
 2023THY    HM350573   9.635   9.548   3.256 -2.8673 -1.0267  0.0285
 2023THY    CA650574   9.635   9.765   3.023  0.1283 -0.2852 -0.2571
 2023THY    HA650575   9.695   9.837   3.078  0.6256 -0.5520 -0.4456
 2024THY      O50576   9.026   2.013   1.724 -0.4117  0.0781  0.3496
 2024THY     HO50577   9.075   2.088   1.687 -1.3207 -0.3145 -1.7996
 2024THY    CA150578   9.122   1.932   1.788 -0.0392  0.9089  0.5065
 2024THY    CA250579   9.100   1.863   1.909 -0.1665 -0.3630 -0.4674
 2024THY    CP150580   8.966   1.881   1.977 -0.3601  0.0963 -0.4386
 2024THY    HP150581   8.884   1.939   1.933  0.3666  2.0209  0.6335
 2024THY    CP250582   8.908   1.743   1.994  0.5911  0.0007 -0.0571
 2024THY    HP250583   8.809   1.735   2.039 -0.5284 -3.3860 -2.7138
 2024THY    HP350584   8.910   1.692   1.897 -0.3236 -2.0886  0.9698
 2024THY    HP450585   8.980   1.692   2.059 -0.7109  2.1187  3.2960
 2024THY    CP350586   8.984   1.945   2.112  0.5441  0.2308 -0.9140
 2024THY    HP550587   8.882   1.971   2.145  0.6718 -0.1741 -0.1775
 2024THY    HP650588   9.036   1.882   2.186  2.0499  1.2443 -1.0695
 2024THY    HP750589   9.037   2.041   2.115  0.2730  0.3823  1.8002
 2024THY    CA350590   9.199   1.776   1.957  0.5388  0.4008 -0.3795
 2024THY    HA350591   9.187   1.721   2.051  1.1083  1.4240  0.3073
 2024THY    CA450592   9.321   1.763   1.890  0.9460 -0.0438 -0.2464
 2024THY    HA450593   9.400   1.699   1.927 -0.2240 -0.7651  1.1179
 2024THY    CA550594   9.336   1.835   1.771 -0.7131  0.8815 -0.5918
 2024THY    CM150595   9.469   1.816   1.692  0.3985 -0.8425 -0.6333
 2024THY    HM150596   9.548   1.872   1.742 -1.9437  2.6103 -0.4225
 2024THY    HM250597   9.482   1.707   1.697 -0.7683 -0.9796 -0.0467
 2024THY    HM350598   9.459   1.866   1.595 -2.1616  2.1821  0.9813
 2024THY    CA650599   9.238   1.907   1.717  0.7380 -0.0997 -0.3666
 2024THY    HA650600   9.254   1.950   1.619  0.0253  0.5910 -0.1857
 2025THY      O50601   4.290   2.643   0.194  0.4583 -0.2825 -0.1722
 2025THY     HO50602   4.207   2.604   0.164  0.9205 -2.1848  0.8786
 2025THY    CA150603   4.369   2.542   0.248 -0.2403  0.0901 -0.5409
 2025THY    CA250604   4.493   2.574   0.310 -0.1213  0.0602  0.7111
 2025THY    CP150605   4.545   2.718   0.297  0.8411  0.3092  0.3343
 2025THY    HP150606   4.476   2.792   0.257  0.0417 -0.9425 -0.6839
 2025THY    CP250607   4.597   2.759   0.435 -0.3439 -0.5143 -0.6526
 2025THY    HP250608   4.517   2.752   0.509 -0.6403  1.1955 -0.7719
 2025THY    HP350609   4.688   2.701   0.454  0.3413 -0.1195 -2.5518
 2025THY    HP450610   4.620   2.866   0.436  0.1954 -0.6146  1.1682
 2025THY    CP350611   4.655   2.729   0.200  0.0496  0.4867 -0.9044
 2025THY    HP550612   4.667   2.640   0.138  0.8055  0.0645 -0.1649
 2025THY    HP650613   4.650   2.813   0.129 -0.0243  1.0819 -0.2032
 2025THY    HP750614   4.750   2.744   0.253 -1.2141 -0.2970  1.7622
 2025THY    CA350615   4.576   2.469   0.360 -0.2886  0.0309  0.1810
 2025THY    HA350616   4.672   2.493   0.406 -0.3873  0.0894  0.3571
 2025THY    CA450617   4.520   2.343   0.360 -0.2075  0.2294 -0.0363
 2025THY    HA450618   4.571   2.267   0.418 -0.5902 -0.1802 -0.2325
 2025THY    CA550619   4.404   2.310   0.285 -0.0998  0.5294 -0.8302
 2025THY    CM150620   4.342   2.175   0.293  0.1258  0.3487  0.0977
 2025THY    HM150621   4.406   2.103   0.241  1.6219 -0.3809  2.7572
 2025THY    HM250622   4.343   2.160   0.402  0.0387  0.0719  0.0602
 2025THY    HM350623   4.238   2.168   0.258  1.1143  0.5015 -3.2033
 2025THY    CA650624   4.328   2.409   0.230  0.1291 -0.0163  0.4067
 2025THY    HA650625   4.234   2.385   0.183  1.7708 -1.1993 -2.5627
 2026THY      O50626   8.688   8.970   8.059  1.0289  0.7843 -0.1216
 2026THY     HO50627   8.725   9.002   7.975 -0.8598  2.8634 -0.2730
 2026THY    CA150628   8.747   9.042   8.156 -0.1027  0.0176 -0.0368
 2026THY    CA250629   8.781   8.982   8.282 -0.8247  0.3289  0.2689
 2026THY    CP150630   8.759   8.832   8.312  0.9021  0.2499  0.4529
 2026THY    HP150631   8.699   8.791   8.229 -1.5073  2.7393  0.8039
 2026THY    CP250632   8.888   8.756   8.337  0.2562 -0.6578  0.2301
 2026THY    HP250633   8.949   8.773   8.248  0.4916  0.4486  0.5891
 2026THY    HP350634   8.937   8.801   8.423 -0.5473  0.7609 -0.0245
 2026THY    HP450635   8.866   8.652   8.364 -2.4588 -0.5083 -1.0126
 2026THY    CP350636   8.671   8.812   8.439 -0.0108  0.3874  0.3409
 2026THY    HP550637   8.728   8.850   8.525  1.2624 -1.9024  0.5871
 2026THY    HP650638   8.577   8.868   8.425 -0.0255 -0.0621 -1.6252
 2026THY    HP750639   8.648   8.705   8.448 -1.4423  0.4664 -1.7133
 2026THY    CA350640   8.846   9.062   8.376  0.5338  0.2013  0.4311
 2026THY    HA350641   8.891   9.009   8.458  2.7651  0.4270 -0.5779
 2026THY    CA450642   8.888   9.190   8.344 -0.5393 -0.8070  0.1262
 2026THY    HA450643   8.959   9.240   8.410 -1.2620  0.5181 -0.0656
 2026THY    CA550644   8.845   9.254   8.229 -0.0778 -0.1571 -0.5912
 2026THY    CM150645   8.863   9.397   8.208  0.4566 -0.0826  0.2371
 2026THY    HM150646   8.792   9.437   8.281 -0.7335 -1.6465 -0.0242
 2026THY    HM250647   8.964   9.439   8.218  0.7718 -0.8319  0.2948
 2026THY    HM350648   8.827   9.415   8.106  3.4694 -2.0375 -1.3182
 2026THY    CA650649   8.775   9.182   8.130 -0.4469  0.7205 -0.3571
 2026THY    HA650650   8.753   9.227   8.033 -1.2283 -0.1419 -0.5942
 2027THY      O50651   4.065   2.421   1.124  0.0718 -0.7117  0.1123
 2027THY     HO50652   4.109   2.427   1.038 -0.0715 -0.7155  0.0386
 2027THY    CA150653   3.936   2.422   1.090  0.1176  0.3859 -0.1475
 2027THY    CA250654   3.829   2.438   1.181 -0.3577  0.3411  0.1105
 2027THY    CP150655   3.849   2.444   1.336 -0.0530  0.4542 -0.3771
 2027THY    HP150656   3.945   2.404   1.370 -0.9036  0.0546  1.7504
 2027THY    CP250657   3.830   2.581   1.399  0.3974 -0.2669 -0.7967
 2027THY    HP250658   3.870   2.661   1.336 -1.0357 -1.5139 -3.4731
 2027THY    HP350659   3.724   2.603   1.382  0.3111 -0.0261 -0.0128
 2027THY    HP450660   3.838   2.590   1.508  1.1037  1.0347 -0.9318
 2027THY    CP350661   3.751   2.357   1.412  0.8437  1.3152  0.2934
 2027THY    HP550662   3.652   2.402   1.424 -0.3627 -1.0270 -0.1144
 2027THY    HP650663   3.743   2.264   1.354  0.1229  2.4597 -1.5212
 2027THY    HP750664   3.789   2.335   1.513 -1.1098  1.7949  1.1962
 2027THY    CA350665   3.696   2.446   1.124 -0.2517  0.0523 -0.2533
 2027THY    HA350666   3.616   2.458   1.196  0.2621 -1.8748  0.7142
 2027THY    CA450667   3.674   2.429   0.988 -0.8001 -0.8061 -0.2282
 2027THY    HA450668   3.570   2.436   0.958 -1.0084  0.5841  0.7135
 2027THY    CA550669   3.778   2.409   0.900 -0.1690 -0.4646 -0.6226
 2027THY    CM150670   3.755   2.397   0.747  0.3716 -0.4165 -0.3022
 2027THY    HM150671   3.770   2.503   0.721 -2.0837  0.2480  0.7019
 2027THY    HM250672   3.824   2.328   0.697  0.1295 -1.8100  1.2008
 2027THY    HM350673   3.651   2.369   0.729 -0.1153 -1.2018  2.9902
 2027THY    CA650674   3.909   2.418   0.950 -0.2444  0.2609  0.6676
 2027THY    HA650675   3.987   2.428   0.875 -0.6854  0.1952  0.1913
 2028THY      O50676   2.218   4.420   5.104  0.3391  0.4170  0.2111
 2028THY     HO50677   2.242   4.506   5.141 -1.6958  3.1679 -4.0789
 2028THY    CA150678   2.289   4.328   5.177  0.3869  0.5836  1.3576
 2028THY    CA250679   2.281   4.188   5.149 -0.2339 -0.0144  0.3065
 2028THY    CP150680   2.211   4.139   5.025 -0.0891  0.8347  0.4971
 2028THY    HP150681   2.198   4.218   4.950  0.1029  0.5567  0.1701
 2028THY    CP250682   2.274   4.032   4.941 -0.5696 -0.2611  0.5097
 2028THY    HP250683   2.377   4.060   4.914 -0.8804 -0.2858 -0.7910
 2028THY    HP350684   2.283   3.938   4.996  2.0763 -0.5404 -0.2945
 2028THY    HP450685   2.216   4.017   4.849 -0.6341  2.0966  0.0971
 2028THY    CP350686   2.076   4.093   5.062 -0.0740 -0.5547  0.3087
 2028THY    HP550687   2.081   3.992   5.104  0.5937 -1.4153 -1.7460
 2028THY    HP650688   2.043   4.172   5.132 -0.0566  0.8312 -1.1846
 2028THY    HP750689   2.012   4.083   4.974 -0.7850 -0.0578  0.7482
 2028THY    CA350690   2.365   4.101   5.230  0.0157 -0.0181 -0.7065
 2028THY    HA350691   2.374   3.996   5.200  0.0852 -0.4853  0.8857
 2028THY    CA450692   2.420   4.142   5.354  0.7434  0.1978  0.2478
 2028THY    HA450693   2.464   4.070   5.422 -0.6600  0.3198  1.3319
 2028THY    CA550694   2.410   4.278   5.385 -0.1745  0.0363  0.0919
 2028THY    CM150695   2.475   4.329   5.521 -0.2961  0.9653 -0.2370
 2028THY    HM150696   2.514   4.237   5.567 -4.3947 -0.9113 -0.0413
 2028THY    HM250697   2.551   4.407   5.520  1.9618 -1.0429 -2.8903
 2028THY    HM350698   2.390   4.370   5.578 -1.3347 -1.5771  0.1990
 2028THY    CA650699   2.354   4.369   5.294 -0.2547  0.3651  0.3059
 2028THY    HA650700   2.340   4.474   5.320 -2.4971  0.6450 -1.6359
 2029THY      O50701   4.429   2.503   6.650  0.9108 -0.3066  0.1083
 2029THY     HO50702   4.378   2.426   6.681  0.2329  0.0935 -0.0040
 2029THY    CA150703   4.503   2.539   6.758 -0.2584  0.2910  0.4534
 2029THY    CA250704   4.564   2.667   6.763  0.5501 -0.0101  0.2947
 2029THY    CP150705   4.566   2.753   6.634  1.1634  0.0220 -0.1809
 2029THY    HP150706   4.552   2.697   6.541 -1.6012  2.2031 -1.2227
 2029THY    CP250707   4.441   2.851   6.644  0.4082  0.5225  0.3500
 2029THY    HP250708   4.343   2.804   6.658 -1.1131  3.8586  2.0071
 2029THY    HP350709   4.456   2.924   6.724 -0.2041  0.2539  0.7162
 2029THY    HP450710   4.437   2.897   6.544 -1.2071  0.9724  0.5813
 2029THY    CP350711   4.691   2.829   6.604 -0.5648 -0.3125  0.4067
 2029THY    HP550712   4.693   2.882   6.508 -0.3404 -1.0214  0.0080
 2029THY    HP650713   4.714   2.898   6.686  0.0920  1.3559 -1.1198
 2029THY    HP750714   4.776   2.759   6.606 -1.2273 -1.2722 -1.8426
 2029THY    CA350715   4.647   2.695   6.879 -0.1010 -0.1413  0.2850
 2029THY    HA350716   4.712   2.781   6.877 -1.1812  0.6866 -0.8242
 2029THY    CA450717   4.662   2.601   6.982 -0.0175  0.5391 -0.5314
 2029THY    HA450718   4.726   2.610   7.069 -1.6430 -0.0438  0.7788
 2029THY    CA550719   4.591   2.478   6.973 -0.9727 -0.9569  0.0584
 2029THY    CM150720   4.611   2.378   7.084  0.1978 -1.2984 -0.0513
 2029THY    HM150721   4.665   2.422   7.168  1.0691 -1.0129 -0.7509
 2029THY    HM250722   4.513   2.339   7.115 -0.0015 -2.0720 -1.5779
 2029THY    HM350723   4.663   2.293   7.038 -0.3467 -0.3490 -2.5704
 2029THY    CA650724   4.512   2.446   6.866  0.2411  0.0553  0.5659
 2029THY    HA650725   4.468   2.347   6.856  0.8535 -0.4456  2.5019
 2030THY      O50726   1.547   0.236   2.815 -0.2779 -0.0572 -0.7545
 2030THY     HO50727   1.611   0.193   2.875 -0.0182  1.4023  0.0755
 2030THY    CA150728   1.619   0.267   2.704  0.5027  0.3558  1.0174
 2030THY    CA250729   1.615   0.397   2.660  0.4304  0.3516 -0.4333
 2030THY    CP150730   1.517   0.492   2.725 -0.2685  0.5281 -0.2926
 2030THY    HP150731   1.437   0.443   2.783 -0.4486  2.3757  1.1115
 2030THY    CP250732   1.593   0.580   2.819  0.1478 -0.3464  0.1139
 2030THY    HP250733   1.531   0.658   2.863 -2.4314 -1.6079 -1.0777
 2030THY    HP350734   1.616   0.525   2.911  0.1580  0.9931  0.9268
 2030THY    HP450735   1.692   0.612   2.783  0.4425 -1.0549  0.2705
 2030THY    CP350736   1.439   0.564   2.611 -0.5650  0.1676  1.1738
 2030THY    HP550737   1.483   0.659   2.577 -0.3347 -0.1658  0.5201
 2030THY    HP650738   1.412   0.496   2.530  3.4785 -1.2750  0.7759
 2030THY    HP750739   1.340   0.596   2.644 -1.7087 -0.9631 -0.9529
 2030THY    CA350740   1.699   0.432   2.551  0.1327  0.1191  0.6690
 2030THY    HA350741   1.705   0.536   2.520  0.8767 -0.3083 -0.7133
 2030THY    CA450742   1.787   0.343   2.501  0.2423  0.4592  0.3095
 2030THY    HA450743   1.859   0.365   2.422  0.2459 -0.8072 -0.0571
 2030THY    CA550744   1.798   0.214   2.554  0.5171  0.7026  0.4024
 2030THY    CM150745   1.886   0.107   2.496 -0.5567  0.0588  0.0313
 2030THY    HM150746   1.828   0.019   2.468 -1.3148  1.0855 -1.7703
 2030THY    HM250747   1.938   0.131   2.402  0.6949  1.2935  0.9876
 2030THY    HM350748   1.961   0.092   2.575 -1.8732  1.6474  1.6575
 2030THY    CA650749   1.707   0.174   2.655 -0.3828 -0.0677  0.5145
 2030THY    HA650750   1.703   0.073   2.694  1.8986 -0.6696 -0.6609
 2031THY      O50751   7.977   5.757   5.017  0.1765 -0.5328 -0.3378
 2031THY     HO50752   8.005   5.716   5.101 -1.2615  0.9362  0.9402
 2031THY    CA150753   8.012   5.678   4.919  0.0133  0.3606  0.2953
 2031THY    CA250754   7.924   5.621   4.825  0.5961 -0.0666  0.0731
 2031THY    CP150755   7.773   5.626   4.851  0.3736 -0.0844 -0.0654
 2031THY    HP150756   7.765   5.660   4.955 -0.6126  1.5630 -0.6470
 2031THY    CP250757   7.708   5.735   4.759  0.1431 -1.4674  0.0664
 2031THY    HP250758   7.606   5.706   4.735 -0.7168  1.3114 -0.0190
 2031THY    HP350759   7.706   5.828   4.817 -0.2469 -1.4720  0.0590
 2031THY    HP450760   7.763   5.754   4.666 -1.4202 -2.1483 -1.0374
 2031THY    CP350761   7.695   5.494   4.829 -0.0801 -0.8167  0.0726
 2031THY    HP550762   7.647   5.481   4.731 -1.3078 -0.8783  0.6676
 2031THY    HP650763   7.759   5.410   4.858  1.3695 -0.3450 -1.5586
 2031THY    HP750764   7.606   5.498   4.893 -0.0712  2.6132  0.0765
 2031THY    CA350765   7.975   5.553   4.714 -0.0651 -0.1885 -0.6360
 2031THY    HA350766   7.907   5.510   4.641 -0.5212  0.8256 -0.8255
 2031THY    CA450767   8.112   5.532   4.712 -0.4411 -0.4339  0.4803
 2031THY    HA450768   8.145   5.469   4.629 -1.3751 -0.5871  0.2025
 2031THY    CA550769   8.195   5.587   4.806 -0.7804  0.4784 -0.6621
 2031THY    CM150770   8.346   5.573   4.793  0.9673 -0.4411 -0.3365
 2031THY    HM150771   8.390   5.666   4.756  0.5314 -0.0702  0.0824
 2031THY    HM250772   8.399   5.549   4.886 -0.7350  0.0468  0.7909
 2031THY    HM350773   8.359   5.497   4.714  0.0946 -1.8818  0.8525
 2031THY    CA650774   8.151   5.659   4.906  0.1067 -0.3460  0.6719
 2031THY    HA650775   8.225   5.706   4.969  2.8591 -0.7270 -2.0207
 2032THY      O50776   6.019   5.591   2.488  0.6528  0.0022 -0.4915
 2032THY     HO50777   6.102   5.543   2.504 -0.2034 -1.1858  0.5680
 2032THY    CA150778   6.055   5.706   2.422  0.5976  0.3764  0.2849
 2032THY    CA250779   5.966   5.780   2.331 -0.5478  0.2843 -0.8803
 2032THY    CP150780   5.820   5.761   2.329  0.4680  0.0551  0.2299
 2032THY    HP150781   5.782   5.691   2.404  0.7230  0.5245  0.7979
 2032THY    CP250782   5.746   5.896   2.330 -0.4472  1.2358 -0.5826
 2032THY    HP250783   5.650   5.873   2.377  0.6635  0.7703  1.5548
 2032THY    HP350784   5.798   5.970   2.391 -0.7012  1.7373 -0.9670
 2032THY    HP450785   5.734   5.934   2.228 -1.4294 -0.2845 -1.0693
 2032THY    CP350786   5.786   5.698   2.192 -0.1331  0.1044  0.1369
 2032THY    HP550787   5.846   5.740   2.111 -0.6979  0.3945 -0.1369
 2032THY    HP650788   5.816   5.594   2.210  2.2190  0.8156  0.7234
 2032THY    HP750789   5.679   5.698   2.169 -0.4321  0.4615  1.4421
 2032THY    CA350790   6.029   5.874   2.250  0.4753 -0.0160  0.2810
 2032THY    HA350791   5.974   5.935   2.179 -3.3890 -2.2005  1.0861
 2032THY    CA450792   6.163   5.903   2.258  0.6144  0.3254 -0.0027
 2032THY    HA450793   6.212   5.981   2.201  1.1766  0.9908  1.3498
 2032THY    CA550794   6.241   5.831   2.345  0.0131  0.1154  0.5869
 2032THY    CM150795   6.386   5.856   2.352 -0.0834  0.1886  0.2526
 2032THY    HM150796   6.413   5.888   2.453  1.0290  0.3661 -0.0890
 2032THY    HM250797   6.438   5.760   2.341 -2.7388 -1.5521  1.6967
 2032THY    HM350798   6.434   5.911   2.271  0.7494 -1.4804 -0.4509
 2032THY    CA650799   6.194   5.727   2.419  0.3667  0.1069  0.3480
 2032THY    HA650800   6.258   5.661   2.477  0.1175  0.5141  1.0940
 2033THY      O50801   5.243   6.195   0.502 -0.4996 -0.5277  0.4024
 2033THY     HO50802   5.254   6.099   0.492  0.5317 -0.5043  1.1576
 2033THY    CA150803   5.367   6.252   0.484 -0.4688  0.1089  0.1632
 2033THY    CA250804   5.396   6.386   0.525 -0.3574 -0.2616 -0.8310
 2033THY    CP150805   5.288   6.473   0.603  0.2078 -0.3139 -0.7404
 2033THY    HP150806   5.191   6.422   0.605 -1.5266  2.6920 -2.0886
 2033THY    CP250807   5.324   6.491   0.753 -0.1935  0.5219 -0.5865
 2033THY    HP250808   5.252   6.555   0.806 -0.0096  1.6627 -1.6722
 2033THY    HP350809   5.336   6.394   0.803  0.0765  0.2408 -1.1854
 2033THY    HP450810   5.427   6.525   0.769  0.6929 -2.6673  1.3183
 2033THY    CP350811   5.260   6.610   0.553 -0.4685  0.1474 -0.4674
 2033THY    HP550812   5.227   6.605   0.448  1.4104 -3.1672 -1.0321
 2033THY    HP650813   5.177   6.654   0.609 -1.7544 -1.2737 -1.1729
 2033THY    HP750814   5.357   6.660   0.559  0.4256 -1.6560  1.0770
 2033THY    CA350815   5.518   6.441   0.483 -0.0842 -0.6725 -0.2312
 2033THY    HA350816   5.548   6.537   0.522 -0.2576 -1.0833  0.9454
 2033THY    CA450817   5.605   6.373   0.397 -0.1084 -0.3709  0.1663
 2033THY    HA450818   5.688   6.430   0.356  1.4423 -1.1323  2.1009
 2033THY    CA550819   5.577   6.241   0.361  0.8083 -0.1975 -0.1400
 2033THY    CM150820   5.660   6.172   0.252  0.2136  0.5121 -0.2745
 2033THY    HM150821   5.681   6.242   0.170  0.6323  2.2952  1.2783
 2033THY    HM250822   5.751   6.124   0.288 -0.0831 -1.1453 -1.6240
 2033THY    HM350823   5.598   6.090   0.213 -2.4023  2.8050 -1.3015
 2033THY    CA650824   5.461   6.183   0.411 -0.3124 -0.2366  0.2773
 2033THY    HA650825   5.428   6.085   0.378 -0.1191 -0.0359 -0.5461
 2034THY      O50826   9.458   7.478   7.192  0.0666 -0.1607  0.1664
 2034THY     HO50827   9.542   7.499   7.237  0.3625  1.6004 -1.0739
 2034THY    CA150828   9.462   7.349   7.154 -0.4901 -0.2525  0.4962
 2034THY    CA250829   9.348   7.287   7.117 -0.1077  0.0030  0.7672
 2034THY    CP150830   9.218   7.366   7.127  1.2519 -0.4335  0.8133
 2034THY    HP150831   9.214   7.462   7.180  0.6946  0.8369 -1.3945
 2034THY    CP250832   9.176   7.421   6.995 -0.1374 -0.3934 -0.3235
 2034THY    HP250833   9.100   7.499   7.008 -0.0511 -0.2022 -0.9552
 2034THY    HP350834   9.264   7.464   6.945 -0.3210  0.2302 -0.1175
 2034THY    HP450835   9.116   7.345   6.944  1.6233 -2.4453  0.5106
 2034THY    CP350836   9.096   7.288   7.175 -0.3691  0.1824 -0.5799
 2034THY    HP550837   9.132   7.246   7.270 -0.1526  0.9505 -0.3216
 2034THY    HP650838   9.028   7.362   7.217  1.2052 -0.0517  2.6747
 2034THY    HP750839   9.058   7.208   7.110 -1.1470 -2.3282  2.6574
 2034THY    CA350840   9.354   7.154   7.080  0.1000 -0.4590 -0.2678
 2034THY    HA350841   9.266   7.094   7.059 -0.6329  0.2862  0.5518
 2034THY    CA450842   9.475   7.088   7.089 -0.5343 -0.1880  0.5316
 2034THY    HA450843   9.485   6.981   7.074  2.1197  0.1093 -0.3611
 2034THY    CA550844   9.594   7.148   7.128  0.0905 -0.6188  0.6997
 2034THY    CM150845   9.726   7.064   7.123  0.0876  0.8421  0.5597
 2034THY    HM150846   9.801   7.096   7.050  0.7261 -0.8125  0.4653
 2034THY    HM250847   9.777   7.058   7.220  0.2619 -0.6428  0.4031
 2034THY    HM350848   9.703   6.962   7.093 -0.0733  1.3745 -1.2477
 2034THY    CA650849   9.585   7.283   7.164  0.2290 -0.1917 -0.3311
 2034THY    HA650850   9.677   7.339   7.180  0.9401 -1.9930  2.5268
 2035THY      O50851   1.004   7.623   5.070 -0.3571  0.1143  0.4962
 2035THY     HO50852   0.942   7.635   4.996  1.3992  2.2052 -0.8007
 2035THY    CA150853   1.004   7.740   5.134 -0.3448  0.2981 -0.6084
 2035THY    CA250854   1.131   7.784   5.185  0.5359 -0.2012  0.5055
 2035THY    CP150855   1.255   7.692   5.185  0.1983 -0.4174  0.1158
 2035THY    HP150856   1.222   7.587   5.190  2.1942 -1.0864  0.0425
 2035THY    CP250857   1.319   7.688   5.052  0.5146 -0.1503 -0.2958
 2035THY    HP250858   1.246   7.697   4.971  0.7517 -0.2230 -0.5183
 2035THY    HP350859   1.396   7.764   5.038  0.5913  0.0666  1.1178
 2035THY    HP450860   1.357   7.588   5.025  2.5105  0.4655  0.0698
 2035THY    CP350861   1.355   7.714   5.297 -0.1034  0.2728  0.1109
 2035THY    HP550862   1.306   7.707   5.394 -1.5010  0.0672 -0.5853
 2035THY    HP650863   1.438   7.642   5.290 -1.7824 -1.6143 -1.7559
 2035THY    HP750864   1.396   7.816   5.295 -1.7048  0.9597  1.1196
 2035THY    CA350865   1.138   7.923   5.232 -0.1722  0.1457  0.3163
 2035THY    HA350866   1.230   7.962   5.275  0.4271 -2.3531  1.4980
 2035THY    CA450867   1.018   7.997   5.240 -0.6558  0.8761  0.2711
 2035THY    HA450868   1.024   8.087   5.300 -1.9510  0.4082  1.1410
 2035THY    CA550869   0.900   7.946   5.180  0.3325  0.3522 -0.6224
 2035THY    CM150870   0.773   8.027   5.175 -0.0547  0.2255 -0.5631
 2035THY    HM150871   0.793   8.130   5.207 -0.7866 -0.0775  0.9929
 2035THY    HM250872   0.732   8.034   5.074  1.2961  0.1265 -1.1344
 2035THY    HM350873   0.696   7.975   5.235 -0.0331  0.2761 -0.4913
 2035THY    CA650874   0.891   7.819   5.130  0.5383  0.4905  0.0507
 2035THY    HA650875   0.794   7.787   5.093 -0.2970  1.9757  0.8501
 2036THY      O50876   5.542   6.451   4.628  0.0206  0.2322 -0.1380
 2036THY     HO50877   5.540   6.464   4.532 -0.5770  1.8432  0.0633
 2036THY    CA150878   5.539   6.573   4.676  0.8985 -0.0615  0.2055
 2036THY    CA250879   5.603   6.614   4.790 -0.5549  0.2664  0.2823
 2036THY    CP150880   5.698   6.513   4.866  0.1172  0.7687 -0.0662
 2036THY    HP150881   5.695   6.409   4.831  2.2602  0.6840 -0.1020
 2036THY    CP250882   5.845   6.556   4.856 -0.0334  0.3000  0.1728
 2036THY    HP250883   5.872   6.581   4.753  0.8590 -0.3158  0.2480
 2036THY    HP350884   5.862   6.642   4.921  0.9660 -0.7513  1.3501
 2036THY    HP450885   5.909   6.474   4.889  0.2507  1.1398  1.7868
 2036THY    CP350886   5.655   6.499   5.012 -0.9385 -0.0374  0.5070
 2036THY    HP550887   5.548   6.474   5.013 -1.5989  2.5655  0.2753
 2036THY    HP650888   5.704   6.419   5.070 -2.2802 -1.3960 -0.1507
 2036THY    HP750889   5.661   6.595   5.064  1.5872 -0.3304  0.8772
 2036THY    CA350890   5.580   6.751   4.824  1.1946 -0.0129  0.0485
 2036THY    HA350891   5.634   6.782   4.913 -0.3482  1.2353  0.5913
 2036THY    CA450892   5.495   6.839   4.757 -0.2538 -0.4145  0.1657
 2036THY    HA450893   5.476   6.937   4.798  2.5250 -0.7121  2.5372
 2036THY    CA550894   5.431   6.794   4.645 -0.4122  0.5328  0.3283
 2036THY    CM150895   5.339   6.876   4.574 -0.0432 -0.4330  0.2362
 2036THY    HM150896   5.386   6.931   4.491  0.4639  0.0925  0.8637
 2036THY    HM250897   5.249   6.825   4.536  0.4771 -1.1068 -0.1178
 2036THY    HM350898   5.303   6.954   4.642 -0.5794 -0.0030 -0.5195
 2036THY    CA650899   5.456   6.661   4.604  0.5149  1.1716 -0.7388
 2036THY    HA650900   5.399   6.619   4.522 -0.4081  0.8350  0.0598
 2037THY      O50901   1.049   5.731   8.503 -0.0060 -0.0174  0.6048
 2037THY     HO50902   1.115   5.753   8.436 -0.7513  0.3362 -0.0288
 2037THY    CA150903   1.118   5.702   8.616  0.6468 -0.2590 -0.0044
 2037THY    CA250904   1.064   5.724   8.738  0.1121  0.6086  0.3862
 2037THY    CP150905   0.925   5.786   8.763 -0.3965  0.0553  0.0128
 2037THY    HP150906   0.865   5.779   8.671  1.5225 -1.4631 -1.2072
 2037THY    CP250907   0.843   5.713   8.871 -0.1089  0.2200  0.2504
 2037THY    HP250908   0.822   5.613   8.833 -0.2203  0.3506 -0.0320
 2037THY    HP350909   0.896   5.700   8.966 -2.8729 -2.3405  1.6172
 2037THY    HP450910   0.746   5.763   8.886  0.0558  1.6620 -2.8226
 2037THY    CP350911   0.930   5.933   8.807  0.5727  0.5761 -0.1050
 2037THY    HP550912   0.988   5.993   8.736  0.0943  1.5379  0.3039
 2037THY    HP650913   0.831   5.977   8.821  0.6760  0.0876  2.5240
 2037THY    HP750914   0.978   5.933   8.905  1.9545  1.9948 -0.7422
 2037THY    CA350915   1.152   5.707   8.849 -0.3390  0.3584 -0.1381
 2037THY    HA350916   1.124   5.736   8.950  0.0732 -2.0036  0.7034
 2037THY    CA450917   1.284   5.660   8.829  1.2018  1.0777 -0.2953
 2037THY    HA450918   1.346   5.651   8.918 -0.9924 -1.1114  1.1210
 2037THY    CA550919   1.324   5.634   8.699  0.1084  0.0436 -0.0660
 2037THY    CM150920   1.473   5.600   8.672 -0.0661  0.3921  0.1272
 2037THY    HM150921   1.534   5.685   8.639  0.0899  0.1369 -0.2409
 2037THY    HM250922   1.513   5.558   8.765  1.4215 -2.4082 -1.6409
 2037THY    HM350923   1.485   5.522   8.596 -0.2381  0.7796 -0.3026
 2037THY    CA650924   1.248   5.651   8.595  0.0376 -0.3079  0.1776
 2037THY    HA650925   1.281   5.609   8.500 -0.4344  0.9504 -0.5814
 2038THY      O50926   3.005   6.265   7.266 -0.2328  0.1390 -0.1590
 2038THY     HO50927   3.097   6.273   7.237 -0.5807 -2.9025 -2.5947
 2038THY    CA150928   2.966   6.138   7.232 -0.2618  0.0463 -0.0423
 2038THY    CA250929   2.830   6.097   7.228 -0.0038 -0.5268 -0.3087
 2038THY    CP150930   2.718   6.199   7.272 -0.6632  0.2177  0.6009
 2038THY    HP150931   2.769   6.286   7.315 -0.7919  0.7342 -0.2736
 2038THY    CP250932   2.656   6.264   7.144 -0.6157  0.1121 -0.5845
 2038THY    HP250933   2.739   6.303   7.084  0.0972 -0.6420 -0.0978
 2038THY    HP350934   2.598   6.193   7.085 -2.9406  2.1304 -0.9146
 2038THY    HP450935   2.590   6.347   7.172  0.8038  0.8507  0.7488
 2038THY    CP350936   2.619   6.142   7.363  0.2767 -0.1302 -0.1733
 2038THY    HP550937   2.543   6.216   7.391 -1.1326 -1.1628 -1.1148
 2038THY    HP650938   2.563   6.055   7.325 -1.5064  1.0568 -0.3894
 2038THY    HP750939   2.670   6.120   7.458  0.2307  1.1106  0.1512
 2038THY    CA350940   2.795   5.967   7.193 -0.2111  0.1023 -0.3254
 2038THY    HA350941   2.691   5.935   7.184  0.0274 -0.6728 -0.4074
 2038THY    CA450942   2.898   5.875   7.188 -0.4259 -0.6285  0.6045
 2038THY    HA450943   2.865   5.774   7.167 -2.3761  0.2196 -0.6603
 2038THY    CA550944   3.033   5.908   7.193 -0.1937 -0.8630 -0.3974
 2038THY    CM150945   3.140   5.806   7.175  0.8591  0.2754  0.1238
 2038THY    HM150946   3.114   5.721   7.110  0.1720 -0.9329  1.9112
 2038THY    HM250947   3.222   5.857   7.122 -0.2277  0.6455 -1.2704
 2038THY    HM350948   3.170   5.775   7.276 -2.8777  0.1017  1.2967
 2038THY    CA650949   3.066   6.043   7.218 -0.1362  1.3118 -0.2163
 2038THY    HA650950   3.169   6.075   7.209  0.7452 -1.4543 -1.0238
 2039THY      O50951   8.174   1.756   4.526  0.2974 -0.3369  0.5469
 2039THY     HO50952   8.166   1.667   4.486  1.2090  0.2341 -0.9873
 2039THY    CA150953   8.304   1.786   4.509  0.4956 -0.2447  0.3638
 2039THY    CA250954   8.363   1.875   4.597  0.2605 -0.3073 -0.0833
 2039THY    CP150955   8.284   1.948   4.707  0.5116  0.1037  0.6791
 2039THY    HP150956   8.203   1.879   4.735  0.4803  0.5619  1.8089
 2039THY    CP250957   8.367   1.975   4.835  0.6251  0.5085  0.4832
 2039THY    HP250958   8.385   1.877   4.880 -0.6978  1.0532  2.3495
 2039THY    HP350959   8.457   2.034   4.817  1.2209 -0.9279 -1.5683
 2039THY    HP450960   8.298   2.025   4.905 -1.8666 -2.2566  0.1845
 2039THY    CP350961   8.218   2.070   4.655  0.6211 -0.6760 -1.2036
 2039THY    HP550962   8.154   2.119   4.729  0.9467  1.3118 -2.1937
 2039THY    HP650963   8.303   2.132   4.624 -0.7987  1.3953 -1.1390
 2039THY    HP750964   8.164   2.060   4.560  0.7548  0.0062 -1.3559
 2039THY    CA350965   8.498   1.915   4.572  0.8485  0.0869  0.0187
 2039THY    HA350966   8.561   1.971   4.641  1.2706 -0.3492 -0.0085
 2039THY    CA450967   8.567   1.847   4.469 -0.2944 -0.7628  0.0785
 2039THY    HA450968   8.667   1.881   4.445 -1.2763  1.2111 -1.5211
 2039THY    CA550969   8.508   1.751   4.384  0.0778  0.2342  0.2967
 2039THY    CM150970   8.583   1.708   4.268  0.1155  0.4338 -0.2799
 2039THY    HM150971   8.529   1.746   4.181 -1.4787 -0.4697  0.2790
 2039THY    HM250972   8.686   1.744   4.280 -0.0425  0.6690  0.3959
 2039THY    HM350973   8.597   1.599   4.267  2.1233  0.6031  1.5023
 2039THY    CA650974   8.373   1.725   4.405  0.5580 -0.2018 -0.3908
 2039THY    HA650975   8.323   1.667   4.328 -0.3168 -1.5849  1.1598
 2040THY      O50976   2.362   3.783   3.710  0.2740 -0.6852 -0.0434
 2040THY     HO50977   2.295   3.816   3.771  0.7092  0.1290 -0.0018
 2040THY    CA150978   2.462   3.737   3.789 -0.3029 -0.4708 -0.3058
 2040THY    CA250979   2.530   3.622   3.763  0.7737 -0.4305 -1.2957
 2040THY    CP150980   2.506   3.540   3.643  0.3168  0.5329  0.6358
 2040THY    HP150981   2.433   3.588   3.577  0.0773  1.4037  1.5036
 2040THY    CP250982   2.635   3.504   3.579 -0.1600 -0.6677 -0.2688
 2040THY    HP250983   2.617   3.480   3.474 -1.2852  1.6618 -0.6642
 2040THY    HP350984   2.698   3.593   3.570  1.7203 -1.7903  0.9003
 2040THY    HP450985   2.687   3.421   3.629  0.6628  0.5502  0.9867
 2040THY    CP350986   2.444   3.408   3.691  0.5751  0.1284 -0.0567
 2040THY    HP550987   2.503   3.365   3.773  0.2649  1.8904  1.1483
 2040THY    HP650988   2.346   3.428   3.737  0.3209  0.2199 -0.6210
 2040THY    HP750989   2.431   3.334   3.611  0.4527  0.2215 -0.1229
 2040THY    CA350990   2.637   3.584   3.854 -0.0478 -0.4537 -0.0515
 2040THY    HA350991   2.697   3.497   3.827  3.2785  1.2985  1.1343
 2040THY    CA450992   2.671   3.671   3.963  0.4477 -0.2096 -0.0745
 2040THY    HA450993   2.740   3.640   4.041 -1.8818 -0.8382  1.8696
 2040THY    CA550994   2.586   3.777   3.994  0.2108  0.0176 -0.0351
 2040THY    CM150995   2.611   3.866   4.117 -0.3183  0.1241 -0.2258
 2040THY    HM150996   2.595   3.974   4.106 -0.5941  0.0436 -0.6148
 2040THY    HM250997   2.525   3.838   4.179 -0.2890 -0.2234 -0.3419
 2040THY    HM350998   2.703   3.841   4.173 -0.9480  1.0196  1.2598
 2040THY    CA650999   2.482   3.813   3.909 -0.5199 -0.1676  0.8580
 2040THY    HA651000   2.415   3.896   3.930  1.1526  0.7319  2.9718
 2041THY      O51001   8.340   5.994   0.741 -0.0569  0.2953 -0.3153
 2041THY     HO51002   8.269   5.990   0.807  2.0854 -1.1407  2.1167
 2041THY    CA151003   8.336   5.893   0.655  0.4809  0.9838 -0.1514
 2041THY    CA251004   8.421   5.892   0.539  1.0016  0.6129  0.0138
 2041THY    CP151005   8.520   6.008   0.509  0.3800 -0.2676 -0.2522
 2041THY    HP151006   8.476   6.097   0.557  0.1597 -1.2556  1.4918
 2041THY    CP251007   8.651   5.977   0.577  0.3914  0.2211  0.2406
 2041THY    HP251008   8.637   5.931   0.675 -1.4319 -0.4645 -0.3008
 2041THY    HP351009   8.700   5.908   0.507  0.4300 -0.1269  0.6069
 2041THY    HP451010   8.717   6.065   0.577  1.3935 -0.5229  0.1973
 2041THY    CP351011   8.540   6.044   0.364 -0.3364 -0.2547  0.0784
 2041THY    HP551012   8.441   6.054   0.318 -0.1452  2.1602  0.0408
 2041THY    HP651013   8.596   6.138   0.353  0.5279 -0.7672  0.0332
 2041THY    HP751014   8.582   5.966   0.300 -0.9923 -0.7209  0.2099
 2041THY    CA351015   8.403   5.782   0.451  0.4640  0.7100  0.2858
 2041THY    HA351016   8.462   5.774   0.361  1.1408 -1.4405  0.8484
 2041THY    CA451017   8.316   5.673   0.483  0.0341  0.3360 -0.1713
 2041THY    HA451018   8.289   5.596   0.411 -2.6503  1.4628 -0.4793
 2041THY    CA551019   8.245   5.674   0.606  0.2565  0.3118 -0.4157
 2041THY    CM151020   8.153   5.561   0.638  0.0206  0.0966 -0.0464
 2041THY    HM151021   8.153   5.551   0.748  1.0681  4.7134  0.5578
 2041THY    HM251022   8.049   5.591   0.621 -0.3459  0.6756  2.6822
 2041THY    HM351023   8.179   5.469   0.584 -0.3487  0.7202 -1.3266
 2041THY    CA651024   8.251   5.780   0.694 -0.0000 -0.1995  0.9665
 2041THY    HA651025   8.182   5.779   0.778  1.3008 -1.6877  2.0806
 2042THY      O51026   2.174   0.657   1.471 -0.1559 -0.1144  0.4621
 2042THY     HO51027   2.210   0.637   1.382 -0.1907 -2.5745  0.9252
 2042THY    CA151028   2.186   0.550   1.552  0.2378  0.6770 -0.0116
 2042THY    CA251029   2.123   0.544   1.676  1.0836 -0.2336  0.9680
 2042THY    CP151030   2.034   0.669   1.719  0.0541 -0.4149  0.0854
 2042THY    HP151031   1.982   0.708   1.630 -0.4645 -0.7859  0.2207
 2042THY    CP251032   1.917   0.643   1.822 -0.8258 -0.6136 -0.2145
 2042THY    HP251033   1.957   0.615   1.920 -0.4235 -0.5366 -0.3560
 2042THY    HP351034   1.871   0.741   1.837 -3.1549 -1.6809 -0.0455
 2042THY    HP451035   1.839   0.570   1.798 -0.8778 -0.8093  0.5165
 2042THY    CP351036   2.124   0.775   1.781 -0.1967 -0.3223 -0.2333
 2042THY    HP551037   2.203   0.817   1.717  1.2458  0.7873  2.1066
 2042THY    HP651038   2.067   0.861   1.817  0.1662  0.1563 -0.7744
 2042THY    HP751039   2.181   0.738   1.867 -1.3779  0.7439  1.0589
 2042THY    CA351040   2.135   0.429   1.754  0.2838 -0.0347 -0.8859
 2042THY    HA351041   2.086   0.425   1.850  0.5921 -0.0131 -0.7273
 2042THY    CA451042   2.193   0.320   1.701  0.1370  0.2370  0.3097
 2042THY    HA451043   2.183   0.227   1.755  3.2922 -0.1467  0.4223
 2042THY    CA551044   2.255   0.317   1.577 -0.1856 -0.2266  0.3652
 2042THY    CM151045   2.310   0.191   1.518  0.4863 -0.1467  0.6118
 2042THY    HM151046   2.407   0.170   1.564  0.5568  1.7523  1.4435
 2042THY    HM251047   2.240   0.109   1.540  1.0416 -0.2374  2.1990
 2042THY    HM351048   2.320   0.213   1.411 -1.0577  0.5389  0.5795
 2042THY    CA651049   2.256   0.436   1.502  0.0722 -1.0762 -0.6639
 2042THY    HA651050   2.320   0.446   1.415  2.0249 -0.1882  0.7946
 2043THY      O51051   5.292   9.817   8.315 -0.0190  0.1205 -0.4460
 2043THY     HO51052   5.322   9.830   8.223  1.0252  0.1475 -0.1157
 2043THY    CA151053   5.162   9.867   8.325 -0.0537  0.7523  0.4073
 2043THY    CA251054   5.063   9.804   8.412 -0.7247 -0.7764  0.7714
 2043THY    CP151055   5.100   9.693   8.496  0.0478  0.4385  0.0836
 2043THY    HP151056   5.205   9.664   8.485 -0.3142 -0.8157 -0.2507
 2043THY    CP251057   5.090   9.737   8.645 -1.1336  0.1156  0.1156
 2043THY    HP251058   4.995   9.771   8.687 -0.4489 -0.5996  2.3720
 2043THY    HP351059   5.131   9.656   8.707  2.7019  0.8972 -1.1574
 2043THY    HP451060   5.168   9.812   8.657 -1.0723  0.1421 -0.4152
 2043THY    CP351061   5.032   9.565   8.454 -0.8870  0.3926  0.1309
 2043THY    HP551062   5.030   9.505   8.545  0.4511  1.2473  0.7540
 2043THY    HP651063   4.928   9.586   8.423 -0.5280  1.2349 -0.5574
 2043THY    HP751064   5.081   9.510   8.374  1.4860 -0.6097  2.1759
 2043THY    CA351065   4.930   9.852   8.410  0.4376 -0.3062 -0.2872
 2043THY    HA351066   4.862   9.819   8.488 -1.6979 -0.0173 -1.9327
 2043THY    CA451067   4.884   9.941   8.307 -0.0727  0.7683 -0.1938
 2043THY    HA451068   4.778   9.965   8.295  0.1681  1.2297 -1.5072
 2043THY    CA551069   4.979   9.988   8.212 -0.1037 -0.3457 -0.0645
 2043THY    CM151070   4.930  10.076   8.103 -0.0139  0.1970  0.2114
 2043THY    HM151071   4.999  10.159   8.085  0.4242 -0.3234 -0.5818
 2043THY    HM251072   4.929  10.012   8.014  0.1380 -1.5659  1.4190
 2043THY    HM351073   4.828  10.113   8.117  1.7870  6.5596 -0.1408
 2043THY    CA651074   5.119   9.955   8.229 -0.2285  0.0068  0.0080
 2043THY    HA651075   5.183   9.998   8.152 -3.0142  0.3653 -2.2597
 2044THY      O51076   6.865   9.272   4.297  0.6106  0.3784  0.7179
 2044THY     HO51077   6.907   9.185   4.303  1.1899  0.6373  0.5371
 2044THY    CA151078   6.955   9.344   4.226  0.2140  0.3449  0.1915
 2044THY    CA251079   6.958   9.488   4.232 -0.4480 -0.5869  0.5849
 2044THY    CP151080   6.859   9.568   4.325  0.6631 -0.4057  1.0689
 2044THY    HP151081   6.829   9.492   4.398 -2.3171 -1.2958 -0.9022
 2044THY    CP251082   6.937   9.683   4.392  0.1318  0.5681 -0.2787
 2044THY    HP251083   6.878   9.732   4.470  1.5921  1.9841 -0.0007
 2044THY    HP351084   7.028   9.652   4.443  1.0537  3.6036  0.1114
 2044THY    HP451085   6.967   9.760   4.320 -0.4013 -0.1654 -1.3139
 2044THY    CP351086   6.743   9.623   4.234  0.1840 -0.3132  0.3487
 2044THY    HP551087   6.660   9.649   4.299  0.0641  0.7514 -0.2000
 2044THY    HP651088   6.759   9.696   4.154 -0.5425 -0.4702  0.0491
 2044THY    HP751089   6.711   9.530   4.185  1.2796 -0.0273 -0.9897
 2044THY    CA351090   7.063   9.552   4.158  0.3893 -0.7127  0.4603
 2044THY    HA351091   7.064   9.660   4.148 -1.5798 -0.6379  0.6209
 2044THY    CA451092   7.153   9.471   4.084 -0.0926 -0.3415 -0.4800
 2044THY    HA451093   7.235   9.522   4.035 -0.6522 -0.4320 -1.5359
 2044THY    CA551094   7.142   9.337   4.080 -0.1472 -0.0385 -0.0375
 2044THY    CM151095   7.236   9.263   3.991 -0.2017 -0.0324  0.0571
 2044THY    HM151096   7.336   9.306   4.003  0.5285 -1.4081 -0.8312
 2044THY    HM251097   7.238   9.157   4.020 -0.7876 -0.3421 -0.9921
 2044THY    HM351098   7.208   9.264   3.885 -0.9774  1.6484  0.2502
 2044THY    CA651099   7.045   9.272   4.154  0.3625  0.1898 -0.2464
 2044THY    HA651100   7.040   9.164   4.149 -2.4344 -0.0221  3.5712
 2045THY      O51101   3.994   5.851   9.155 -0.5444  0.0843 -0.2329
 2045THY     HO51102   4.018   5.817   9.067 -0.6811 -0.3000 -0.1259
 2045THY    CA151103   4.040   5.767   9.256  0.1818 -0.6383 -0.3944
 2045THY    CA251104   3.971   5.652   9.293 -0.5507 -0.2217 -0.5707
 2045THY    CP151105   3.846   5.609   9.215  0.1918  0.0703  0.2474
 2045THY    HP151106   3.848   5.634   9.108 -1.9860 -0.2860  0.0643
 2045THY    CP251107   3.804   5.461   9.224 -0.1368  0.2550 -0.3569
 2045THY    HP251108   3.709   5.453   9.169 -1.5169  0.0470  1.9307
 2045THY    HP351109   3.872   5.389   9.176  2.3649  0.8794  2.0622
 2045THY    HP451110   3.797   5.418   9.325 -0.9370 -1.2746 -1.0165
 2045THY    CP351111   3.723   5.688   9.269  0.5603  0.9981 -0.0229
 2045THY    HP551112   3.630   5.657   9.221  1.1151  2.7757 -2.4250
 2045THY    HP651113   3.720   5.679   9.378 -1.4365 -0.8780 -0.1785
 2045THY    HP751114   3.731   5.795   9.246 -1.5624  1.3714  0.7934
 2045THY    CA351115   4.018   5.575   9.400  0.5313  0.6217  0.6070
 2045THY    HA351116   3.959   5.490   9.433 -0.6740  1.5311  0.9071
 2045THY    CA451117   4.126   5.620   9.474 -1.2482 -0.4648 -0.0864
 2045THY    HA451118   4.175   5.552   9.543  2.1013  0.0312 -1.7394
 2045THY    CA551119   4.188   5.738   9.440  0.1195 -0.1194  0.5405
 2045THY    CM151120   4.301   5.794   9.520  0.1969 -0.3220  0.3463
 2045THY    HM151121   4.348   5.717   9.581 -1.5569 -1.0669  0.8120
 2045THY    HM251122   4.373   5.848   9.458  3.5011 -1.2707  3.0439
 2045THY    HM351123   4.275   5.874   9.590 -1.7191  0.1845 -0.8689
 2045THY    CA651124   4.147   5.817   9.327 -0.0498  0.8427  0.2409
 2045THY    HA651125   4.205   5.905   9.301  0.1517 -0.2011 -3.4919
 2046THY      O51126   2.229   9.584   3.160 -1.0043  0.6519  0.0138
 2046THY     HO51127   2.304   9.527   3.138 -0.3840  0.9584  1.2040
 2046THY    CA151128   2.228   9.662   3.061  0.5755 -0.6911  0.7480
 2046THY    CA251129   2.340   9.701   2.990  0.1156 -0.9767 -0.0258
 2046THY    CP151130   2.484   9.666   3.036  0.0273  0.1617  0.6500
 2046THY    HP151131   2.468   9.577   3.096 -0.0798  0.3437  0.8930
 2046THY    CP251132   2.565   9.612   2.914 -0.1762 -0.3098 -0.7036
 2046THY    HP251133   2.649   9.551   2.948 -0.1678 -0.4080 -0.8957
 2046THY    HP351134   2.500   9.557   2.844  0.6464 -2.1660 -0.0807
 2046THY    HP451135   2.610   9.696   2.860  1.6709 -0.7099  0.1598
 2046THY    CP351136   2.567   9.774   3.111  0.4031  0.7271 -0.2195
 2046THY    HP551137   2.668   9.744   3.141  0.9165  0.5543 -1.9746
 2046THY    HP651138   2.580   9.868   3.056 -2.2662  1.3652  0.1340
 2046THY    HP751139   2.502   9.805   3.193 -0.4881  1.2959 -1.1111
 2046THY    CA351140   2.323   9.785   2.876 -0.0908  0.3904 -0.0291
 2046THY    HA351141   2.405   9.822   2.816  0.0156  1.0231  0.5044
 2046THY    CA451142   2.192   9.837   2.843 -1.3756  0.7958  0.0154
 2046THY    HA451143   2.176   9.895   2.752  1.1226  0.7370 -0.5433
 2046THY    CA551144   2.084   9.796   2.924 -0.5533  0.0232 -0.2373
 2046THY    CM151145   1.940   9.842   2.897 -0.1641  0.6313  0.1333
 2046THY    HM151146   1.860   9.776   2.932 -0.3294  1.1574  0.7744
 2046THY    HM251147   1.925   9.944   2.933 -2.6037  1.9036 -3.8393
 2046THY    HM351148   1.943   9.848   2.788  1.6362  0.8563  0.1597
 2046THY    CA651149   2.106   9.715   3.028  0.5127 -0.1078  1.1420
 2046THY    HA651150   2.025   9.690   3.096 -0.7540  0.3830 -0.1139
 2047THY      O51151   1.906   8.205   7.596  0.4159  0.5862 -0.1973
 2047THY     HO51152   1.890   8.289   7.643  1.1242  1.4795 -1.5132
 2047THY    CA151153   1.933   8.230   7.465 -0.8477 -0.0141 -0.7511
 2047THY    CA251154   1.883   8.157   7.359 -0.4058 -0.0960  0.0979
 2047THY    CP151155   1.801   8.036   7.374  0.0662 -0.2834 -0.0752
 2047THY    HP151156   1.759   8.045   7.475  2.0033 -0.4299  0.7767
 2047THY    CP251157   1.671   8.032   7.280 -0.4030 -0.1062  0.4692
 2047THY    HP251158   1.691   8.010   7.174 -0.9735  1.1167  0.0871
 2047THY    HP351159   1.597   7.958   7.314  0.8010 -1.0862  1.0090
 2047THY    HP451160   1.620   8.130   7.275 -0.3459 -0.0483  0.9495
 2047THY    CP351161   1.882   7.907   7.349  1.2842 -0.1564 -0.2390
 2047THY    HP551162   1.935   7.920   7.254  0.4004  0.8892 -0.5968
 2047THY    HP651163   1.958   7.869   7.419  2.6634 -0.8400 -2.0261
 2047THY    HP751164   1.809   7.826   7.345  0.7567  0.3066 -0.0667
 2047THY    CA351165   1.927   8.201   7.231  0.6750 -0.6229 -0.6906
 2047THY    HA351166   1.904   8.142   7.144  2.6175 -0.4337 -1.3867
 2047THY    CA451167   2.013   8.307   7.217 -0.2723 -0.6736  0.1600
 2047THY    HA451168   2.055   8.331   7.119  0.3950  1.4368  0.8930
 2047THY    CA551169   2.041   8.388   7.322 -0.1354 -0.2919  0.2408
 2047THY    CM151170   2.122   8.511   7.297 -0.1939 -0.6331  0.4504
 2047THY    HM151171   2.209   8.470   7.244  0.8649  0.2050  1.4839
 2047THY    HM251172   2.068   8.578   7.228 -0.2424 -0.2793  0.8270
 2047THY    HM351173   2.153   8.568   7.385  0.0144 -1.4495  0.9121
 2047THY    CA651174   2.000   8.353   7.447  1.0341 -0.0575 -0.7391
 2047THY    HA651175   2.017   8.420   7.530 -0.4138 -0.4341 -0.1162
 2048THY      O51176   7.677   8.298   9.585  0.4270 -0.0317 -0.4438
 2048THY     HO51177   7.718   8.246   9.514  0.1177  0.9564 -1.3677
 2048THY    CA151178   7.665   8.220   9.697 -0.1959  0.8105  0.4027
 2048THY    CA251179   7.628   8.287   9.813 -0.3150 -0.1777 -0.2812
 2048THY    CP151180   7.605   8.434   9.822  0.7746  0.2122 -0.4897
 2048THY    HP151181   7.606   8.485   9.725 -2.5923  1.9629  0.2636
 2048THY    CP251182   7.451   8.466   9.858 -0.5665 -0.3042  0.4027
 2048THY    HP251183   7.372   8.419   9.797 -1.0363 -0.5482  1.1738
 2048THY    HP351184   7.431   8.417   9.955 -1.7423 -0.9169 -0.1269
 2048THY    HP451185   7.442   8.575   9.853  2.0741 -0.1039 -2.7895
 2048THY    CP351186   7.708   8.493   9.909 -0.1484  0.5329 -1.1670
 2048THY    HP551187   7.668   8.496  10.012 -0.8966 -0.6826 -1.4022
 2048THY    HP651188   7.800   8.432   9.908 -0.7568 -0.4224 -3.2336
 2048THY    HP751189   7.732   8.597   9.885 -2.5555  1.4821  0.1365
 2048THY    CA351190   7.626   8.209   9.927  0.0354  0.5305 -0.6905
 2048THY    HA351191   7.601   8.249  10.024 -0.6859 -1.3884 -0.0430
 2048THY    CA451192   7.654   8.068   9.925 -0.3046 -0.5647  0.2975
 2048THY    HA451193   7.656   8.015  10.019  0.2564  0.1076  0.6702
 2048THY    CA551194   7.696   8.006   9.804 -0.2273 -0.4112 -0.4216
 2048THY    CM151195   7.747   7.862   9.801 -0.5819 -0.2932 -0.0461
 2048THY    HM151196   7.802   7.832   9.710  0.0403 -0.9906  0.5417
 2048THY    HM251197   7.826   7.862   9.878  0.3548  0.0714 -0.9795
 2048THY    HM351198   7.677   7.780   9.821  0.6332 -1.6380 -1.1030
 2048THY    CA651199   7.697   8.083   9.689 -0.7873 -0.1388  0.2467
 2048THY    HA651200   7.746   8.040   9.601  0.6185  0.4073  0.7450
 2049THY      O51201   1.052   1.618   0.088  0.2836  0.1071 -0.1361
 2049THY     HO51202   0.966   1.609   0.131  0.4302 -1.3159 -0.1081
 2049THY    CA151203   1.031   1.663  -0.036  0.5239  0.3763  0.0482
 2049THY    CA251204   1.119   1.622  -0.142  0.1150 -0.8067  0.2431
 2049THY    CP151205   1.243   1.550  -0.112 -0.0554 -0.0681  0.8866
 2049THY    HP151206   1.250   1.502  -0.014 -1.5578 -1.1857  0.4726
 2049THY    CP251207   1.245   1.426  -0.204 -0.2679 -0.2819 -0.2775
 2049THY    HP251208   1.289   1.446  -0.302 -2.4924  0.3499 -1.2154
 2049THY    HP351209   1.314   1.355  -0.156  1.9163  1.8301 -0.1519
 2049THY    HP451210   1.144   1.386  -0.221 -0.8808  1.4382 -0.8164
 2049THY    CP351211   1.366   1.639  -0.135  0.2097 -0.1409 -0.3433
 2049THY    HP551212   1.448   1.577  -0.097  0.5217  0.6356  0.2688
 2049THY    HP651213   1.383   1.670  -0.239  1.5069  1.7465  0.3693
 2049THY    HP751214   1.359   1.734  -0.080  1.7849  1.8870 -3.3371
 2049THY    CA351215   1.081   1.660  -0.273  0.0762  0.1501 -0.7120
 2049THY    HA351216   1.141   1.637  -0.360  1.8695  2.6998 -0.2809
 2049THY    CA451217   0.960   1.742  -0.298 -0.4206  0.5026 -0.6824
 2049THY    HA451218   0.934   1.772  -0.399 -3.7239  2.4167  0.5822
 2049THY    CA551219   0.874   1.768  -0.189  0.1055 -0.0877 -0.3533
 2049THY    CM151220   0.742   1.844  -0.220  0.1334  0.3700 -0.1286
 2049THY    HM151221   0.660   1.779  -0.187  0.5585 -0.3205 -0.4005
 2049THY    HM251222   0.723   1.934  -0.162 -0.9421 -1.4325  2.4910
 2049THY    HM351223   0.737   1.864  -0.328 -0.2033  1.2764  0.0517
 2049THY    CA651224   0.916   1.737  -0.059  1.1911 -0.6575 -0.1312
 2049THY    HA651225   0.852   1.759   0.026  1.3698  0.8290 -0.3578
 2050THY      O51226   1.412   1.598   5.190  0.7467 -0.1824 -0.7228
 2050THY     HO51227   1.399   1.560   5.279 -1.1560  0.4768 -0.6810
 2050THY    CA151228   1.285   1.593   5.126 -0.5287 -0.2968  0.7410
 2050THY    CA251229   1.252   1.684   5.020  0.6845 -0.4765 -0.2873
 2050THY    CP151230   1.332   1.810   4.979  0.0308  0.2133 -0.2160
 2050THY    HP151231   1.411   1.836   5.050  0.0093 -0.1765 -0.0437
 2050THY    CP251232   1.398   1.779   4.836  0.0452 -0.0184 -0.5853
 2050THY    HP251233   1.330   1.734   4.763 -2.7137  0.9156  1.2315
 2050THY    HP351234   1.447   1.865   4.789  1.0751  0.2390  0.8765
 2050THY    HP451235   1.468   1.698   4.857 -0.3001 -0.4244 -0.9828
 2050THY    CP351236   1.244   1.940   4.965 -0.3062 -0.0595 -0.3587
 2050THY    HP551237   1.177   1.930   4.879  1.2043 -2.7370 -1.3448
 2050THY    HP651238   1.192   1.951   5.061 -0.9706  0.3545 -0.7598
 2050THY    HP751239   1.310   2.028   4.956  0.8205 -0.6383  1.6077
 2050THY    CA351240   1.131   1.659   4.945  0.0202 -0.4970 -0.7905
 2050THY    HA351241   1.104   1.721   4.860  1.1989  0.1576 -0.7085
 2050THY    CA451242   1.043   1.553   4.988 -0.1195  0.2102 -0.0118
 2050THY    HA451243   0.948   1.544   4.937  0.7415  1.2031 -1.9262
 2050THY    CA551244   1.078   1.477   5.095  0.4228  0.7395 -0.4618
 2050THY    CM151245   0.989   1.373   5.153  0.3425  0.2649  0.2143
 2050THY    HM151246   1.043   1.291   5.201  0.2887  0.9174  1.4304
 2050THY    HM251247   0.937   1.431   5.231  0.1226  0.7441 -0.2785
 2050THY    HM351248   0.922   1.331   5.077 -1.1388 -0.0748  1.6561
 2050THY    CA651249   1.202   1.488   5.157 -0.0705 -0.0682 -0.4752
 2050THY    HA651250   1.223   1.424   5.242 -1.8825  1.8085  1.4955
 2051THY      O51251   4.148   5.224   4.882  0.0873 -0.3645  0.6210
 2051THY     HO51252   4.160   5.195   4.974 -1.9657  2.1700  1.8211
 2051THY    CA151253   4.212   5.125   4.811  0.2318 -0.1262 -0.0161
 2051THY    CA251254   4.172   5.098   4.676 -1.0835  0.3500 -0.1235
 2051THY    CP151255   4.080   5.183   4.588  0.4831  0.0544 -0.0125
 2051THY    HP151256   4.002   5.231   4.648  0.6993 -0.0682  0.3669
 2051THY    CP251257   4.162   5.286   4.506 -0.6796 -0.3959  0.6787
 2051THY    HP251258   4.233   5.341   4.569 -1.2027  0.2268  0.7344
 2051THY    HP351259   4.223   5.230   4.434 -1.1608  0.8085 -0.7112
 2051THY    HP451260   4.093   5.355   4.457  0.0118 -0.3321 -0.2321
 2051THY    CP351261   3.986   5.106   4.487 -0.2198 -0.2247  0.0937
 2051THY    HP551262   4.042   5.029   4.433 -0.1518 -0.6628  0.7742
 2051THY    HP651263   3.913   5.050   4.546  0.2240 -2.4972 -1.3531
 2051THY    HP751264   3.938   5.165   4.408  1.4474 -1.8906 -2.3084
 2051THY    CA351265   4.229   4.981   4.608 -0.1300  0.7039 -0.3907
 2051THY    HA351266   4.214   4.964   4.502  0.2607 -0.5282 -0.2589
 2051THY    CA451267   4.309   4.893   4.682  0.4102  0.3020 -0.2624
 2051THY    HA451268   4.358   4.811   4.631  2.0294  1.1917 -0.2157
 2051THY    CA551269   4.340   4.925   4.817  0.1547 -0.4331  0.2960
 2051THY    CM151270   4.427   4.836   4.902 -0.2265  0.6907 -0.4539
 2051THY    HM151271   4.488   4.780   4.831  0.7247  1.1676 -0.0314
 2051THY    HM251272   4.500   4.900   4.953 -1.1149  1.3636 -0.0078
 2051THY    HM351273   4.364   4.778   4.971  2.1765  0.0082  1.3283
 2051THY    CA651274   4.290   5.045   4.880 -0.0619  0.0037 -0.0619
 2051THY    HA651275   4.327   5.067   4.980 -0.5102  0.1325  0.0779
 2052THY      O51276   3.237   2.494   6.389 -0.3848  0.1066 -0.0683
 2052THY     HO51277   3.198   2.503   6.478  1.5877  2.9701  0.6592
 2052THY    CA151278   3.256   2.626   6.354  0.9371  0.7954 -0.0817
 2052THY    CA251279   3.146   2.702   6.290 -0.2324  0.3343  0.1013
 2052THY    CP151280   3.009   2.645   6.296 -0.1581 -1.0584 -0.5276
 2052THY    HP151281   2.996   2.568   6.373 -2.4557  1.1599  1.4678
 2052THY    CP251282   2.901   2.750   6.313  0.1953 -1.0605  0.1386
 2052THY    HP251283   2.886   2.798   6.215 -1.7513 -1.1385  0.3582
 2052THY    HP351284   2.805   2.716   6.355 -2.2335  2.5872 -1.8872
 2052THY    HP451285   2.939   2.823   6.385 -0.7893  1.7617 -1.9825
 2052THY    CP351286   2.978   2.571   6.155  0.7356 -0.7557  0.0103
 2052THY    HP551287   3.042   2.482   6.150  2.6239  0.5630 -0.1283
 2052THY    HP651288   2.871   2.549   6.165  0.8167 -1.3683 -0.4113
 2052THY    HP751289   3.007   2.639   6.074  1.8322  0.8510  1.6765
 2052THY    CA351290   3.171   2.824   6.237  0.3500  0.0433 -0.0894
 2052THY    HA351291   3.094   2.890   6.198  1.4829  0.9071 -0.9364
 2052THY    CA451292   3.300   2.873   6.250  0.1678 -0.1568 -0.5185
 2052THY    HA451293   3.317   2.976   6.219  0.2663  0.5397  1.6256
 2052THY    CA551294   3.405   2.805   6.311  0.3393  0.3287 -0.8044
 2052THY    CM151295   3.543   2.851   6.321 -0.0410  0.0160 -0.4180
 2052THY    HM151296   3.558   2.954   6.288 -1.3695  0.5373  0.5390
 2052THY    HM251297   3.579   2.856   6.424 -0.3187 -0.3878 -0.2984
 2052THY    HM351298   3.605   2.788   6.255 -1.7758 -1.3705 -0.8038
 2052THY    CA651299   3.382   2.675   6.351 -0.1819  0.0637  0.1530
 2052THY    HA651300   3.466   2.622   6.395 -0.5815  0.7592  1.8462
 2053THY      O51301   3.127   8.399   0.702  0.2385 -0.2661  0.3015
 2053THY     HO51302   3.032   8.377   0.701  0.2439 -0.6778 -3.3086
 2053THY    CA151303   3.165   8.379   0.828  0.3191  0.5935  0.0630
 2053THY    CA251304   3.298   8.367   0.860  0.4326  1.1420 -0.2132
 2053THY    CP151305   3.402   8.372   0.757 -0.9558 -0.5994 -0.5662
 2053THY    HP151306   3.377   8.447   0.681 -0.0007 -0.5811 -0.8741
 2053THY    CP251307   3.533   8.433   0.807  0.6531 -0.4972  0.6132
 2053THY    HP251308   3.498   8.533   0.834 -1.5184 -0.4219 -2.0243
 2053THY    HP351309   3.572   8.371   0.889 -0.3733  1.0707  2.3528
 2053THY    HP451310   3.602   8.447   0.723 -1.2201  1.5439 -0.6755
 2053THY    CP351311   3.423   8.240   0.694  0.1876 -0.1427  0.5014
 2053THY    HP551312   3.458   8.165   0.765  0.4989 -0.6974 -0.2190
 2053THY    HP651313   3.324   8.202   0.666 -0.0310 -0.4295  1.6182
 2053THY    HP751314   3.488   8.240   0.605 -1.1843 -0.3689 -0.5444
 2053THY    CA351315   3.329   8.345   0.996 -0.5221 -0.6882  0.4139
 2053THY    HA351316   3.432   8.329   1.029  0.2632 -2.0380 -2.4356
 2053THY    CA451317   3.230   8.352   1.089  0.0812 -0.5517 -0.2613
 2053THY    HA451318   3.264   8.356   1.192 -0.6498  1.4038 -0.0344
 2053THY    CA551319   3.090   8.368   1.054 -0.2210  0.3205 -0.7353
 2053THY    CM151320   2.980   8.379   1.160  0.1589  0.8470 -0.3837
 2053THY    HM151321   3.022   8.382   1.261  0.2979  0.7971 -0.4401
 2053THY    HM251322   2.916   8.467   1.152 -1.0691 -0.0316 -0.4491
 2053THY    HM351323   2.920   8.288   1.149 -1.4723  1.9170 -0.6082
 2053THY    CA651324   3.063   8.372   0.920  0.3397 -0.0020  0.4316
 2053THY    HA651325   2.959   8.391   0.895  0.3690 -0.1104  0.2241
 2054THY      O51326   2.720   4.763   3.684  0.3231 -0.1474  0.1857
 2054THY     HO51327   2.746   4.848   3.724 -2.8194 -0.1861  2.7593
 2054THY    CA151328   2.766   4.755   3.563 -0.4560 -0.3627 -0.3783
 2054THY    CA251329   2.772   4.633   3.493  0.4802  0.3902 -0.4466
 2054THY    CP151330   2.730   4.505   3.560  0.1678 -0.0225  0.4646
 2054THY    HP151331   2.671   4.513   3.652  1.1719 -2.6283  1.4573
 2054THY    CP251332   2.647   4.422   3.463  0.3388 -0.9885 -0.1879
 2054THY    HP251333   2.587   4.496   3.408  2.3279  1.6182  0.9041
 2054THY    HP351334   2.705   4.363   3.391 -2.7286 -2.3097 -1.7808
 2054THY    HP451335   2.582   4.357   3.523  0.7746 -1.3310 -0.0821
 2054THY    CP351336   2.847   4.422   3.613 -0.4462 -0.3671  0.4923
 2054THY    HP551337   2.907   4.363   3.543 -0.6447 -1.4611  1.2193
 2054THY    HP651338   2.915   4.481   3.676  0.0214 -1.5183  1.1039
 2054THY    HP751339   2.805   4.360   3.694 -0.1804  0.6430  1.4244
 2054THY    CA351340   2.825   4.641   3.362  0.5587  0.0067  0.2259
 2054THY    HA351341   2.846   4.549   3.308  0.7211  1.1825 -1.8270
 2054THY    CA451342   2.867   4.763   3.315  0.5190 -0.4812  0.4473
 2054THY    HA451343   2.907   4.771   3.214 -0.6413 -0.5740 -0.0316
 2054THY    CA551344   2.850   4.884   3.381 -0.2908 -0.0929  0.7892
 2054THY    CM151345   2.881   5.016   3.312 -0.3001 -0.2674  0.3821
 2054THY    HM151346   2.989   5.035   3.310 -0.4772  0.8842  0.7979
 2054THY    HM251347   2.843   5.025   3.209 -2.6150  4.2555  1.3476
 2054THY    HM351348   2.841   5.102   3.368 -1.8399  1.3732 -2.9241
 2054THY    CA651349   2.793   4.878   3.507  0.0559 -0.3187  0.4420
 2054THY    HA651350   2.770   4.971   3.558 -1.5464 -0.3716 -0.1187
 2055THY      O51351   7.809   3.508   4.444 -0.5629 -0.5159  0.1396
 2055THY     HO51352   7.759   3.526   4.526 -0.9890  1.7478 -0.5733
 2055THY    CA151353   7.926   3.467   4.482  0.0545  0.2774  0.1850
 2055THY    CA251354   8.027   3.426   4.383 -0.2710  0.8695  0.0711
 2055THY    CP151355   8.001   3.425   4.235 -0.5210 -0.1134  0.1319
 2055THY    HP151356   7.943   3.512   4.204 -1.3676 -1.1178 -1.2602
 2055THY    CP251357   8.126   3.435   4.149 -0.2337  0.3873  0.2483
 2055THY    HP251358   8.102   3.468   4.047  0.3281  2.0933  0.6361
 2055THY    HP351359   8.197   3.507   4.192 -0.3499  2.4723 -2.7162
 2055THY    HP451360   8.180   3.343   4.124 -2.0657 -0.9825  1.1825
 2055THY    CP351361   7.908   3.315   4.198 -0.0327  0.8778 -0.7643
 2055THY    HP551362   7.827   3.316   4.271  0.8670  0.3613  0.2797
 2055THY    HP651363   7.860   3.336   4.102 -0.0515  1.0950 -0.7073
 2055THY    HP751364   7.954   3.215   4.206  0.1398  1.0028 -0.1971
 2055THY    CA351365   8.147   3.379   4.432 -0.3052  0.1543  0.4179
 2055THY    HA351366   8.227   3.339   4.371 -0.5448  0.7011 -0.2685
 2055THY    CA451367   8.173   3.361   4.568  0.1206  0.2389 -0.5592
 2055THY    HA451368   8.266   3.314   4.595  0.8481  1.6224 -0.5551
 2055THY    CA551369   8.078   3.402   4.663  0.2830  1.2072  1.6080
 2055THY    CM151370   8.104   3.392   4.805  0.0015 -0.7405  0.3544
 2055THY    HM151371   8.037   3.460   4.860 -1.3731 -2.4572  0.8821
 2055THY    HM251372   8.069   3.297   4.847 -0.5675 -0.6350  0.1252
 2055THY    HM351373   8.206   3.423   4.829 -0.1935  0.3250 -0.1083
 2055THY    CA651374   7.951   3.449   4.620 -0.0917 -0.0315 -0.2408
 2055THY    HA651375   7.873   3.456   4.695 -0.1274  0.1043 -0.2905
 2056THY      O51376   1.029   8.622   3.622  0.5332 -0.1171  0.3909
 2056THY     HO51377   1.112   8.601   3.669  0.8057 -0.9403 -0.4312
 2056THY    CA151378   0.950   8.657   3.719  0.4303  0.1359 -0.0953
 2056THY    CA251379   0.856   8.761   3.703 -1.4896 -0.8444 -0.4204
 2056THY    CP151380   0.845   8.846   3.574  0.1615  0.0153 -0.9706
 2056THY    HP151381   0.874   8.785   3.488  0.3676  1.0278 -1.6409
 2056THY    CP251382   0.705   8.891   3.548  0.6167 -0.3936  0.3741
 2056THY    HP251383   0.687   8.984   3.604  0.8634  0.1972 -0.5134
 2056THY    HP351384   0.705   8.908   3.440  0.8968 -2.0709  0.0828
 2056THY    HP451385   0.637   8.809   3.575 -1.3112  1.5570  1.7489
 2056THY    CP351386   0.940   8.958   3.566  0.4094 -0.3162 -0.2605
 2056THY    HP551387   1.046   8.934   3.580  0.6844  0.6151 -0.6229
 2056THY    HP651388   0.932   9.003   3.466 -1.4810 -1.7480 -0.7978
 2056THY    HP751389   0.910   9.036   3.637 -0.3200 -1.3817  0.6235
 2056THY    CA351390   0.790   8.802   3.816 -0.4482  0.0658  0.3465
 2056THY    HA351391   0.715   8.880   3.812  0.1408  0.6574  0.5597
 2056THY    CA451392   0.793   8.725   3.929  0.2914 -0.3374 -0.6385
 2056THY    HA451393   0.734   8.757   4.014 -0.4076  0.6759 -1.4821
 2056THY    CA551394   0.882   8.624   3.944 -0.7993  0.1908 -0.2639
 2056THY    CM151395   0.922   8.568   4.074 -0.0663  0.3135 -0.6210
 2056THY    HM151396   0.992   8.485   4.065 -1.1292 -0.7629  0.6574
 2056THY    HM251397   0.970   8.637   4.144 -1.0237 -1.1297  1.5800
 2056THY    HM351398   0.830   8.528   4.119 -0.2831  1.2654 -0.1869
 2056THY    CA651399   0.962   8.584   3.836 -0.4865 -0.0375 -0.2830
 2056THY    HA651400   1.032   8.503   3.856  0.1096  0.1294 -1.5706
 2057THY      O51401   9.685   6.318   8.098  0.3609 -0.5546 -0.0467
 2057THY     HO51402   9.637   6.288   8.018  0.7379 -1.9542  0.2218
 2057THY    CA151403   9.654   6.452   8.100  1.0214  0.1272 -0.5406
 2057THY    CA251404   9.666   6.529   8.220 -0.3518 -0.0891  0.9211
 2057THY    CP151405   9.713   6.461   8.353 -0.2705  0.8102  0.5038
 2057THY    HP151406   9.799   6.396   8.332 -1.0963  0.3614 -1.8018
 2057THY    CP251407   9.758   6.568   8.457 -0.1183 -0.8148  0.6106
 2057THY    HP251408   9.678   6.632   8.496  1.9383  2.2716  0.0750
 2057THY    HP351409   9.804   6.514   8.540 -2.0266 -2.3189  0.7851
 2057THY    HP451410   9.835   6.631   8.412 -0.7474  0.3118  1.0838
 2057THY    CP351411   9.601   6.372   8.417 -0.1780 -0.5430  0.2765
 2057THY    HP551412   9.499   6.409   8.405 -0.4743 -1.2031  0.6816
 2057THY    HP651413   9.591   6.280   8.358 -0.7454 -0.6492  0.5355
 2057THY    HP751414   9.624   6.333   8.517 -0.5555 -1.6343 -0.0448
 2057THY    CA351415   9.635   6.668   8.212  0.3155 -0.3714 -0.0941
 2057THY    HA351416   9.641   6.736   8.297  2.6822  0.5239 -0.8992
 2057THY    CA451417   9.599   6.722   8.091 -0.6212 -0.0712  0.3424
 2057THY    HA451418   9.567   6.826   8.090 -1.2050 -0.1997 -2.1432
 2057THY    CA551419   9.585   6.646   7.973 -1.1237 -0.1535 -0.3443
 2057THY    CM151420   9.563   6.718   7.843 -0.0615 -0.3426  0.2886
 2057THY    HM151421   9.510   6.812   7.857  0.0883  0.1267 -1.8318
 2057THY    HM251422   9.658   6.749   7.798  1.5688  0.1334  3.7980
 2057THY    HM351423   9.507   6.654   7.773  0.0892  0.6507 -0.7806
 2057THY    CA651424   9.622   6.511   7.978  0.2291 -0.4913 -0.1577
 2057THY    HA651425   9.626   6.451   7.887 -1.3951 -0.5809 -0.1940
 2058THY      O51426   3.038   8.020   7.739 -1.2380 -0.4397  0.3852
 2058THY     HO51427   2.946   8.011   7.769 -3.0425 -0.3469 -4.3388
 2058THY    CA151428   3.080   8.149   7.750 -0.9445 -0.2264  0.0683
 2058THY    CA251429   3.217   8.185   7.739  0.1393  0.2108  0.3818
 2058THY    CP151430   3.318   8.076   7.750 -0.1660  0.1205  0.5107
 2058THY    HP151431   3.279   7.986   7.799  0.4346 -0.4391 -0.0135
 2058THY    CP251432   3.362   8.021   7.613  0.2852 -0.0297 -0.5139
 2058THY    HP251433   3.417   7.927   7.626 -1.8185 -1.6179 -2.4019
 2058THY    HP351434   3.273   7.998   7.554 -0.1670  1.2634 -0.3779
 2058THY    HP451435   3.418   8.107   7.574 -1.3323  1.1057 -0.4222
 2058THY    CP351436   3.437   8.127   7.838 -0.0018  0.5297  0.3174
 2058THY    HP551437   3.397   8.189   7.919 -3.0687 -0.9013  0.0418
 2058THY    HP651438   3.494   8.048   7.889  0.3662  1.1227  0.8487
 2058THY    HP751439   3.516   8.177   7.781 -0.9318 -0.5034 -1.9708
 2058THY    CA351440   3.248   8.326   7.759 -0.9617 -0.3249 -0.4900
 2058THY    HA351441   3.351   8.353   7.742 -1.4311  1.1593 -1.1761
 2058THY    CA451442   3.147   8.424   7.780 -0.3576 -0.4095  0.6549
 2058THY    HA451443   3.181   8.527   7.785  0.5165 -0.5314 -1.6203
 2058THY    CA551444   3.012   8.386   7.785 -0.8292  0.2836  0.1876
 2058THY    CM151445   2.905   8.488   7.790  0.4447  0.0925  0.3163
 2058THY    HM151446   2.816   8.444   7.835  1.0529 -0.0030  1.4494
 2058THY    HM251447   2.938   8.579   7.842 -2.4779  0.9307  0.9134
 2058THY    HM351448   2.888   8.519   7.686  0.7389  0.8409  0.4878
 2058THY    CA651449   2.982   8.247   7.773  1.0584  0.2507 -0.0815
 2058THY    HA651450   2.884   8.202   7.785  2.2802 -2.2151  1.7533
 2059THY      O51451   0.398   2.260   9.062 -0.4235  0.6706 -0.3578
 2059THY     HO51452   0.361   2.342   9.025 -1.4052  0.6735  0.5931
 2059THY    CA151453   0.507   2.289   9.134  0.4048  0.7281 -0.2702
 2059THY    CA251454   0.587   2.197   9.215 -0.1659  0.3255  0.5618
 2059THY    CP151455   0.580   2.044   9.207 -0.2370 -0.1587 -0.5845
 2059THY    HP151456   0.494   2.025   9.141 -1.6664 -2.3967  1.7536
 2059THY    CP251457   0.700   1.980   9.136  0.0117 -0.3264 -0.5166
 2059THY    HP251458   0.797   2.015   9.172 -0.4784  3.2618 -2.2734
 2059THY    HP351459   0.700   1.870   9.141  0.6440 -0.2750  1.7927
 2059THY    HP451460   0.707   2.022   9.035 -1.6965  0.2065 -0.4462
 2059THY    CP351461   0.539   1.984   9.344  0.1320  0.3779 -0.3271
 2059THY    HP551462   0.440   2.017   9.379 -0.1448 -1.7052  1.1136
 2059THY    HP651463   0.543   1.875   9.337  2.0510  0.3416  0.5299
 2059THY    HP751464   0.615   1.998   9.422  2.0904 -2.2300 -1.6161
 2059THY    CA351465   0.683   2.245   9.294  1.1209 -0.0528 -0.0297
 2059THY    HA351466   0.738   2.178   9.359  1.1651  0.2361  0.2319
 2059THY    CA451467   0.705   2.380   9.291 -0.4511 -0.3848  0.0685
 2059THY    HA451468   0.795   2.405   9.347 -0.2801 -0.0035 -0.3706
 2059THY    CA551469   0.636   2.472   9.216  0.5198  0.8092  0.7680
 2059THY    CM151470   0.675   2.610   9.192  0.4000  0.1175  0.3475
 2059THY    HM151471   0.591   2.677   9.174  1.5569  1.6447  0.3994
 2059THY    HM251472   0.722   2.650   9.283  0.7407 -0.3080  0.3612
 2059THY    HM351473   0.729   2.620   9.097  0.8790 -0.5981  0.5333
 2059THY    CA651474   0.530   2.422   9.140 -0.1986  0.0578 -0.8881
 2059THY    HA651475   0.474   2.496   9.083  0.2422  0.9319 -0.2053
 2060THY      O51476   5.308   4.416   0.245  0.0502  0.1312 -0.2806
 2060THY     HO51477   5.256   4.344   0.206 -3.6515  2.0917  0.5647
 2060THY    CA151478   5.247   4.448   0.368  0.2911 -0.6538  0.5689
 2060THY    CA251479   5.312   4.531   0.460  0.1593 -0.2216  0.4092
 2060THY    CP151480   5.441   4.601   0.414  0.0719  0.7500 -0.2669
 2060THY    HP151481   5.501   4.522   0.367 -0.2126 -0.1784  0.8802
 2060THY    CP251482   5.419   4.708   0.312 -0.0526 -0.1906 -0.5621
 2060THY    HP251483   5.514   4.751   0.280  0.3033 -0.0940  0.5803
 2060THY    HP351484   5.363   4.687   0.220  1.9651  0.5008 -2.0198
 2060THY    HP451485   5.367   4.793   0.358  0.3836  0.5050 -1.3348
 2060THY    CP351486   5.523   4.666   0.527  0.0371 -0.6999 -0.0135
 2060THY    HP551487   5.611   4.719   0.489 -0.5763  0.2514 -0.1566
 2060THY    HP651488   5.461   4.738   0.583 -0.7117  0.3040 -2.0043
 2060THY    HP751489   5.566   4.586   0.587  1.3546 -1.4612 -1.8695
 2060THY    CA351490   5.250   4.549   0.586 -0.6950  0.7047  0.5341
 2060THY    HA351491   5.283   4.626   0.655 -1.5000  2.2813 -0.7457
 2060THY    CA451492   5.132   4.484   0.618  0.5183 -0.2592  0.2822
 2060THY    HA451493   5.079   4.520   0.706 -0.3543  0.4131 -0.5020
 2060THY    CA551494   5.066   4.404   0.527 -0.0901  0.0363  0.0213
 2060THY    CM151495   4.927   4.344   0.554  0.2055 -0.0589 -0.1942
 2060THY    HM151496   4.929   4.281   0.643  1.6450  0.7757  0.4069
 2060THY    HM251497   4.843   4.415   0.559 -1.9734 -2.4557 -0.7528
 2060THY    HM351498   4.904   4.270   0.476  1.0435 -2.4865  1.7486
 2060THY    CA651499   5.123   4.385   0.398  0.0108 -0.2029  0.5302
 2060THY    HA651500   5.068   4.321   0.330 -0.9295  1.3865 -0.2591
 2061THY      O51501   2.711   1.267   3.407 -0.8827  0.1268 -0.5879
 2061THY     HO51502   2.634   1.293   3.354 -1.3957  0.0011  0.0858
 2061THY    CA151503   2.756   1.152   3.353  0.2135 -0.8075  0.0975
 2061THY    CA251504   2.873   1.090   3.408  0.4839  0.0376 -0.1001
 2061THY    CP151505   2.951   1.146   3.530  0.1404 -0.1551  0.2745
 2061THY    HP151506   2.888   1.217   3.584  0.5280 -0.5839  1.3198
 2061THY    CP251507   2.992   1.033   3.632  0.0842 -0.1063 -0.2533
 2061THY    HP251508   3.059   1.070   3.711  0.7808 -0.7772 -0.5193
 2061THY    HP351509   2.899   0.987   3.670  0.0918 -1.2491 -1.5425
 2061THY    HP451510   3.056   0.961   3.580  1.2168  1.3147 -0.8737
 2061THY    CP351511   3.064   1.241   3.481 -0.0352  0.3704 -1.0662
 2061THY    HP551512   3.133   1.186   3.416 -0.0013  1.3196 -1.8527
 2061THY    HP651513   3.027   1.324   3.420  0.3880  2.3173  1.1542
 2061THY    HP751514   3.114   1.286   3.567 -2.5694 -0.6783  1.1071
 2061THY    CA351515   2.927   0.978   3.341 -0.9953 -0.1860 -0.5694
 2061THY    HA351516   3.028   0.951   3.369 -1.6203 -1.1192  0.8958
 2061THY    CA451517   2.856   0.925   3.239  0.0514 -0.4719  0.2445
 2061THY    HA451518   2.905   0.852   3.175  0.3650  0.3546 -0.4719
 2061THY    CA551519   2.739   0.986   3.185 -0.5143  0.1544  0.1526
 2061THY    CM151520   2.682   0.952   3.049 -0.3816  0.0315 -0.3758
 2061THY    HM151521   2.575   0.975   3.044  0.2459  3.2308 -0.9581
 2061THY    HM251522   2.723   1.015   2.969  1.5252 -0.7477 -0.0756
 2061THY    HM351523   2.701   0.848   3.018  1.2387  0.4823 -1.0565
 2061THY    CA651524   2.685   1.097   3.242 -0.4392  0.2730 -0.0897
 2061THY    HA651525   2.599   1.147   3.199 -1.2465  1.1838  2.3673
 2062THY      O51526   7.073   2.654   4.104 -0.0525  0.2870 -0.0622
 2062THY     HO51527   7.112   2.670   4.192  0.6305  1.7842 -0.6103
 2062THY    CA151528   7.081   2.780   4.052  0.5254 -1.1139  0.0035
 2062THY    CA251529   7.079   2.804   3.911 -0.1463 -0.7353 -0.6387
 2062THY    CP151530   7.037   2.703   3.804 -0.6231  0.4129 -0.4213
 2062THY    HP151531   6.997   2.613   3.854  1.2651  1.1697  2.7482
 2062THY    CP251532   6.932   2.754   3.711 -0.3584 -1.2815 -0.1912
 2062THY    HP251533   6.967   2.824   3.634 -1.2056  1.6627  1.9635
 2062THY    HP351534   6.907   2.674   3.641 -0.3681 -0.5356 -1.0591
 2062THY    HP451535   6.856   2.808   3.767  0.9256  0.4230 -0.0053
 2062THY    CP351536   7.156   2.647   3.728 -0.2659  0.0105  0.4497
 2062THY    HP551537   7.213   2.732   3.689 -0.4218  0.4218  1.0924
 2062THY    HP651538   7.219   2.591   3.798 -1.4038 -1.4484  0.3731
 2062THY    HP751539   7.128   2.576   3.649  1.7893  0.3271 -0.6140
 2062THY    CA351540   7.114   2.934   3.863  0.8666  0.6995 -0.1052
 2062THY    HA351541   7.115   2.944   3.755  0.0896  0.5302 -0.1363
 2062THY    CA451542   7.137   3.035   3.951  0.1835  0.0246  0.7048
 2062THY    HA451543   7.152   3.136   3.916  0.2585 -0.1283  0.2845
 2062THY    CA551544   7.134   3.008   4.090  0.2125 -0.1969  0.2137
 2062THY    CM151545   7.199   3.103   4.190 -0.4781 -0.7151  0.0116
 2062THY    HM151546   7.260   3.168   4.127 -0.4022  0.4936  1.2779
 2062THY    HM251547   7.131   3.171   4.244  0.4382  0.8894 -0.7920
 2062THY    HM351548   7.254   3.052   4.270  0.1606  0.3372  0.2764
 2062THY    CA651549   7.116   2.880   4.142  0.6215  0.6159 -0.1643
 2062THY    HA651550   7.121   2.868   4.250  1.1495  0.2162 -0.2296
 2063THY      O51551   2.714   3.864   1.436  0.3829  0.1671 -0.0336
 2063THY     HO51552   2.763   3.919   1.499  2.7996 -2.2682  0.3985
 2063THY    CA151553   2.708   3.735   1.482  0.3373  0.2181 -0.0034
 2063THY    CA251554   2.644   3.629   1.413 -0.0325 -0.0710  0.6291
 2063THY    CP151555   2.584   3.659   1.276 -0.0738  0.2735  0.2480
 2063THY    HP151556   2.586   3.768   1.264 -0.0270  0.0448 -2.4379
 2063THY    CP251557   2.665   3.584   1.166 -0.1707  0.7968  0.2254
 2063THY    HP251558   2.765   3.626   1.149  0.5058 -0.7620  0.1836
 2063THY    HP351559   2.682   3.477   1.182 -5.7490 -0.3324  0.5715
 2063THY    HP451560   2.601   3.587   1.078 -0.9895 -1.4455  0.6742
 2063THY    CP351561   2.435   3.627   1.271 -0.4079  0.2877 -0.1341
 2063THY    HP551562   2.414   3.520   1.259  0.1453 -0.1284  2.1843
 2063THY    HP651563   2.377   3.666   1.356 -3.0189 -0.3122 -1.5102
 2063THY    HP751564   2.389   3.674   1.183 -1.4120 -0.1141  0.1533
 2063THY    CA351565   2.646   3.501   1.464 -0.2500 -0.3026  0.8027
 2063THY    HA351566   2.620   3.418   1.400 -1.0333 -1.6928  2.8107
 2063THY    CA451567   2.713   3.478   1.589 -0.7999  0.0590 -0.4038
 2063THY    HA451568   2.734   3.376   1.621 -1.9544  0.1217  0.6406
 2063THY    CA551569   2.764   3.582   1.661  0.1378  0.7676 -0.0065
 2063THY    CM151570   2.820   3.548   1.802  0.3269 -0.1413  0.0698
 2063THY    HM151571   2.869   3.637   1.843 -0.4645  0.6156 -0.5846
 2063THY    HM251572   2.745   3.533   1.880  0.7556  0.1267  0.5387
 2063THY    HM351573   2.893   3.466   1.803 -1.1976 -1.5644 -0.1578
 2063THY    CA651574   2.759   3.713   1.609  0.2014 -0.0455  0.2614
 2063THY    HA651575   2.801   3.796   1.665 -3.5237  1.4198  1.2243
 2064THY      O51576   2.925   6.164   8.853 -0.3599 -0.3112  0.0788
 2064THY     HO51577   2.924   6.232   8.924 -1.6859  0.8036 -0.9558
 2064THY    CA151578   2.945   6.036   8.907  0.3679  0.3709 -0.0674
 2064THY    CA251579   2.946   5.924   8.824 -0.3295  1.1866  0.9487
 2064THY    CP151580   2.921   5.938   8.675  0.5041  0.0809  0.4338
 2064THY    HP151581   2.866   6.032   8.660  0.2981 -0.2152 -0.7764
 2064THY    CP251582   3.051   5.947   8.589 -0.7329  0.5326  0.8233
 2064THY    HP251583   3.128   6.004   8.642 -0.2547  0.6136  0.0557
 2064THY    HP351584   3.094   5.846   8.595 -1.6640  0.0680 -0.0454
 2064THY    HP451585   3.038   5.987   8.488  0.0640  2.5969  1.4992
 2064THY    CP351586   2.820   5.832   8.618  0.3204 -0.5947  0.2438
 2064THY    HP551587   2.730   5.820   8.680  0.5435 -0.2706  0.6335
 2064THY    HP651588   2.796   5.849   8.512 -0.8891 -2.2251  0.2169
 2064THY    HP751589   2.858   5.730   8.631  0.3943 -0.5841  0.1154
 2064THY    CA351590   2.977   5.797   8.882 -0.3925  0.0952 -0.8618
 2064THY    HA351591   2.983   5.706   8.822  1.3410 -0.0694 -0.4909
 2064THY    CA451592   3.000   5.789   9.022  0.2237  0.0782  0.0073
 2064THY    HA451593   3.033   5.694   9.063 -0.0618 -0.0993 -0.1706
 2064THY    CA551594   3.009   5.907   9.102 -0.4589  0.5807 -0.2289
 2064THY    CM151595   3.067   5.895   9.251  0.7697 -0.2427  0.4708
 2064THY    HM151596   3.019   5.815   9.308 -0.6158  0.2484  0.0621
 2064THY    HM251597   3.174   5.876   9.245  0.8767  0.4629  0.0434
 2064THY    HM351598   3.055   5.993   9.298 -0.7748  0.0239 -0.3936
 2064THY    CA651599   2.974   6.031   9.049  0.5041  0.3356  0.9942
 2064THY    HA651600   2.983   6.122   9.108  1.5109  0.3732  0.7903
 2065THY      O51601   3.991   1.524   4.790 -0.1433  0.5618  0.3647
 2065THY     HO51602   4.021   1.494   4.703  1.5745 -0.1397  1.1474
 2065THY    CA151603   3.863   1.561   4.787 -0.1661  0.0085  0.9716
 2065THY    CA251604   3.782   1.584   4.899 -0.2208 -0.2413  0.0124
 2065THY    CP151605   3.851   1.603   5.034 -0.5446  0.2540  0.4943
 2065THY    HP151606   3.946   1.659   5.036  1.3565 -2.6939 -0.3830
 2065THY    CP251607   3.768   1.689   5.134 -0.1879  0.3306  0.0532
 2065THY    HP251608   3.741   1.789   5.098 -3.2550  0.3766  2.1037
 2065THY    HP351609   3.678   1.631   5.157 -0.7700  1.4387  0.6061
 2065THY    HP451610   3.831   1.694   5.224  1.6518 -1.1692 -1.0652
 2065THY    CP351611   3.883   1.463   5.086  0.2399 -0.5193  0.0122
 2065THY    HP551612   3.936   1.465   5.182 -1.3258  1.1955  0.8953
 2065THY    HP651613   3.786   1.415   5.104 -1.0727  1.4694 -1.3317
 2065THY    HP751614   3.924   1.398   5.008  1.4611  0.6305 -0.3589
 2065THY    CA351615   3.639   1.603   4.882  0.0218 -0.2576  0.5749
 2065THY    HA351616   3.571   1.620   4.965  0.9847  0.1676  1.2904
 2065THY    CA451617   3.586   1.587   4.760  0.6559 -0.1308  0.2760
 2065THY    HA451618   3.479   1.605   4.745  1.0962  1.0994 -1.8421
 2065THY    CA551619   3.659   1.576   4.644  0.0784 -0.1233 -1.2814
 2065THY    CM151620   3.583   1.586   4.521 -0.4366 -0.4031  1.3550
 2065THY    HM151621   3.532   1.682   4.512 -0.6076 -0.5857  0.0713
 2065THY    HM251622   3.646   1.560   4.435  2.5874  1.0057  3.0016
 2065THY    HM351623   3.505   1.508   4.519  0.4658 -1.3318  1.4938
 2065THY    CA651624   3.796   1.553   4.658 -1.0448 -0.4077 -0.1464
 2065THY    HA651625   3.853   1.560   4.567 -1.9793  0.9449 -0.6600
 2066THY      O51626   3.647   6.627   0.155  0.7901 -0.1792 -0.5546
 2066THY     HO51627   3.651   6.660   0.064 -0.0324  0.3327 -0.4083
 2066THY    CA151628   3.715   6.719   0.226  0.0418  0.5813 -0.0386
 2066THY    CA251629   3.659   6.791   0.337 -0.2954  0.1148 -0.5432
 2066THY    CP151630   3.514   6.767   0.383  0.2872 -0.1929  0.1412
 2066THY    HP151631   3.452   6.749   0.294 -0.7948  1.6878  0.4598
 2066THY    CP251632   3.502   6.645   0.470 -0.7679 -0.2560  0.0529
 2066THY    HP251633   3.533   6.556   0.415 -1.9534 -2.6938  3.0395
 2066THY    HP351634   3.562   6.657   0.561 -1.9492  0.2689  0.8015
 2066THY    HP451635   3.396   6.635   0.497 -0.8058  1.2494  0.6020
 2066THY    CP351636   3.452   6.887   0.462 -0.0991  0.4413 -0.1388
 2066THY    HP551637   3.346   6.867   0.478  0.3649 -2.7336 -0.3465
 2066THY    HP651638   3.513   6.888   0.553  1.2197  0.7558 -0.9841
 2066THY    HP751639   3.470   6.978   0.404  0.3184  0.6013  0.2417
 2066THY    CA351640   3.746   6.892   0.401 -0.0451 -0.0763 -1.0478
 2066THY    HA351641   3.704   6.959   0.475 -1.9730 -1.8995 -0.3714
 2066THY    CA451642   3.881   6.905   0.360  0.3115  0.3783  0.1433
 2066THY    HA451643   3.940   6.970   0.424  1.6469 -0.7594  0.1209
 2066THY    CA551644   3.936   6.835   0.249  0.4966 -0.5669 -0.4688
 2066THY    CM151645   4.079   6.856   0.200  0.1674  0.1663  0.1269
 2066THY    HM151646   4.090   6.920   0.112  1.4228  2.9408  2.1654
 2066THY    HM251647   4.145   6.895   0.277  2.1249 -0.0459 -1.3679
 2066THY    HM351648   4.123   6.759   0.174  0.3364  0.6447 -1.5221
 2066THY    CA651649   3.848   6.746   0.182 -0.8122 -0.3485  0.5399
 2066THY    HA651650   3.878   6.692   0.092  0.8384  0.2001  0.7110
 2067THY      O51651   2.317   4.924   4.831  0.5298  0.0402 -0.1705
 2067THY     HO51652   2.399   4.915   4.881  0.6010 -0.0089 -0.2942
 2067THY    CA151653   2.290   4.801   4.787 -0.5744  0.5439 -0.2887
 2067THY    CA251654   2.161   4.776   4.741 -0.7123  0.5575 -0.0887
 2067THY    CP151655   2.058   4.880   4.726  1.3144 -0.4787  0.4450
 2067THY    HP151656   2.114   4.969   4.694  0.7407 -0.0290  0.6626
 2067THY    CP251657   1.950   4.854   4.623  0.4341  0.4936 -0.3473
 2067THY    HP251658   2.003   4.825   4.532  2.3058  0.3212  0.7483
 2067THY    HP351659   1.870   4.782   4.638 -0.9614  1.8211 -1.0900
 2067THY    HP451660   1.916   4.957   4.602  2.0659  0.8868 -1.3130
 2067THY    CP351661   1.988   4.894   4.862 -0.3795 -0.1527 -0.4956
 2067THY    HP551662   2.064   4.934   4.931 -1.2085  0.2278  0.2117
 2067THY    HP651663   1.905   4.964   4.854 -0.2333  0.4941  2.4174
 2067THY    HP751664   1.949   4.799   4.900 -0.9959  1.4176  3.2531
 2067THY    CA351665   2.146   4.633   4.707  0.4849  0.1182  0.6892
 2067THY    HA351666   2.054   4.596   4.662  0.5823  0.9142 -0.1813
 2067THY    CA451667   2.239   4.537   4.736  0.3358  0.3428  0.1010
 2067THY    HA451668   2.217   4.432   4.720 -1.4207  0.4756  1.3074
 2067THY    CA551669   2.365   4.573   4.783  0.6442 -0.0423 -0.0208
 2067THY    CM151670   2.471   4.475   4.793  0.2954 -0.2773 -0.7825
 2067THY    HM151671   2.537   4.480   4.706  1.4709  0.5236  0.1213
 2067THY    HM251672   2.543   4.499   4.873  0.5841 -0.5595 -0.9555
 2067THY    HM351673   2.430   4.375   4.813  0.0643  0.2724  1.8256
 2067THY    CA651674   2.393   4.704   4.808  0.1517 -0.5193  0.2384
 2067THY    HA651675   2.494   4.731   4.836 -0.2932  1.6185 -0.0503
 2068THY      O51676   5.596   2.952   0.312 -0.4354  0.0940 -0.6990
 2068THY     HO51677   5.661   2.981   0.378  0.9613 -0.9400 -1.5546
 2068THY    CA151678   5.623   3.019   0.200 -0.3581 -0.5070  0.2323
 2068THY    CA251679   5.678   2.965   0.077  0.3684  0.1165 -0.4163
 2068THY    CP151680   5.693   2.808   0.078 -0.8736  0.3283 -0.3373
 2068THY    HP151681   5.638   2.765   0.163  1.2326 -1.6629  0.1003
 2068THY    CP251682   5.657   2.744  -0.057 -0.3838 -0.2248  0.3446
 2068THY    HP251683   5.652   2.636  -0.039 -1.9728 -0.1160  0.6608
 2068THY    HP351684   5.558   2.781  -0.085 -0.1972  0.5470  0.6974
 2068THY    HP451685   5.720   2.772  -0.143 -0.9027  1.5405  0.5213
 2068THY    CP351686   5.838   2.768   0.100 -0.2160 -0.0281  0.0355
 2068THY    HP551687   5.861   2.665   0.071 -0.5795 -0.0420 -0.1968
 2068THY    HP651688   5.907   2.835   0.048  0.4988  0.1167  1.1264
 2068THY    HP751689   5.867   2.785   0.205 -1.1643  0.5963  0.2041
 2068THY    CA351690   5.703   3.044  -0.036 -0.4586 -0.2753 -0.4049
 2068THY    HA351691   5.762   3.014  -0.122  1.6037 -1.8556  1.4359
 2068THY    CA451692   5.686   3.183  -0.023  0.2561  0.0520 -0.4054
 2068THY    HA451693   5.710   3.247  -0.107  1.3919 -1.2465 -1.1273
 2068THY    CA551694   5.633   3.239   0.096  0.5148  0.7017  0.4318
 2068THY    CM151695   5.615   3.387   0.098  0.4089  0.2086 -0.2389
 2068THY    HM151696   5.521   3.405   0.151  0.6429 -0.6488  0.4829
 2068THY    HM251697   5.692   3.445   0.151 -0.3431  1.0921 -0.0734
 2068THY    HM351698   5.596   3.429  -0.002 -2.1788  0.1561  0.1603
 2068THY    CA651699   5.600   3.156   0.203 -0.2233 -0.6065 -0.2545
 2068THY    HA651700   5.561   3.202   0.293  0.4929  1.6417 -1.0385
 2069THY      O51701   3.805   0.427   9.866 -0.5260  0.0545  0.4502
 2069THY     HO51702   3.895   0.443   9.831 -1.0700  2.4593  0.0090
 2069THY    CA151703   3.809   0.493   9.981  0.4843  1.1350 -0.6735
 2069THY    CA251704   3.741   0.434  10.091 -1.3548 -0.4103 -0.8656
 2069THY    CP151705   3.673   0.294  10.084 -0.3714 -0.7205 -0.8583
 2069THY    HP151706   3.672   0.245   9.986 -0.9800  0.0876 -1.2698
 2069THY    CP251707   3.759   0.195  10.158 -0.1179 -0.2660  0.0568
 2069THY    HP251708   3.707   0.098  10.163  0.5410 -0.6297  0.0371
 2069THY    HP351709   3.854   0.181  10.104  0.6026 -2.5675  1.7120
 2069THY    HP451710   3.783   0.232  10.259  1.6870  1.1091 -0.8281
 2069THY    CP351711   3.530   0.302  10.125 -0.2618  0.4909  0.5299
 2069THY    HP551712   3.516   0.348  10.223  1.8654  0.5446  0.8537
 2069THY    HP651713   3.480   0.364  10.050  0.4798 -1.7864 -2.0247
 2069THY    HP751714   3.481   0.204  10.116 -1.3521  1.0419  0.3775
 2069THY    CA351715   3.750   0.510  10.208  0.1753 -0.6758  0.9180
 2069THY    HA351716   3.698   0.469  10.295 -1.0540 -1.5244 -0.1679
 2069THY    CA451717   3.803   0.639  10.215  0.2518  0.0921 -0.2655
 2069THY    HA451718   3.803   0.696  10.307 -0.0542  1.4797 -1.0989
 2069THY    CA551719   3.857   0.695  10.097 -0.5914  0.2805 -0.1437
 2069THY    CM151720   3.902   0.833  10.100  0.3375 -0.9856  0.0148
 2069THY    HM151721   3.999   0.845  10.150  0.3262 -1.4945  0.1642
 2069THY    HM251722   3.900   0.877  10.000  2.5412 -0.2796  0.2297
 2069THY    HM351723   3.826   0.892  10.152  1.7480 -0.1480  1.2157
 2069THY    CA651724   3.874   0.618   9.979 -0.0611 -0.4086 -0.5609
 2069THY    HA651725   3.927   0.660   9.895  0.9022 -1.1053 -0.3109
 2070THY      O51726   9.243   4.186   9.879  0.0350  0.3745  0.1061
 2070THY     HO51727   9.158   4.177   9.832 -0.2563  0.5670  0.5951
 2070THY    CA151728   9.222   4.259   9.988  0.0947 -0.1993 -0.0871
 2070THY    CA251729   9.330   4.320  10.055 -0.3308 -0.0082 -0.8419
 2070THY    CP151730   9.480   4.305  10.021 -0.1632 -0.0565  0.7589
 2070THY    HP151731   9.488   4.235   9.937 -2.2619 -1.7595  1.8715
 2070THY    CP251732   9.551   4.440   9.980 -0.1355  0.5724 -0.1336
 2070THY    HP251733   9.659   4.421   9.982 -0.4390 -1.5256  2.0416
 2070THY    HP351734   9.522   4.462   9.877  2.2838  0.2850 -0.9328
 2070THY    HP451735   9.539   4.527  10.046 -1.9325 -0.1831  0.6187
 2070THY    CP351736   9.559   4.234  10.137  0.4467  0.1209 -1.0230
 2070THY    HP551737   9.566   4.290  10.231 -0.8642 -1.3928  0.0043
 2070THY    HP651738   9.514   4.136  10.152  1.0685  0.1049  1.0700
 2070THY    HP751739   9.659   4.201  10.108  0.7290 -0.0846  0.1405
 2070THY    CA351740   9.304   4.408  10.163  0.5567  0.0617 -0.4166
 2070THY    HA351741   9.388   4.447  10.219  0.9935  0.1789 -1.1397
 2070THY    CA451742   9.172   4.420  10.204  0.2245  0.5771 -0.2155
 2070THY    HA451743   9.157   4.483  10.291 -0.7360  0.8771 -0.5842
 2070THY    CA551744   9.059   4.363  10.145 -0.9470  0.0016  0.3929
 2070THY    CM151745   8.923   4.399  10.195  0.1852  0.2046  0.2798
 2070THY    HM151746   8.842   4.367  10.128 -0.3610  0.4215  0.8157
 2070THY    HM251747   8.905   4.355  10.294  1.5429 -1.3473 -0.1123
 2070THY    HM351748   8.925   4.507  10.211 -0.2250  0.3981 -0.9100
 2070THY    CA651749   9.088   4.280  10.030 -0.0650 -0.3566 -0.1354
 2070THY    HA651750   9.005   4.231   9.981 -0.7218 -1.0207  1.5738
 2071THY      O51751   1.191   9.191   6.647 -0.1079  0.7643 -0.1617
 2071THY     HO51752   1.281   9.206   6.616 -0.1770 -0.0739 -0.7966
 2071THY    CA151753   1.182   9.066   6.688  0.1372  0.2822  0.0910
 2071THY    CA251754   1.066   9.013   6.762 -0.5344  0.1814  0.3262
 2071THY    CP151755   0.939   9.091   6.753  0.5460 -0.7482  0.1743
 2071THY    HP151756   0.955   9.192   6.713 -3.0717 -0.8557 -1.8940
 2071THY    CP251757   0.839   9.029   6.653  0.3023 -0.1026  0.6953
 2071THY    HP251758   0.750   9.092   6.642 -0.2078 -0.5721  1.9274
 2071THY    HP351759   0.887   9.016   6.555  0.7416 -0.3320  0.9372
 2071THY    HP451760   0.796   8.933   6.684 -1.4733  1.0865  2.1442
 2071THY    CP351761   0.880   9.120   6.885 -0.1601 -0.3452  0.0280
 2071THY    HP551762   0.893   9.027   6.941  0.5307  0.2009  0.7939
 2071THY    HP651763   0.921   9.210   6.932  0.4403 -0.4596 -0.2691
 2071THY    HP751764   0.771   9.133   6.881 -0.1755 -0.4448  0.1080
 2071THY    CA351765   1.084   8.880   6.815 -0.2348  0.2943 -0.2482
 2071THY    HA351766   0.998   8.830   6.858 -1.6737 -0.2692 -3.4819
 2071THY    CA451767   1.202   8.813   6.791 -0.2706  0.3746  0.8722
 2071THY    HA451768   1.213   8.710   6.823 -0.5889  0.4194  1.1277
 2071THY    CA551769   1.315   8.860   6.720  0.6947  0.2110 -0.1369
 2071THY    CM151770   1.446   8.779   6.713  0.3904 -0.7430  0.4622
 2071THY    HM151771   1.471   8.757   6.609  2.6478 -1.8533  1.1758
 2071THY    HM251772   1.525   8.835   6.763  1.3666 -2.0494  0.4199
 2071THY    HM351773   1.448   8.684   6.768  3.4899 -0.7150  0.5577
 2071THY    CA651774   1.306   8.994   6.676  0.4293 -0.5775 -0.5350
 2071THY    HA651775   1.401   9.033   6.641  1.2743 -1.6656  0.4407
 2072THY      O51776   3.867   6.705   1.947  0.3464 -0.9631  0.0743
 2072THY     HO51777   3.819   6.663   2.020  1.2290  1.4777  2.2015
 2072THY    CA151778   3.891   6.831   1.982  0.4755  1.1110 -0.0293
 2072THY    CA251779   3.938   6.927   1.894  0.1272 -0.2514  1.1845
 2072THY    CP151780   3.950   6.883   1.744 -0.1556 -0.2143  0.1246
 2072THY    HP151781   3.968   6.775   1.732 -0.9941 -0.3838  0.3859
 2072THY    CP251782   3.808   6.904   1.683  1.0884 -0.1368  0.4961
 2072THY    HP251783   3.810   6.859   1.583 -1.0125  3.3282 -1.2923
 2072THY    HP351784   3.734   6.855   1.746 -1.1307  3.0761  0.6102
 2072THY    HP451785   3.791   7.012   1.678 -1.8156 -0.5658 -0.4740
 2072THY    CP351786   4.062   6.937   1.666 -0.2592  0.7080  0.1679
 2072THY    HP551787   4.155   6.885   1.694  0.4939  0.2260 -2.8532
 2072THY    HP651788   4.039   6.907   1.563  1.5218  0.1013 -0.0975
 2072THY    HP751789   4.072   7.044   1.687  1.3736  0.3795  1.3279
 2072THY    CA351790   3.944   7.063   1.937 -0.9970  0.3807  0.8196
 2072THY    HA351791   3.955   7.148   1.870 -1.8325  0.7999  1.2048
 2072THY    CA451792   3.920   7.092   2.074 -0.6222 -0.6798 -0.3904
 2072THY    HA451793   3.926   7.191   2.118  1.6295 -0.9958  0.1354
 2072THY    CA551794   3.896   6.990   2.165 -0.3251 -0.3475  0.4104
 2072THY    CM151795   3.900   7.014   2.310  0.1435 -0.3444  0.2049
 2072THY    HM151796   3.951   6.928   2.355 -0.7215 -0.9460  0.0592
 2072THY    HM251797   3.954   7.102   2.346  0.5975 -0.6679  0.3154
 2072THY    HM351798   3.802   7.020   2.359 -0.5642  1.6776 -1.3192
 2072THY    CA651799   3.879   6.858   2.119  0.3912  0.2366 -1.2001
 2072THY    HA651800   3.855   6.783   2.194 -0.0029  0.5781 -0.9826
 2073THY      O51801   2.640   3.297   5.776 -0.0435 -0.3246  0.9914
 2073THY     HO51802   2.714   3.304   5.839  0.8649  5.4526 -0.0831
 2073THY    CA151803   2.615   3.169   5.741  0.2076 -0.2637 -0.0183
 2073THY    CA251804   2.595   3.125   5.605  0.3536 -0.7837 -0.0992
 2073THY    CP151805   2.605   3.227   5.490 -0.9953 -0.0568  0.3619
 2073THY    HP151806   2.649   3.319   5.531 -0.2184  0.0971 -0.7754
 2073THY    CP251807   2.699   3.173   5.374 -0.5517  0.8337 -0.6137
 2073THY    HP251808   2.801   3.151   5.408 -0.5616  0.0321 -1.0873
 2073THY    HP351809   2.664   3.089   5.313  1.0036  0.4456 -1.0223
 2073THY    HP451810   2.720   3.263   5.314  1.6245  1.3426  0.7894
 2073THY    CP351811   2.469   3.260   5.435  0.0488 -0.0002  0.7737
 2073THY    HP551812   2.389   3.262   5.510 -0.6443 -1.7852  0.1334
 2073THY    HP651813   2.462   3.343   5.364  0.0004  0.8267  1.7225
 2073THY    HP751814   2.431   3.180   5.370 -2.7500  1.7823  0.0142
 2073THY    CA351815   2.565   2.986   5.584  1.1345  0.3275  0.4888
 2073THY    HA351816   2.540   2.949   5.485 -0.1963  3.2988 -0.4135
 2073THY    CA451817   2.562   2.902   5.687 -0.6444  0.9362 -0.2433
 2073THY    HA451818   2.556   2.795   5.673  3.1761  0.4457  0.7036
 2073THY    CA551819   2.579   2.946   5.817  0.1649  0.4679 -1.3151
 2073THY    CM151820   2.572   2.858   5.933  0.3288  0.2338  0.4797
 2073THY    HM151821   2.517   2.767   5.905  0.5839  0.4232 -0.6927
 2073THY    HM251822   2.679   2.837   5.946  0.4210  1.3996  1.8745
 2073THY    HM351823   2.543   2.896   6.032 -1.7307 -1.0232  0.4293
 2073THY    CA651824   2.607   3.077   5.842  0.2815  0.1196 -0.7452
 2073THY    HA651825   2.618   3.111   5.945 -1.7435 -0.8310 -0.1623
 2074THY      O51826   2.377   7.331   0.504 -0.0647 -0.1172 -0.3962
 2074THY     HO51827   2.459   7.345   0.454 -0.0216 -0.4802 -0.4339
 2074THY    CA151828   2.273   7.321   0.415  0.2344  0.0195  0.3021
 2074THY    CA251829   2.155   7.241   0.426 -0.7026 -0.1595  0.1188
 2074THY    CP151830   2.143   7.157   0.556  0.1815 -0.2804 -0.9874
 2074THY    HP151831   2.239   7.150   0.609 -0.5039 -0.5835  0.2389
 2074THY    CP251832   2.036   7.221   0.650  0.0311  0.3610  0.0058
 2074THY    HP251833   2.014   7.168   0.744 -2.9722  2.0527  0.4089
 2074THY    HP351834   2.069   7.318   0.688 -1.7253  1.0187 -0.0563
 2074THY    HP451835   1.946   7.238   0.590  0.5896 -2.7441 -1.9704
 2074THY    CP351836   2.108   7.012   0.528  0.1548  0.1289 -0.0914
 2074THY    HP551837   2.001   6.991   0.542  0.5717 -0.3359  3.0798
 2074THY    HP651838   2.148   6.981   0.431  3.1788  1.7798  0.5285
 2074THY    HP751839   2.138   6.945   0.609  1.1629 -1.5916 -1.8092
 2074THY    CA351840   2.056   7.246   0.328  0.3055 -0.3187  0.8178
 2074THY    HA351841   1.958   7.207   0.354 -1.8844  3.7433 -0.5105
 2074THY    CA451842   2.074   7.327   0.217  0.5281  0.0766 -1.3799
 2074THY    HA451843   1.988   7.347   0.153 -1.2553 -2.4297  0.0308
 2074THY    CA551844   2.186   7.403   0.204  0.4491  0.1649 -0.0618
 2074THY    CM151845   2.216   7.494   0.093  0.6212 -0.4235  0.1314
 2074THY    HM151846   2.283   7.574   0.129  0.6882 -0.1550 -0.5889
 2074THY    HM251847   2.258   7.436   0.010 -0.9876  0.4363 -1.3419
 2074THY    HM351848   2.133   7.549   0.048  1.0418 -0.5777 -0.8547
 2074THY    CA651849   2.291   7.391   0.298 -0.0270  0.1297 -0.8105
 2074THY    HA651850   2.390   7.432   0.281  0.0878 -0.1186 -0.7402
 2075THY      O51851   5.538   1.737   5.954  0.0716  0.2773  0.0547
 2075THY     HO51852   5.442   1.720   5.955  0.3670 -2.1775  3.4926
 2075THY    CA151853   5.570   1.784   6.077 -1.0405  0.5462 -0.5208
 2075THY    CA251854   5.642   1.904   6.102 -0.1817  0.6109 -0.4311
 2075THY    CP151855   5.713   1.985   5.991  0.6386  0.2738  0.1604
 2075THY    HP151856   5.672   1.931   5.904 -0.4581 -0.0255  0.8357
 2075THY    CP251857   5.677   2.129   5.986  0.7674  0.0334  0.0173
 2075THY    HP251858   5.695   2.176   6.083  1.3331 -0.9610  0.4129
 2075THY    HP351859   5.731   2.195   5.917 -1.3224  2.8799  0.9190
 2075THY    HP451860   5.569   2.137   5.967  0.3668 -3.0319  0.5509
 2075THY    CP351861   5.867   1.967   6.003  0.2464 -0.6604  0.4521
 2075THY    HP551862   5.914   2.022   5.921 -1.1598  0.6422  0.4723
 2075THY    HP651863   5.904   2.022   6.090 -0.4827  1.3507 -0.4550
 2075THY    HP751864   5.907   1.867   6.023  0.8461 -0.1866  1.6951
 2075THY    CA351865   5.662   1.941   6.237  0.4470 -0.0747  0.1984
 2075THY    HA351866   5.717   2.028   6.271  0.8163 -0.5662  0.8788
 2075THY    CA451867   5.610   1.861   6.337  0.2496 -0.2351  0.7330
 2075THY    HA451868   5.623   1.887   6.442  1.1030  2.1788  0.1084
 2075THY    CA551869   5.536   1.751   6.314 -0.0336  0.3783 -0.6514
 2075THY    CM151870   5.476   1.679   6.432  0.1922  0.2971  0.4642
 2075THY    HM151871   5.491   1.733   6.526  1.4152 -1.3248  1.2446
 2075THY    HM251872   5.368   1.665   6.420  0.1261 -0.4121  1.6660
 2075THY    HM351873   5.521   1.579   6.433  0.2372  0.3077 -0.0309
 2075THY    CA651874   5.519   1.702   6.185  0.6873 -0.3462 -0.2083
 2075THY    HA651875   5.469   1.607   6.168 -0.2905 -0.1647  1.4619
 2076THY      O51876   8.282   1.601   5.162 -0.1020 -0.3006  0.5941
 2076THY     HO51877   8.218   1.530   5.178  0.3312 -0.7697  0.2729
 2076THY    CA151878   8.383   1.599   5.252  0.2412 -0.4261  0.4931
 2076THY    CA251879   8.503   1.667   5.239 -0.2578 -0.4262  0.0011
 2076THY    CP151880   8.532   1.767   5.125 -0.7256  0.4671 -0.4841
 2076THY    HP151881   8.440   1.765   5.066 -0.7490  0.8573 -0.4636
 2076THY    CP251882   8.573   1.907   5.184  0.6108  0.3694  0.9630
 2076THY    HP251883   8.492   1.946   5.247  1.0538 -1.1344  2.5266
 2076THY    HP351884   8.667   1.897   5.240  1.5381  0.2000 -0.5530
 2076THY    HP451885   8.589   1.981   5.105 -0.3594  0.5392  0.9163
 2076THY    CP351886   8.651   1.721   5.033  0.3859  0.2698  0.2086
 2076THY    HP551887   8.668   1.814   4.977  0.3671 -0.4323 -0.9850
 2076THY    HP651888   8.737   1.685   5.092  0.3152  1.3928  1.0334
 2076THY    HP751889   8.605   1.641   4.975 -1.6290  0.7267  1.0955
 2076THY    CA351890   8.595   1.661   5.346 -0.5862 -0.4784 -0.7142
 2076THY    HA351891   8.696   1.701   5.342  0.5902 -2.9580  1.2252
 2076THY    CA451892   8.565   1.584   5.462 -0.5091  0.0567  0.0665
 2076THY    HA451893   8.641   1.582   5.540  0.7472 -0.6105 -1.1281
 2076THY    CA551894   8.443   1.517   5.467 -0.2988  0.2460 -0.9087
 2076THY    CM151895   8.408   1.438   5.589 -0.0720 -0.5560  0.5626
 2076THY    HM151896   8.471   1.462   5.676 -1.7367  1.9671  1.1895
 2076THY    HM251897   8.307   1.474   5.613  0.2936 -0.5024  2.1228
 2076THY    HM351898   8.399   1.331   5.566 -1.9838 -0.2453 -0.3571
 2076THY    CA651899   8.355   1.519   5.362 -0.0146 -0.0711 -0.5931
 2076THY    HA651900   8.260   1.471   5.382  0.0995 -0.4012 -0.8264
 2077THY      O51901   2.190   8.845   5.541  0.1801  0.0948  0.7259
 2077THY     HO51902   2.200   8.878   5.451 -0.8939 -0.4587  0.3807
 2077THY    CA151903   2.222   8.710   5.525  0.8865 -0.2706 -0.3967
 2077THY    CA251904   2.149   8.603   5.586 -0.2153  0.3156  1.2335
 2077THY    CP151905   2.044   8.634   5.690  0.1575  0.4242  0.1614
 2077THY    HP151906   1.987   8.723   5.660  0.6177  0.2026 -1.4855
 2077THY    CP251907   1.936   8.528   5.707  0.6088  0.0450 -0.0371
 2077THY    HP251908   1.873   8.507   5.620 -0.8894 -0.6927  1.1813
 2077THY    HP351909   1.966   8.429   5.742 -0.2166  0.0395  0.7000
 2077THY    HP451910   1.872   8.558   5.791 -0.5983 -0.7165 -0.6690
 2077THY    CP351911   2.112   8.653   5.821 -0.0202 -0.9358 -0.0075
 2077THY    HP551912   2.167   8.559   5.841 -1.1835 -1.9845 -1.5120
 2077THY    HP651913   2.179   8.739   5.815  0.5226 -1.4346 -1.5715
 2077THY    HP751914   2.032   8.674   5.893 -0.7616  1.8106 -1.5248
 2077THY    CA351915   2.186   8.471   5.546 -0.7213  0.3358  0.1441
 2077THY    HA351916   2.133   8.386   5.586  0.4711 -0.3000  0.3940
 2077THY    CA451917   2.282   8.446   5.451 -0.5401  0.1280  0.5468
 2077THY    HA451918   2.315   8.344   5.437 -3.6792 -0.8107 -0.8398
 2077THY    CA551919   2.345   8.558   5.392 -0.1115  0.2399  0.2775
 2077THY    CM151920   2.451   8.541   5.278 -0.0996 -0.0454  0.4196
 2077THY    HM151921   2.413   8.594   5.190 -0.1394  0.3918  0.7023
 2077THY    HM251922   2.548   8.589   5.294 -0.4015  1.3400 -1.6022
 2077THY    HM351923   2.466   8.436   5.249  1.4454  1.0258 -3.1779
 2077THY    CA651924   2.312   8.682   5.426 -0.1643 -0.2006  0.8126
 2077THY    HA651925   2.369   8.763   5.380 -0.0445 -1.3017 -1.0893
 2078THY      O51926   7.208   7.606   5.165  0.4067 -0.6273 -0.0100
 2078THY     HO51927   7.156   7.535   5.124 -0.4766 -0.2398  0.4007
 2078THY    CA151928   7.233   7.567   5.300  0.1125  0.1895  0.6955
 2078THY    CA251929   7.262   7.662   5.402 -0.1811 -0.1790 -0.1698
 2078THY    CP151930   7.280   7.808   5.361  0.3098 -0.3589  0.9254
 2078THY    HP151931   7.279   7.827   5.253 -0.4760 -0.4377  0.9097
 2078THY    CP251932   7.175   7.897   5.430 -0.6123 -0.2220  0.6117
 2078THY    HP251933   7.175   7.900   5.539 -1.0751  1.0378  0.5861
 2078THY    HP351934   7.186   7.996   5.385 -1.8608 -0.4627 -0.3057
 2078THY    HP451935   7.074   7.868   5.398 -0.2239 -0.3099 -0.5881
 2078THY    CP351936   7.418   7.871   5.400 -0.2207 -0.2050  0.6586
 2078THY    HP551937   7.454   7.849   5.502 -0.5768  1.4766  1.1828
 2078THY    HP651938   7.491   7.829   5.331  0.5353  0.9260  0.7345
 2078THY    HP751939   7.426   7.979   5.383 -1.7971 -0.3731 -1.6144
 2078THY    CA351940   7.282   7.614   5.535 -0.1594  0.1895 -0.1652
 2078THY    HA351941   7.300   7.694   5.607  0.6940  0.6690 -0.8949
 2078THY    CA451942   7.278   7.479   5.565 -0.3022 -0.3374 -0.4547
 2078THY    HA451943   7.308   7.449   5.665  2.0287  0.7301 -0.7526
 2078THY    CA551944   7.250   7.388   5.470 -0.0976  0.6828  0.4133
 2078THY    CM151945   7.249   7.243   5.494  0.8950  0.5036  0.3759
 2078THY    HM151946   7.142   7.224   5.476 -0.0450  4.5757  0.5904
 2078THY    HM251947   7.327   7.206   5.427 -0.6805  0.6573 -1.6504
 2078THY    HM351948   7.265   7.215   5.598  0.2488  2.3406  1.0232
 2078THY    CA651949   7.235   7.434   5.336 -0.2998 -0.3995  0.1244
 2078THY    HA651950   7.215   7.365   5.254  0.1167  1.0766 -1.2646
 2079THY      O51951   5.363   4.985   3.394 -0.3448  0.0898 -0.1327
 2079THY     HO51952   5.450   4.988   3.437 -0.5422 -0.6690  0.3302
 2079THY    CA151953   5.345   4.859   3.351 -0.1009 -0.1616 -0.9092
 2079THY    CA251954   5.301   4.816   3.226  0.8566 -1.2144  0.7182
 2079THY    CP151955   5.290   4.929   3.117  0.2936  0.0689 -0.5972
 2079THY    HP151956   5.360   5.011   3.136  0.8457 -0.6250  0.4626
 2079THY    CP251957   5.330   4.892   2.971 -0.0834  0.4684  0.2211
 2079THY    HP251958   5.435   4.859   2.969 -0.4001 -0.5686 -0.7353
 2079THY    HP351959   5.255   4.829   2.922 -0.8012  0.9799  0.6528
 2079THY    HP451960   5.335   4.986   2.914  4.7015  0.2117 -0.1844
 2079THY    CP351961   5.146   4.980   3.132  0.0714 -0.4370  0.9088
 2079THY    HP551962   5.067   4.905   3.119  0.7444 -1.0272  0.0586
 2079THY    HP651963   5.131   5.022   3.232  2.1890 -0.0032  1.1092
 2079THY    HP751964   5.124   5.055   3.055 -0.6263 -1.8443 -0.3196
 2079THY    CA351965   5.287   4.682   3.187  0.0561  0.7244 -0.0974
 2079THY    HA351966   5.258   4.652   3.087 -1.1898  2.6604 -0.3731
 2079THY    CA451967   5.304   4.588   3.291 -0.2244 -0.5437 -0.2781
 2079THY    HA451968   5.280   4.486   3.262 -2.2014  0.7112 -3.7400
 2079THY    CA551969   5.356   4.625   3.417  0.0270  0.1982  0.0140
 2079THY    CM151970   5.382   4.513   3.508 -0.1433  0.1903  0.2074
 2079THY    HM151971   5.383   4.414   3.460  0.8607 -1.0824  2.6232
 2079THY    HM251972   5.479   4.528   3.557  0.4472 -0.6526 -0.6751
 2079THY    HM351973   5.306   4.509   3.587 -0.5800  0.5029 -0.1978
 2079THY    CA651974   5.373   4.765   3.445 -0.0149  0.4206 -0.2134
 2079THY    HA651975   5.404   4.802   3.543  1.2327  0.2266 -0.5109
 2080THY      O51976   5.045   0.554   2.144  0.0021  0.1824 -0.7013
 2080THY     HO51977   4.993   0.549   2.062 -0.7320  1.4249 -0.3448
 2080THY    CA151978   5.167   0.514   2.108 -0.3750 -0.1092 -0.0925
 2080THY    CA251979   5.258   0.462   2.203 -0.7432 -0.1951 -0.1942
 2080THY    CP151980   5.227   0.441   2.352  0.3924  0.0240  0.6761
 2080THY    HP151981   5.120   0.454   2.368  0.3371  1.5691 -0.6577
 2080THY    CP251982   5.256   0.297   2.401 -0.7058  0.0449  0.1673
 2080THY    HP251983   5.173   0.237   2.363 -0.4089 -0.1909 -0.1222
 2080THY    HP351984   5.349   0.255   2.361  0.6343  1.9942  1.0569
 2080THY    HP451985   5.251   0.307   2.510  1.0667 -1.4401  0.4432
 2080THY    CP351986   5.288   0.554   2.430 -0.0009  0.2285  0.4941
 2080THY    HP551987   5.397   0.564   2.421 -0.0970  1.0591  0.1714
 2080THY    HP651988   5.240   0.652   2.424 -0.4789  0.0052  0.6078
 2080THY    HP751989   5.270   0.531   2.536 -0.6567  2.9941  1.0492
 2080THY    CA351990   5.391   0.435   2.151 -0.6128  0.5096  0.0234
 2080THY    HA351991   5.474   0.401   2.212  1.7763  0.6820 -2.8527
 2080THY    CA451992   5.428   0.470   2.020 -0.1724 -0.1197  0.2048
 2080THY    HA451993   5.532   0.457   1.995  0.3950  0.3695  2.1218
 2080THY    CA551994   5.331   0.523   1.930 -0.6846  0.0896 -0.0135
 2080THY    CM151995   5.375   0.546   1.783  0.3584  0.1125 -0.6737
 2080THY    HM151996   5.309   0.609   1.723  0.2831  0.4769 -0.2128
 2080THY    HM251997   5.462   0.613   1.785 -0.0912  0.8318  3.4016
 2080THY    HM351998   5.415   0.454   1.739  0.6755 -0.9893  1.7485
 2080THY    CA651999   5.206   0.551   1.979 -1.0426 -0.2826 -0.5281
 2080THY    HA652000   5.135   0.597   1.910 -0.8484 -0.2676 -0.7179
 2081THY      O52001   1.079   0.983   2.508 -0.2870 -0.2987  0.1685
 2081THY     HO52002   1.009   1.032   2.554 -0.8319  1.2033 -2.0943
 2081THY    CA152003   1.040   0.962   2.388 -0.4422 -0.2182  0.2730
 2081THY    CA252004   1.079   0.845   2.316  1.4461  0.2126 -0.5291
 2081THY    CP152005   1.166   0.737   2.383  0.2294  0.0219  0.2553
 2081THY    HP152006   1.207   0.783   2.473 -0.6154 -1.0130  1.2035
 2081THY    CP252007   1.074   0.619   2.428 -0.3886 -0.2065  0.2532
 2081THY    HP252008   1.134   0.534   2.461 -1.2669 -1.6529 -1.6750
 2081THY    HP352009   0.996   0.654   2.497  0.0732  3.6393 -0.9057
 2081THY    HP452010   1.032   0.586   2.332  2.5495  1.4479 -1.7429
 2081THY    CP352011   1.267   0.689   2.286  0.0997  0.2359  0.3128
 2081THY    HP552012   1.328   0.612   2.334  0.8625 -0.4304 -1.6202
 2081THY    HP652013   1.217   0.645   2.198 -0.2590  3.3669 -1.1823
 2081THY    HP752014   1.336   0.765   2.248 -1.4168  0.5728 -2.0167
 2081THY    CA352015   1.022   0.836   2.187 -0.1327 -0.4401  0.8153
 2081THY    HA352016   1.043   0.744   2.133 -0.5046 -0.9394  1.5028
 2081THY    CA452017   0.939   0.938   2.137  0.4922  0.1498  0.4118
 2081THY    HA452018   0.898   0.929   2.037 -0.7951 -0.1603  0.9497
 2081THY    CA552019   0.902   1.055   2.216 -0.1360  0.6993  0.0917
 2081THY    CM152020   0.811   1.163   2.155 -0.2573 -0.1124  0.4068
 2081THY    HM152021   0.741   1.199   2.232  0.1160 -0.6941  1.0346
 2081THY    HM252022   0.871   1.246   2.119 -0.5317  1.0081  2.3616
 2081THY    HM352023   0.754   1.128   2.068  1.3675 -2.7662  0.2876
 2081THY    CA652024   0.962   1.063   2.340 -0.4918  0.4532 -0.2238
 2081THY    HA652025   0.932   1.147   2.402 -0.4352  2.7055 -3.0588
 2082THY      O52026   1.826   3.225   0.037  0.4840  0.2112  0.1540
 2082THY     HO52027   1.876   3.239   0.119 -1.6956 -1.5786  1.9191
 2082THY    CA152028   1.702   3.275   0.062  0.2837 -0.5415  0.1282
 2082THY    CA252029   1.589   3.243  -0.014  0.2012  0.3362  0.0250
 2082THY    CP152030   1.608   3.150  -0.143  0.1747  0.0767  0.3023
 2082THY    HP152031   1.682   3.075  -0.111  0.3942  0.5411  0.9254
 2082THY    CP252032   1.482   3.075  -0.192  0.5305  0.1700  0.2159
 2082THY    HP252033   1.436   3.023  -0.107  0.9567  3.5129  2.6759
 2082THY    HP352034   1.398   3.132  -0.231 -1.5252 -3.2799 -0.8117
 2082THY    HP452035   1.504   3.008  -0.276  0.0244  1.2690 -0.8263
 2082THY    CP352036   1.683   3.230  -0.246  0.6025 -0.8014 -0.0818
 2082THY    HP552037   1.782   3.267  -0.219  0.4343 -1.3230  1.3891
 2082THY    HP652038   1.684   3.178  -0.343 -0.3573 -0.5471 -0.2422
 2082THY    HP752039   1.619   3.316  -0.270 -0.8170 -2.4808 -2.8609
 2082THY    CA352040   1.473   3.325  -0.005 -0.0047 -0.2486 -0.3260
 2082THY    HA352041   1.387   3.313  -0.071 -0.7143  0.5133  0.4348
 2082THY    CA452042   1.475   3.434   0.080  1.1329  0.1487 -1.0534
 2082THY    HA452043   1.396   3.508   0.085  0.8243 -0.1129 -1.9047
 2082THY    CA552044   1.587   3.457   0.156 -0.1505 -0.2744  0.1019
 2082THY    CM152045   1.586   3.585   0.237 -0.5343 -0.5905  0.1934
 2082THY    HM152046   1.516   3.657   0.192 -0.0968 -0.8137 -0.8739
 2082THY    HM252047   1.551   3.575   0.341 -0.4138  1.7345  0.5189
 2082THY    HM352048   1.684   3.633   0.240 -0.2909 -1.0948  0.2817
 2082THY    CA652049   1.703   3.379   0.157  0.3004  0.4560 -0.1892
 2082THY    HA652050   1.788   3.415   0.214 -0.3659 -0.5068  1.4924
 2083THY      O52051   2.646   7.982   4.189 -0.2931 -0.2919 -0.2071
 2083THY     HO52052   2.553   8.012   4.193 -1.1241 -2.5166 -1.1224
 2083THY    CA152053   2.650   7.875   4.104 -0.3443 -1.1829 -0.0062
 2083THY    CA252054   2.763   7.800   4.083  0.5234 -0.1841 -0.4926
 2083THY    CP152055   2.885   7.839   4.172 -0.0222 -0.4237 -0.2352
 2083THY    HP152056   2.856   7.917   4.244 -0.7034 -1.4678  0.6420
 2083THY    CP252057   2.942   7.718   4.254 -0.0144 -0.3197 -0.3887
 2083THY    HP252058   2.967   7.633   4.189  1.4500  0.2225 -0.5566
 2083THY    HP352059   3.029   7.743   4.315 -0.5515 -0.3201  0.3914
 2083THY    HP452060   2.865   7.690   4.327  0.2591  0.5094  0.2316
 2083THY    CP352061   2.995   7.905   4.094  0.0979  0.7898  0.3808
 2083THY    HP552062   3.061   7.968   4.154  0.5879  2.1472 -1.4857
 2083THY    HP652063   3.051   7.829   4.037 -1.3384 -2.4379  2.9351
 2083THY    HP752064   2.962   7.981   4.023  1.3165 -0.5895 -1.7804
 2083THY    CA352065   2.756   7.706   3.976 -0.5269 -0.1737 -0.4594
 2083THY    HA352066   2.849   7.653   3.954  0.0370 -0.7664  2.7239
 2083THY    CA452067   2.642   7.695   3.903  0.2065  0.6629 -1.0218
 2083THY    HA452068   2.632   7.627   3.820 -2.3100  0.7780 -0.8852
 2083THY    CA552069   2.527   7.770   3.932 -0.6478  0.1910 -0.3790
 2083THY    CM152070   2.402   7.754   3.850 -0.1191 -0.4703 -0.4193
 2083THY    HM152071   2.343   7.847   3.856  0.9192  0.4528 -3.1793
 2083THY    HM252072   2.425   7.751   3.743 -0.0499  0.8390 -0.4641
 2083THY    HM352073   2.341   7.671   3.888 -1.2567  0.9976  1.1066
 2083THY    CA652074   2.529   7.860   4.031 -1.2354 -0.6565 -0.4152
 2083THY    HA652075   2.439   7.914   4.063  0.1543  1.0102  0.8856
 2084THY      O52076   8.421   4.194   4.944 -0.1298  0.0849 -0.1327
 2084THY     HO52077   8.476   4.149   5.009  1.5217  0.8625 -0.9407
 2084THY    CA152078   8.345   4.102   4.876 -0.6044  0.2813  0.1587
 2084THY    CA252079   8.349   4.086   4.738  0.3958  0.3779  0.6843
 2084THY    CP152080   8.444   4.175   4.646 -0.3149 -0.1236 -0.6369
 2084THY    HP152081   8.493   4.254   4.704  2.4560 -3.1025  1.4378
 2084THY    CP252082   8.547   4.093   4.571  0.3822 -0.3301 -0.7238
 2084THY    HP252083   8.511   4.011   4.507  0.2926 -1.2462  0.4631
 2084THY    HP352084   8.624   4.153   4.523  1.5264  0.9619  2.4579
 2084THY    HP452085   8.609   4.045   4.647 -1.0028  0.9367  1.3165
 2084THY    CP352086   8.359   4.253   4.549  0.2685 -0.0668 -0.4594
 2084THY    HP552087   8.285   4.317   4.598 -1.8495 -2.1903 -0.6766
 2084THY    HP652088   8.419   4.331   4.501  0.1411 -0.3926 -1.1608
 2084THY    HP752089   8.315   4.191   4.469 -0.0870  0.6832 -0.8545
 2084THY    CA352090   8.273   3.985   4.680  0.4690  0.3547 -0.1337
 2084THY    HA352091   8.269   3.974   4.572  0.6928  1.3344 -0.2603
 2084THY    CA452092   8.214   3.896   4.756  0.3885  0.6636 -0.5112
 2084THY    HA452093   8.166   3.807   4.715  2.9924 -1.7127  1.1820
 2084THY    CA552094   8.218   3.900   4.892 -0.3649 -0.7194 -0.5139
 2084THY    CM152095   8.142   3.795   4.971 -0.0486  0.4339  0.0455
 2084THY    HM152096   8.035   3.801   4.949 -0.0945  1.5392  0.5421
 2084THY    HM252097   8.169   3.691   4.950  1.1113  0.4826  1.1819
 2084THY    HM352098   8.158   3.820   5.076  0.5013 -0.5750  0.2128
 2084THY    CA652099   8.273   4.016   4.955 -0.6027 -0.1570 -0.0780
 2084THY    HA652100   8.286   4.017   5.063  1.7376  3.1367 -0.2115
 2085THY      O52101   2.603   8.081   4.710 -0.3444 -0.2536 -0.1503
 2085THY     HO52102   2.676   8.045   4.657 -1.6354 -1.3933 -1.2489
 2085THY    CA152103   2.662   8.120   4.830  0.4892  0.8204  0.0112
 2085THY    CA252104   2.606   8.213   4.912  0.5926 -0.2956 -1.1419
 2085THY    CP152105   2.478   8.286   4.877  0.9992 -0.6966  0.0827
 2085THY    HP152106   2.454   8.252   4.776  2.4901 -0.2580 -0.4504
 2085THY    CP252107   2.365   8.256   4.978 -0.5184 -0.4303  0.3439
 2085THY    HP252108   2.397   8.289   5.077  1.2641  0.6104 -0.5216
 2085THY    HP352109   2.268   8.299   4.953 -0.9961 -0.5256  1.9112
 2085THY    HP452110   2.349   8.148   4.972 -0.0063 -0.5025  0.2148
 2085THY    CP352111   2.490   8.445   4.875  0.7228  0.1158  0.4236
 2085THY    HP552112   2.396   8.483   4.834  0.1282 -0.9781  0.7266
 2085THY    HP652113   2.491   8.478   4.979 -0.8430  0.8281  0.2497
 2085THY    HP752114   2.579   8.478   4.819  1.3908 -1.1604  0.6964
 2085THY    CA352115   2.665   8.239   5.036 -1.2143  0.5095 -0.1289
 2085THY    HA352116   2.616   8.304   5.108 -0.4960 -1.3762  2.1814
 2085THY    CA452117   2.783   8.163   5.080 -0.1946 -0.6128  0.0932
 2085THY    HA452118   2.831   8.189   5.174  0.6117  3.7543 -1.3169
 2085THY    CA552119   2.840   8.074   4.991 -0.0210  0.2092 -0.0121
 2085THY    CM152120   2.967   7.997   5.034  0.2848 -0.3164 -0.2435
 2085THY    HM152121   3.022   7.944   4.956  1.5302  0.4355  0.0978
 2085THY    HM252122   3.035   8.072   5.075  1.6796 -1.9295  0.5420
 2085THY    HM352123   2.949   7.934   5.122 -0.0005  0.4414  0.2500
 2085THY    CA652124   2.779   8.049   4.862  0.6290 -0.6489 -0.2271
 2085THY    HA652125   2.817   7.969   4.800 -0.9599  1.0994 -3.7913
 2086THY      O52126   3.926   3.726   2.357  0.3142 -0.3103  0.1598
 2086THY     HO52127   3.887   3.719   2.268  2.0268  2.4649 -0.9437
 2086THY    CA152128   4.047   3.670   2.334 -0.0102 -0.6229 -0.3876
 2086THY    CA252129   4.114   3.600   2.434  0.2107  0.9431 -0.1813
 2086THY    CP152130   4.053   3.591   2.577  0.8253 -0.0798  0.2282
 2086THY    HP152131   3.998   3.681   2.606  0.4931  0.6054 -2.2471
 2086THY    CP252132   3.974   3.459   2.600  0.4123  0.0024 -1.0394
 2086THY    HP252133   3.876   3.451   2.550 -0.6507 -0.6890  1.0492
 2086THY    HP352134   4.030   3.372   2.565  2.9700  0.1511  2.2397
 2086THY    HP452135   3.969   3.440   2.708  0.6186 -2.2088 -1.3730
 2086THY    CP352136   4.169   3.588   2.674 -1.0623  0.7455 -0.4652
 2086THY    HP552137   4.251   3.650   2.637 -0.8866 -0.0416 -1.4362
 2086THY    HP652138   4.137   3.626   2.772 -1.7821  0.7386 -0.6887
 2086THY    HP752139   4.206   3.486   2.690 -2.7446  0.1577 -0.0767
 2086THY    CA352140   4.235   3.529   2.400  0.2961 -0.4668 -0.3346
 2086THY    HA352141   4.291   3.487   2.482  0.0880  3.9614  2.4021
 2086THY    CA452142   4.285   3.531   2.265  0.3759  0.1111 -1.1779
 2086THY    HA452143   4.374   3.473   2.242  0.1848 -1.8026  2.2143
 2086THY    CA552144   4.211   3.603   2.168  0.6224 -0.3119  0.3518
 2086THY    CM152145   4.260   3.603   2.028 -0.1528 -0.0566  0.7944
 2086THY    HM152146   4.294   3.702   1.996  1.1979 -0.9558 -0.6997
 2086THY    HM252147   4.346   3.535   2.023 -0.1280  0.0682 -2.2337
 2086THY    HM352148   4.176   3.562   1.971 -0.0880  1.0542 -0.1281
 2086THY    CA652149   4.098   3.671   2.207 -0.0709 -0.9589 -0.8475
 2086THY    HA652150   4.042   3.719   2.127 -0.1649  0.4268  0.0153
 2087THY      O52151   2.176   3.264   4.545  0.0543 -0.2058 -0.1180
 2087THY     HO52152   2.217   3.195   4.490  0.6405  0.9517 -1.1732
 2087THY    CA152153   2.164   3.372   4.464 -0.2983 -0.1220 -0.0452
 2087THY    CA252154   2.048   3.446   4.444  0.8866 -0.9162  0.6613
 2087THY    CP152155   1.914   3.393   4.494 -0.1568 -0.4745 -0.1541
 2087THY    HP152156   1.919   3.292   4.538 -1.0282 -0.8251 -0.8104
 2087THY    CP252157   1.864   3.476   4.609  0.6425 -0.2950  0.0782
 2087THY    HP252158   1.941   3.497   4.684 -0.8612 -0.0044  1.5977
 2087THY    HP352159   1.837   3.575   4.569  3.1753  0.4454  0.0336
 2087THY    HP452160   1.776   3.441   4.665  0.8177 -1.5039 -0.3841
 2087THY    CP352161   1.802   3.382   4.390  0.5477 -0.4006  0.3955
 2087THY    HP552162   1.830   3.318   4.306 -3.3936 -1.5754 -0.2439
 2087THY    HP652163   1.717   3.331   4.436 -0.3102  0.6796  0.0558
 2087THY    HP752164   1.767   3.477   4.346  0.1198 -0.8705 -0.3009
 2087THY    CA352165   2.045   3.562   4.362 -0.3199 -0.1525 -0.4824
 2087THY    HA352166   1.948   3.609   4.352  0.1752  1.1992  0.6815
 2087THY    CA452167   2.160   3.604   4.304 -0.1548 -0.3387 -1.0188
 2087THY    HA452168   2.145   3.696   4.249  0.3626 -0.4703 -1.3860
 2087THY    CA552169   2.277   3.530   4.320 -0.4066  0.0247 -0.0101
 2087THY    CM152170   2.410   3.585   4.271 -0.2741  0.4857 -0.1524
 2087THY    HM152171   2.496   3.517   4.266 -1.0910 -0.4832 -1.5616
 2087THY    HM252172   2.403   3.618   4.166 -2.4251 -0.3851 -0.3277
 2087THY    HM352173   2.431   3.682   4.319  0.7084  1.5989 -2.6508
 2087THY    CA652174   2.280   3.413   4.407 -0.9366  0.1776  0.7359
 2087THY    HA652175   2.372   3.359   4.427 -1.2175 -0.6230 -0.0868
 2088THY      O52176   0.534   8.270   5.165 -0.0870 -0.1265 -0.1922
 2088THY     HO52177   0.510   8.277   5.071  2.0123 -2.2015 -0.9756
 2088THY    CA152178   0.632   8.354   5.203 -0.4273 -0.0352 -0.4501
 2088THY    CA252179   0.680   8.359   5.329  0.6159  0.2567  0.1110
 2088THY    CP152180   0.615   8.270   5.437 -0.2852 -0.3077 -0.5534
 2088THY    HP152181   0.572   8.179   5.394 -2.7344 -1.0174  2.9415
 2088THY    CP252182   0.721   8.232   5.543 -0.9364  0.3419  0.5647
 2088THY    HP252183   0.807   8.188   5.491  0.0698  1.7701  0.9638
 2088THY    HP352184   0.756   8.326   5.587 -0.3938 -0.1763  1.2649
 2088THY    HP452185   0.673   8.172   5.621 -0.8479 -0.3490  0.0977
 2088THY    CP352186   0.491   8.344   5.500 -0.5633 -0.1541 -0.0524
 2088THY    HP552187   0.439   8.286   5.576 -0.3585  0.1359  0.3098
 2088THY    HP652188   0.527   8.435   5.549 -0.1079 -0.7044  0.6360
 2088THY    HP752189   0.423   8.378   5.421 -1.4764 -0.2087  0.6989
 2088THY    CA352190   0.766   8.462   5.363 -0.5345 -0.2883 -0.1483
 2088THY    HA352191   0.796   8.484   5.465  0.5579  1.0609 -0.7338
 2088THY    CA452192   0.812   8.554   5.265  0.1020  0.7125 -0.0481
 2088THY    HA452193   0.878   8.636   5.292 -0.5125  1.3800 -0.5451
 2088THY    CA552194   0.767   8.535   5.134 -0.1353 -0.0572  0.5288
 2088THY    CM152195   0.808   8.634   5.025 -0.6869  0.2886  0.3144
 2088THY    HM152196   0.916   8.650   5.020 -0.7385  1.1690  1.5848
 2088THY    HM252197   0.766   8.609   4.927  1.0405  1.5559 -0.7940
 2088THY    HM352198   0.764   8.725   5.067 -0.2621  0.5697  0.1612
 2088THY    CA652199   0.679   8.436   5.105  0.2355 -0.9722 -0.2316
 2088THY    HA652200   0.645   8.428   5.002  2.4592  0.1376 -1.1197
 2089THY      O52201   0.486   5.003   6.924  0.2074 -0.1140  0.8151
 2089THY     HO52202   0.405   4.980   6.876 -1.6922 -0.6713  4.0322
 2089THY    CA152203   0.536   5.120   6.869  0.8982 -0.0904  0.2696
 2089THY    CA252204   0.612   5.213   6.942  0.1632 -0.2917 -0.3309
 2089THY    CP152205   0.668   5.183   7.080  0.6758  0.0848 -0.0441
 2089THY    HP152206   0.617   5.094   7.119 -0.1305  0.8855  0.7790
 2089THY    CP252207   0.812   5.151   7.055  0.4443 -0.2179  0.6618
 2089THY    HP252208   0.811   5.067   6.984 -0.0812  0.2879  0.0621
 2089THY    HP352209   0.859   5.236   7.006 -0.9303  0.2030  0.0171
 2089THY    HP452210   0.860   5.110   7.145 -0.2203 -1.3239  0.5381
 2089THY    CP352211   0.640   5.298   7.181 -0.8240 -0.2042  0.0701
 2089THY    HP552212   0.701   5.386   7.158 -0.3805 -0.5011  0.1078
 2089THY    HP652213   0.535   5.330   7.175 -1.1631 -0.3949  3.3884
 2089THY    HP752214   0.654   5.267   7.285 -1.6694 -0.8139  0.0110
 2089THY    CA352215   0.651   5.336   6.875  0.0169 -0.6003 -0.5569
 2089THY    HA352216   0.699   5.416   6.931 -3.3349  0.6165  0.8173
 2089THY    CA452217   0.616   5.359   6.744  0.4614  0.6731 -0.6361
 2089THY    HA452218   0.660   5.448   6.700  1.5281  0.8073  0.6240
 2089THY    CA552219   0.538   5.267   6.674 -0.5672  0.1722  0.2216
 2089THY    CM152220   0.509   5.293   6.524 -0.7971  0.1561 -0.1402
 2089THY    HM152221   0.533   5.392   6.484 -3.6526  0.9256 -0.1954
 2089THY    HM252222   0.572   5.222   6.469  0.0688  1.0415 -0.3041
 2089THY    HM352223   0.402   5.281   6.504 -1.2100  1.1811  1.2706
 2089THY    CA652224   0.492   5.155   6.741  0.0695  0.0896  0.3928
 2089THY    HA652225   0.431   5.082   6.687  0.0953  0.2959  0.0805
 2090THY      O52226   3.436   5.147   7.923 -0.1198  0.6717 -0.0127
 2090THY     HO52227   3.469   5.104   8.003 -1.5910 -1.5365 -0.5165
 2090THY    CA152228   3.376   5.045   7.852  0.2617 -0.2494 -0.3817
 2090THY    CA252229   3.377   5.042   7.709  0.2944 -0.1659 -0.3512
 2090THY    CP152230   3.451   5.143   7.617  0.3721  1.0322 -0.1367
 2090THY    HP152231   3.492   5.230   7.670 -0.6300  2.5437 -1.7428
 2090THY    CP252232   3.574   5.082   7.548  0.3818  0.3096 -0.2456
 2090THY    HP252233   3.551   4.992   7.491 -0.2321 -1.4839  2.5968
 2090THY    HP352234   3.623   5.157   7.485 -0.4274  2.8751  1.9707
 2090THY    HP452235   3.642   5.051   7.629  0.7076 -1.9692 -1.3179
 2090THY    CP352236   3.347   5.203   7.514  0.0862  0.5969  0.4055
 2090THY    HP552237   3.255   5.215   7.572  0.8747  0.0491  1.8250
 2090THY    HP652238   3.394   5.298   7.485  1.3196 -0.4756 -1.3224
 2090THY    HP752239   3.321   5.138   7.430  0.0429  0.7152  0.3276
 2090THY    CA352240   3.302   4.937   7.654  0.5016 -0.4669  0.4084
 2090THY    HA352241   3.302   4.930   7.546  1.5829  0.7809  0.2973
 2090THY    CA452242   3.232   4.841   7.739 -0.3977  0.4144  0.2758
 2090THY    HA452243   3.174   4.769   7.682  0.6357  0.2464 -0.6199
 2090THY    CA552244   3.236   4.848   7.877 -0.1365 -0.2015 -0.0835
 2090THY    CM152245   3.155   4.753   7.955  0.4359 -0.7681 -0.7999
 2090THY    HM152246   3.046   4.758   7.943  0.4672 -2.0537 -1.9392
 2090THY    HM252247   3.182   4.648   7.934  0.0352 -1.0096 -0.1341
 2090THY    HM352248   3.172   4.759   8.063 -3.4257 -1.0693 -0.0468
 2090THY    CA652249   3.317   4.944   7.935  0.4150  0.5735 -0.0623
 2090THY    HA652250   3.319   4.939   8.043  1.0702 -3.7158 -0.1290
 2091THY      O52251   1.717   2.595   5.415  0.0948  0.1968  0.2704
 2091THY     HO52252   1.632   2.616   5.372 -1.8555 -1.9609  2.7585
 2091THY    CA152253   1.707   2.461   5.436  0.3588 -0.0128  0.2498
 2091THY    CA252254   1.812   2.387   5.498  0.0835 -0.4642 -0.0745
 2091THY    CP152255   1.939   2.464   5.535 -0.4334 -0.1132  0.5256
 2091THY    HP152256   1.938   2.573   5.524  2.0227 -0.0264  0.6760
 2091THY    CP252257   1.994   2.445   5.676  0.0666 -0.2591 -0.3076
 2091THY    HP252258   2.059   2.531   5.692 -0.5737 -0.1877  2.4322
 2091THY    HP352259   1.909   2.461   5.743 -3.0692 -0.4514 -3.8813
 2091THY    HP452260   2.036   2.345   5.693  0.8062 -0.5004 -3.1132
 2091THY    CP352261   2.054   2.419   5.446 -0.5531  0.4324 -0.2167
 2091THY    HP552262   2.104   2.326   5.477  1.8099  1.7771  0.2226
 2091THY    HP652263   2.005   2.397   5.350  1.3930 -0.2051 -1.1175
 2091THY    HP752264   2.126   2.502   5.440 -0.7515  0.5409 -1.1958
 2091THY    CA352265   1.801   2.248   5.511 -0.2840 -0.1714 -0.4477
 2091THY    HA352266   1.881   2.196   5.563 -0.7048 -1.4598 -1.0486
 2091THY    CA452267   1.686   2.183   5.463 -0.4084  0.3124  0.3939
 2091THY    HA452268   1.671   2.077   5.479 -2.8126  0.2040 -1.9847
 2091THY    CA552269   1.582   2.257   5.407 -0.0006  0.1325 -0.2884
 2091THY    CM152270   1.454   2.198   5.355 -1.0042 -0.3937 -0.1081
 2091THY    HM152271   1.389   2.278   5.317  1.1852  2.1291  1.1306
 2091THY    HM252272   1.483   2.121   5.284 -0.8287  0.2533 -0.7457
 2091THY    HM352273   1.403   2.139   5.432  0.8524 -1.0254  0.6804
 2091THY    CA652274   1.596   2.395   5.396  0.6925 -0.3980  0.2754
 2091THY    HA652275   1.521   2.456   5.346  2.2853 -0.9429 -3.0244
 2092THY      O52276   0.175   2.641   9.116 -0.7849 -0.0054 -0.5460
 2092THY     HO52277   0.186   2.615   9.209 -2.2397 -1.8973 -0.8464
 2092THY    CA152278   0.158   2.772   9.125  0.2005  0.0307  0.0726
 2092THY    CA252279   0.164   2.859   9.018 -0.6130  0.6895 -0.2156
 2092THY    CP152280   0.189   2.814   8.865 -0.9052  0.0494  0.5210
 2092THY    HP152281   0.256   2.728   8.881 -0.7579  0.1953  0.6928
 2092THY    CP252282   0.057   2.768   8.792 -0.0253 -0.7785 -0.1028
 2092THY    HP252283  -0.013   2.851   8.775  2.2628  1.7268  1.9647
 2092THY    HP352284   0.074   2.725   8.692  0.9443 -0.5855 -0.0251
 2092THY    HP452285   0.009   2.688   8.848 -1.4977 -1.6326 -2.4289
 2092THY    CP352286   0.276   2.906   8.783  0.1169  0.0334  0.0046
 2092THY    HP552287   0.335   2.850   8.709 -0.6885  1.2445 -1.6298
 2092THY    HP652288   0.213   2.989   8.749  0.9185  1.1690  1.2102
 2092THY    HP752289   0.340   2.944   8.863 -0.2382  0.9467 -0.1319
 2092THY    CA352290   0.117   2.991   9.040 -0.1651 -0.5411  1.1600
 2092THY    HA352291   0.111   3.055   8.954  0.1513  0.7019  2.0389
 2092THY    CA452292   0.080   3.038   9.169  0.1354 -0.8687  0.6336
 2092THY    HA452293   0.041   3.139   9.181  2.2084  0.1320 -0.4867
 2092THY    CA552294   0.087   2.950   9.279  0.1629  0.1781  0.0203
 2092THY    CM152295   0.029   2.988   9.418 -0.4295 -0.2078  0.1006
 2092THY    HM152296   0.098   3.055   9.471 -0.5061  0.8350 -1.0702
 2092THY    HM252297  -0.068   3.038   9.409 -0.6362 -0.6455 -0.1559
 2092THY    HM352298   0.010   2.901   9.481 -0.5522  0.8462  1.5729
 2092THY    CA652299   0.121   2.817   9.253  0.4021 -0.0065  0.4847
 2092THY    HA652300   0.118   2.747   9.336  1.2551 -0.9676 -0.2727
 2093THY      O52301   4.697   0.474   2.245  0.5189  0.1816 -0.3216
 2093THY     HO52302   4.688   0.567   2.272 -0.7456 -0.0507  0.1060
 2093THY    CA152303   4.761   0.416   2.344 -0.6323  0.9172 -0.4083
 2093THY    CA252304   4.793   0.279   2.342 -0.0729 -0.0064 -0.0952
 2093THY    CP152305   4.762   0.192   2.226  0.0694  0.3132 -0.1048
 2093THY    HP152306   4.690   0.234   2.154 -1.0604  2.7172  2.2231
 2093THY    CP252307   4.888   0.160   2.136 -0.3132 -0.2844  0.2271
 2093THY    HP252308   4.845   0.108   2.049  0.7363 -0.5132 -0.1724
 2093THY    HP352309   4.939   0.252   2.106 -1.3726  0.6831  1.2760
 2093THY    HP452310   4.967   0.097   2.178  1.1792 -1.2819 -3.6618
 2093THY    CP352311   4.701   0.057   2.273  0.3682  0.1565 -0.7203
 2093THY    HP552312   4.635   0.070   2.359  0.7673  0.1506 -0.4111
 2093THY    HP652313   4.641   0.018   2.189  0.2838  0.0093 -0.5918
 2093THY    HP752314   4.783  -0.015   2.287  0.0518 -0.0794 -0.0242
 2093THY    CA352315   4.865   0.230   2.454  0.4807  0.1266  0.3852
 2093THY    HA352316   4.892   0.125   2.457 -2.3011 -0.6662  1.7435
 2093THY    CA452317   4.909   0.311   2.553 -0.3234  0.0489  0.0166
 2093THY    HA452318   4.967   0.274   2.637 -0.3717  1.1471  0.5548
 2093THY    CA552319   4.874   0.442   2.556  0.1883 -0.0617  0.2444
 2093THY    CM152320   4.915   0.531   2.672 -0.0880 -0.4233 -0.3921
 2093THY    HM152321   4.889   0.637   2.667 -0.6273 -0.3063  2.7912
 2093THY    HM252322   4.873   0.479   2.759 -0.3246  0.9867  0.3616
 2093THY    HM352323   5.024   0.536   2.687 -0.2267 -0.5809  0.7520
 2093THY    CA652324   4.801   0.498   2.448 -0.0383  1.0637 -0.2484
 2093THY    HA652325   4.772   0.602   2.452 -2.6459  0.3778  0.5359
 2094THY      O52326   8.998   2.393   9.822  0.0279 -0.2035  0.1462
 2094THY     HO52327   8.969   2.472   9.773 -0.1046 -2.1374 -3.2091
 2094THY    CA152328   9.132   2.410   9.839 -0.2314  0.6012 -1.3037
 2094THY    CA252329   9.206   2.316   9.912  0.6198  1.2001  0.4365
 2094THY    CP152330   9.135   2.196   9.982  0.2967 -0.1540 -1.0252
 2094THY    HP152331   9.031   2.194   9.947 -0.3626 -1.2517  0.8557
 2094THY    CP252332   9.174   2.055   9.938 -0.4937 -0.4581 -0.4045
 2094THY    HP252333   9.249   2.017  10.009 -1.6367 -0.7889  0.6590
 2094THY    HP352334   9.088   1.987   9.940 -1.6977  0.9147 -2.2029
 2094THY    HP452335   9.217   2.074   9.839 -2.8445  1.1149 -1.2027
 2094THY    CP352336   9.121   2.209  10.138 -0.4065  0.2374 -0.0652
 2094THY    HP552337   9.219   2.225  10.183 -0.2302  0.5588 -0.5481
 2094THY    HP652338   9.056   2.294  10.162  0.5843  0.5888  1.5044
 2094THY    HP752339   9.069   2.125  10.185 -1.5743  0.4877 -0.8428
 2094THY    CA352340   9.344   2.338   9.939  1.0265  0.4415 -0.5303
 2094THY    HA352341   9.396   2.258   9.992 -2.0573 -0.6959  0.9837
 2094THY    CA452342   9.402   2.453   9.890  0.2120  0.0868 -0.2216
 2094THY    HA452343   9.511   2.457   9.892  0.2409 -0.7457  0.8122
 2094THY    CA552344   9.325   2.544   9.814 -0.0115 -0.0513  0.1556
 2094THY    CM152345   9.375   2.666   9.751 -0.1183 -0.2931  0.0412
 2094THY    HM152346   9.465   2.692   9.809  0.1755  2.5119 -1.4784
 2094THY    HM252347   9.420   2.652   9.653  2.0278  0.1094  0.9068
 2094THY    HM352348   9.308   2.753   9.748  0.4323  0.1264 -0.2360
 2094THY    CA652349   9.187   2.526   9.802 -0.9722  0.4491  0.4906
 2094THY    HA652350   9.131   2.600   9.746  2.2436  2.6120 -0.1666
 2095THY      O52351   3.794   6.502   2.120 -0.2553 -0.5022  0.2433
 2095THY     HO52352   3.697   6.494   2.114 -0.4445  1.8723 -0.9687
 2095THY    CA152353   3.824   6.429   2.225 -0.0551 -0.5548  0.0090
 2095THY    CA252354   3.951   6.393   2.264 -0.5461  0.2025 -0.1780
 2095THY    CP152355   4.073   6.443   2.189  0.2710 -0.0805  0.0246
 2095THY    HP152356   4.048   6.474   2.086  1.7192 -0.9655 -0.6206
 2095THY    CP252357   4.131   6.566   2.257 -0.0865 -0.1063  1.3159
 2095THY    HP252358   4.192   6.616   2.180 -0.9308  0.1096  0.7662
 2095THY    HP352359   4.058   6.645   2.277  0.7180  1.2256 -0.6475
 2095THY    HP452360   4.175   6.539   2.353  1.3132  0.0844  0.7517
 2095THY    CP352361   4.192   6.340   2.166  0.5014  0.2431 -0.5340
 2095THY    HP552362   4.236   6.317   2.264 -0.9970  3.0995  0.9106
 2095THY    HP652363   4.156   6.245   2.126  1.5827  0.2771 -1.6618
 2095THY    HP752364   4.283   6.380   2.118  1.6321 -1.7190 -0.1669
 2095THY    CA352365   3.969   6.311   2.376 -0.2520  0.4513 -0.0562
 2095THY    HA352366   4.069   6.279   2.407 -1.0674 -2.5828 -0.1712
 2095THY    CA452367   3.857   6.266   2.443 -0.3599 -0.1282 -0.1691
 2095THY    HA452368   3.876   6.193   2.522  1.9883 -1.4927 -1.8533
 2095THY    CA552369   3.730   6.307   2.407  0.2784 -0.2816  0.5179
 2095THY    CM152370   3.616   6.267   2.489  0.3641  0.2951  0.2347
 2095THY    HM152371   3.606   6.306   2.591 -2.8998 -2.0531  0.9818
 2095THY    HM252372   3.529   6.300   2.432  0.4443 -0.3258 -0.2546
 2095THY    HM352373   3.605   6.158   2.486  2.1052  0.0640  0.8584
 2095THY    CA652374   3.711   6.390   2.298  0.6940 -0.6481  0.0961
 2095THY    HA652375   3.613   6.438   2.287  0.6360 -0.5332  1.0483
 2096THY      O52376   5.749   7.756   1.692 -0.3749  0.2940 -0.1583
 2096THY     HO52377   5.722   7.698   1.619 -2.0753 -1.0322  1.4252
 2096THY    CA152378   5.652   7.775   1.785 -0.3698  0.1723  0.4758
 2096THY    CA252379   5.683   7.735   1.917  0.6595  0.6322  0.2385
 2096THY    CP152380   5.821   7.705   1.955  0.1242 -0.2017 -0.2718
 2096THY    HP152381   5.892   7.751   1.885 -0.5366  0.0312 -0.8019
 2096THY    CP252382   5.877   7.763   2.082  0.2982  0.4125  0.3134
 2096THY    HP252383   5.986   7.760   2.071  0.3416  1.4534  0.4036
 2096THY    HP352384   5.837   7.864   2.097  0.2910  0.2601  1.4018
 2096THY    HP452385   5.832   7.694   2.155 -0.7170  1.0213  0.2888
 2096THY    CP352386   5.848   7.558   1.952  0.2977 -0.5356 -0.5169
 2096THY    HP552387   5.947   7.531   1.992 -0.6603 -1.8201  1.1279
 2096THY    HP652388   5.782   7.502   2.020  3.1406 -3.3593  0.1812
 2096THY    HP752389   5.837   7.506   1.857 -1.3650 -3.4377  1.1149
 2096THY    CA352390   5.579   7.744   2.013  0.5273  0.3596  0.1614
 2096THY    HA352391   5.607   7.718   2.115  2.6864  1.7336 -0.0184
 2096THY    CA452392   5.460   7.805   1.977 -0.4512  0.6125  0.2931
 2096THY    HA452393   5.380   7.825   2.048  0.3953  1.7043  0.9760
 2096THY    CA552394   5.427   7.828   1.845 -0.0970 -0.0797  0.7974
 2096THY    CM152395   5.292   7.875   1.796  0.4905  0.0929 -0.3990
 2096THY    HM152396   5.226   7.878   1.883 -0.5445 -2.6447 -0.9942
 2096THY    HM252397   5.291   7.973   1.747 -0.3139  0.7590  0.8881
 2096THY    HM352398   5.244   7.807   1.725  1.3386 -0.0222 -0.8770
 2096THY    CA652399   5.522   7.801   1.745  0.7305  0.7681 -0.7872
 2096THY    HA652400   5.493   7.815   1.641  0.9301  0.7254 -0.8493
 2097THY      O52401   3.169   2.164   4.732  0.4566 -0.4342 -0.4561
 2097THY     HO52402   3.173   2.232   4.801 -1.2487 -1.6386  0.9082
 2097THY    CA152403   3.096   2.199   4.627  0.1373 -0.4345 -0.0851
 2097THY    CA252404   3.053   2.107   4.530  0.5773  0.1140 -0.7776
 2097THY    CP152405   3.082   1.954   4.551 -0.1740  0.2711  1.1142
 2097THY    HP152406   3.093   1.930   4.657  0.1662 -1.9392  0.6307
 2097THY    CP252407   2.986   1.843   4.497 -0.6247 -0.1781 -0.0383
 2097THY    HP252408   2.885   1.872   4.529  0.1746  0.0383  2.5515
 2097THY    HP352409   2.992   1.828   4.389  3.6748  1.0364 -0.1514
 2097THY    HP452410   3.010   1.752   4.553 -0.1853  0.3847  0.7053
 2097THY    CP352411   3.223   1.922   4.502  0.4835 -0.2023  0.2913
 2097THY    HP552412   3.230   1.942   4.394  1.3209 -1.1018  0.1693
 2097THY    HP652413   3.300   1.986   4.547  3.8067 -2.0344 -2.3640
 2097THY    HP752414   3.242   1.817   4.525  0.0155 -0.5106 -0.6488
 2097THY    CA352415   2.963   2.158   4.431 -0.5487  0.4522 -0.3650
 2097THY    HA352416   2.935   2.091   4.349  2.2797  0.9772 -1.8866
 2097THY    CA452417   2.921   2.292   4.428  0.0992 -0.2327  0.3648
 2097THY    HA452418   2.855   2.327   4.349  0.5133  0.4925  0.3369
 2097THY    CA552419   2.961   2.381   4.527  0.6049 -0.1623  0.1878
 2097THY    CM152420   2.911   2.519   4.525  0.8774  0.3834 -0.3879
 2097THY    HM152421   2.969   2.575   4.600  2.7777 -1.0312 -0.7293
 2097THY    HM252422   2.932   2.573   4.433  1.7641 -1.5086 -1.3404
 2097THY    HM352423   2.803   2.522   4.549  0.7931 -0.2839 -0.6811
 2097THY    CA652424   3.056   2.330   4.619  0.4330 -0.7332  0.7258
 2097THY    HA652425   3.074   2.403   4.696 -1.6265  0.3635  0.2439
 2098THY      O52426   8.618   4.645   9.940 -0.6686  0.1284 -0.2594
 2098THY     HO52427   8.679   4.676   9.870  0.8858  2.7283  2.0443
 2098THY    CA152428   8.491   4.675   9.903 -0.4027  0.2443  0.3400
 2098THY    CA252429   8.384   4.598   9.949 -0.1087  0.4543 -0.0793
 2098THY    CP152430   8.415   4.478  10.046 -0.7987 -0.3026 -0.1922
 2098THY    HP152431   8.517   4.444  10.031  0.2826  1.8318  1.6474
 2098THY    CP252432   8.415   4.519  10.189  0.1233 -0.6801 -0.6325
 2098THY    HP252433   8.321   4.571  10.212  1.1382  0.3302  1.4772
 2098THY    HP352434   8.443   4.442  10.261  0.2845 -0.4356 -0.4340
 2098THY    HP452435   8.493   4.593  10.211 -0.3026 -0.3171 -0.3204
 2098THY    CP352436   8.339   4.352  10.015 -1.3734 -0.0225 -0.0910
 2098THY    HP552437   8.359   4.314   9.914 -0.2000 -0.5997  0.3351
 2098THY    HP652438   8.378   4.274  10.082 -0.1907  2.1142  1.8684
 2098THY    HP752439   8.232   4.373  10.027 -1.5469 -1.4008  1.1527
 2098THY    CA352440   8.248   4.622   9.908  0.5335 -0.0561  0.5982
 2098THY    HA352441   8.164   4.563   9.941 -0.0599  1.7021  2.4556
 2098THY    CA452442   8.235   4.733   9.818  0.2517 -0.2764  0.3072
 2098THY    HA452443   8.134   4.753   9.783 -0.6300 -1.7063  1.9024
 2098THY    CA552444   8.343   4.802   9.765 -0.1206 -1.2544  0.0435
 2098THY    CM152445   8.322   4.904   9.661  0.1550  0.1053 -0.3597
 2098THY    HM152446   8.391   4.875   9.581  2.0636 -1.0607  1.5906
 2098THY    HM252447   8.219   4.899   9.622 -0.3185  0.1243  0.8292
 2098THY    HM352448   8.347   5.004   9.699  1.7363 -0.8085  1.1230
 2098THY    CA652449   8.475   4.770   9.805  0.0258 -0.8004  0.0120
 2098THY    HA652450   8.566   4.801   9.754 -0.1751  0.4667  0.3909
 2099THY      O52451   9.744   5.924   4.330 -0.2115 -0.4927  0.6330
 2099THY     HO52452   9.830   5.925   4.284  0.6010 -1.5578  2.0510
 2099THY    CA152453   9.757   5.830   4.422  0.1634 -0.8541 -0.0093
 2099THY    CA252454   9.718   5.854   4.557 -0.4822 -0.4777 -0.4038
 2099THY    CP152455   9.667   5.992   4.601 -0.6534 -0.6174  0.3841
 2099THY    HP152456   9.623   6.038   4.512 -2.6067 -3.6418 -0.3974
 2099THY    CP252457   9.547   5.993   4.707  1.4018  0.3999 -0.3195
 2099THY    HP252458   9.459   5.940   4.670  2.0999 -0.4226 -0.8492
 2099THY    HP352459   9.576   5.962   4.808  0.5558 -0.6239 -0.3867
 2099THY    HP452460   9.522   6.100   4.715 -0.7886  0.0623 -1.8146
 2099THY    CP352461   9.777   6.077   4.654 -0.3218 -0.7064 -0.5160
 2099THY    HP552462   9.865   6.087   4.590  0.2967  1.8529  0.5868
 2099THY    HP652463   9.739   6.178   4.673 -0.4030 -0.7815 -0.2657
 2099THY    HP752464   9.806   6.042   4.754  1.2857  2.3474  0.2055
 2099THY    CA352465   9.715   5.744   4.642  0.6740  0.6294  0.5325
 2099THY    HA352466   9.682   5.753   4.745  2.1785 -1.2898  1.2508
 2099THY    CA452467   9.757   5.611   4.598  0.3697  0.2358 -0.5067
 2099THY    HA452468   9.756   5.530   4.671 -1.0563 -1.1311 -1.9541
 2099THY    CA552469   9.780   5.596   4.462  0.5690  0.3386 -0.1451
 2099THY    CM152470   9.828   5.465   4.416 -0.5240  0.4373 -0.2519
 2099THY    HM152471   9.817   5.444   4.309 -1.6775  1.2993 -0.3137
 2099THY    HM252472   9.927   5.441   4.457 -0.8955  0.0473  0.4253
 2099THY    HM352473   9.762   5.390   4.461 -0.1906  0.4157  0.2158
 2099THY    CA652474   9.787   5.707   4.375 -0.5414 -0.0662  0.5484
 2099THY    HA652475   9.807   5.691   4.270 -0.5418  0.9872  0.3798
 2100THY      O52476   5.859   1.777   8.370  0.0052  0.7222  0.4901
 2100THY     HO52477   5.799   1.799   8.298 -0.2049  0.0616  0.4579
 2100THY    CA152478   5.902   1.649   8.360 -1.1808 -0.5497 -0.2691
 2100THY    CA252479   5.940   1.579   8.478  0.0122 -0.5198 -0.5509
 2100THY    CP152480   5.927   1.646   8.626 -0.2032 -0.8715  0.2687
 2100THY    HP152481   5.919   1.754   8.611 -1.4524 -0.7976  1.3713
 2100THY    CP252482   5.801   1.601   8.697 -0.4501 -0.0822  0.8298
 2100THY    HP252483   5.816   1.495   8.724  1.9761  0.5712  2.3215
 2100THY    HP352484   5.779   1.655   8.790 -1.2558 -0.4346  0.8576
 2100THY    HP452485   5.713   1.616   8.633  0.7426  2.4479 -0.3122
 2100THY    CP352486   6.050   1.623   8.710 -0.4807 -0.2219 -0.3071
 2100THY    HP552487   6.032   1.667   8.809 -1.7641  1.1183 -1.0977
 2100THY    HP652488   6.075   1.520   8.738  1.2715  0.0162 -0.8454
 2100THY    HP752489   6.140   1.652   8.654 -0.9119 -1.8960 -1.9627
 2100THY    CA352490   5.976   1.447   8.471 -0.1266 -0.0940  0.0572
 2100THY    HA352491   6.021   1.390   8.553  0.8940 -2.6355 -2.1288
 2100THY    CA452492   5.981   1.377   8.349 -0.2722 -0.2558  0.1945
 2100THY    HA452493   6.032   1.283   8.332 -1.4651 -0.6086 -1.7068
 2100THY    CA552494   5.940   1.444   8.226 -0.3983  0.2931  0.1920
 2100THY    CM152495   5.952   1.380   8.088  0.7633  0.0243 -0.2910
 2100THY    HM152496   6.030   1.432   8.031 -0.5479  0.6188 -1.6029
 2100THY    HM252497   5.982   1.275   8.099  0.1371 -0.0942  0.3926
 2100THY    HM352498   5.857   1.390   8.034  0.9505 -1.8835 -1.0323
 2100THY    CA652499   5.894   1.576   8.239  0.2518 -0.5079 -0.1465
 2100THY    HA652500   5.856   1.625   8.149 -0.0605 -1.1426 -0.3646
 2101THY      O52501   2.845   0.271   6.510 -0.2906  0.2323 -0.6119
 2101THY     HO52502   2.850   0.219   6.592  0.7649  0.9074 -0.2210
 2101THY    CA152503   2.753   0.364   6.549  0.7615 -0.7511  0.6027
 2101THY    CA252504   2.691   0.460   6.457 -1.0247  0.4456 -0.4905
 2101THY    CP152505   2.732   0.464   6.308  0.4223  0.2527 -0.3739
 2101THY    HP152506   2.775   0.365   6.289 -0.9646 -0.2458 -1.0305
 2101THY    CP252507   2.615   0.473   6.206 -0.2056  0.0878 -0.8750
 2101THY    HP252508   2.552   0.384   6.218 -0.7073  0.7046  1.6465
 2101THY    HP352509   2.558   0.567   6.213 -1.5638 -0.8395  1.4909
 2101THY    HP452510   2.664   0.479   6.109  1.8273  2.7915  0.1968
 2101THY    CP352511   2.843   0.564   6.276  0.4966 -0.0004 -0.4712
 2101THY    HP552512   2.821   0.660   6.324  3.0310  0.4766 -0.1358
 2101THY    HP652513   2.929   0.516   6.324 -0.3171 -1.1821 -0.1509
 2101THY    HP752514   2.875   0.578   6.172  1.5090 -2.1123 -0.4997
 2101THY    CA352515   2.600   0.558   6.503  0.0381  0.9436 -0.6497
 2101THY    HA352516   2.554   0.635   6.442 -1.2869  1.5638  1.0430
 2101THY    CA452517   2.552   0.546   6.631  0.4333 -0.0936  0.5446
 2101THY    HA452518   2.471   0.611   6.663 -1.6720 -2.0243 -0.5698
 2101THY    CA552519   2.604   0.449   6.716  0.6837  0.0383 -0.7290
 2101THY    CM152520   2.542   0.438   6.859  0.4064 -0.1705  0.2750
 2101THY    HM152521   2.603   0.482   6.939  2.0215 -1.2108 -0.3255
 2101THY    HM252522   2.441   0.481   6.862 -0.4074 -2.0490  1.4309
 2101THY    HM352523   2.521   0.335   6.888  2.5103 -0.1257  2.2090
 2101THY    CA652524   2.709   0.367   6.678  0.5507  1.0664 -0.4232
 2101THY    HA652525   2.740   0.293   6.751 -0.0114  1.9937  0.7874
 2102THY      O52526   6.695   3.661   1.173  0.1299 -0.1495 -0.1324
 2102THY     HO52527   6.703   3.607   1.254 -0.2817  0.6998  0.4922
 2102THY    CA152528   6.557   3.684   1.170  0.3639  0.8144  0.2832
 2102THY    CA252529   6.496   3.777   1.093 -0.2073  0.1557  0.0476
 2102THY    CP152530   6.580   3.836   0.982 -0.5823 -0.1294 -0.0140
 2102THY    HP152531   6.686   3.812   0.968 -0.6271 -0.4510  0.1890
 2102THY    CP252532   6.522   3.808   0.836 -0.0914  0.0449  0.0755
 2102THY    HP252533   6.466   3.715   0.819 -1.9044  1.0534  0.3039
 2102THY    HP352534   6.444   3.881   0.812  0.5592  1.3830  1.8611
 2102THY    HP452535   6.588   3.819   0.749 -0.6009 -0.5711 -0.3991
 2102THY    CP352536   6.597   3.991   1.010  0.5811  0.0635 -0.3065
 2102THY    HP552537   6.496   4.034   1.014  0.6103  0.0566  0.6368
 2102THY    HP652538   6.636   4.006   1.111 -3.6476  0.0722  1.5528
 2102THY    HP752539   6.667   4.041   0.942 -0.9669  1.3208 -1.0357
 2102THY    CA352540   6.357   3.795   1.092  0.1374  0.5707 -0.1427
 2102THY    HA352541   6.315   3.865   1.020  1.9953  1.3969 -0.4599
 2102THY    CA452542   6.281   3.724   1.187  0.7526 -0.1752  0.2639
 2102THY    HA452543   6.174   3.744   1.186  0.7086 -0.4118 -0.6010
 2102THY    CA552544   6.348   3.636   1.279  1.1289 -0.6967  0.3073
 2102THY    CM152545   6.274   3.563   1.381 -0.0081  0.3366 -0.7359
 2102THY    HM152546   6.290   3.596   1.484 -3.0849  1.0356 -0.4062
 2102THY    HM252547   6.169   3.588   1.363  0.6717  4.2663 -0.1576
 2102THY    HM352548   6.298   3.456   1.376  0.1958  0.0908  2.9228
 2102THY    CA652549   6.485   3.615   1.272 -0.5811 -0.2547  0.5347
 2102THY    HA652550   6.533   3.547   1.341 -0.8052 -0.5171  0.4310
 2103THY      O52551   3.476   0.420   2.765 -0.7172  0.3623  0.0580
 2103THY     HO52552   3.480   0.384   2.856  0.7305  0.5607  0.0885
 2103THY    CA152553   3.612   0.440   2.739  0.1696  0.5908 -0.0231
 2103THY    CA252554   3.657   0.540   2.651 -0.1390 -0.2028 -0.3179
 2103THY    CP152555   3.558   0.628   2.584 -0.4367 -0.4361  0.4390
 2103THY    HP152556   3.471   0.636   2.651 -1.0244  0.0948 -0.3721
 2103THY    CP252557   3.616   0.777   2.575 -0.6954 -0.8464  0.0684
 2103THY    HP252558   3.541   0.835   2.520 -1.4500 -3.4541 -1.8685
 2103THY    HP352559   3.650   0.830   2.664  2.9815  0.7089 -2.0237
 2103THY    HP452560   3.706   0.779   2.512 -1.2340  0.0889 -0.6958
 2103THY    CP352561   3.496   0.578   2.449  0.1792 -0.0066 -0.6402
 2103THY    HP552562   3.580   0.573   2.377  0.9678  0.0166  0.2619
 2103THY    HP652563   3.446   0.480   2.454 -0.9184  0.6198  2.5192
 2103THY    HP752564   3.421   0.650   2.415  0.8029  1.7928  1.5402
 2103THY    CA352565   3.793   0.547   2.625  0.7214  0.4244 -0.5232
 2103THY    HA352566   3.835   0.608   2.546  4.0585  0.2483  0.9351
 2103THY    CA452567   3.886   0.470   2.699  0.0915  0.1335  0.4872
 2103THY    HA452568   3.993   0.474   2.684  0.2021 -2.1952  0.1773
 2103THY    CA552569   3.842   0.373   2.789  0.1405 -0.8410  0.9966
 2103THY    CM152570   3.937   0.300   2.877 -0.2079 -1.2216 -0.0993
 2103THY    HM152571   3.940   0.199   2.835 -0.2047 -1.9239  1.4961
 2103THY    HM252572   4.037   0.344   2.873 -0.2968 -1.1037 -1.2446
 2103THY    HM352573   3.903   0.304   2.982  1.0198 -1.4256  0.3237
 2103THY    CA652574   3.710   0.350   2.805  0.1507 -0.3092 -0.1899
 2103THY    HA652575   3.677   0.284   2.885  2.3302  1.2320  2.1357
 2104THY      O52576   7.424   8.185   9.424  0.1906  0.3587  0.0307
 2104THY     HO52577   7.472   8.225   9.498 -0.9319 -0.0676  1.0104
 2104THY    CA152578   7.302   8.183   9.458  0.1606 -0.2582 -0.4380
 2104THY    CA252579   7.195   8.191   9.370 -0.7766 -0.6496 -0.2370
 2104THY    CP152580   7.234   8.215   9.220  0.0636 -0.3878 -0.2777
 2104THY    HP152581   7.321   8.282   9.219 -0.9617  0.9913 -0.4019
 2104THY    CP252582   7.261   8.075   9.157  0.3200 -0.1696  0.4560
 2104THY    HP252583   7.358   8.035   9.189 -0.9849 -1.3858  3.3461
 2104THY    HP352584   7.177   8.014   9.193  0.1696 -0.9971 -1.1886
 2104THY    HP452585   7.256   8.082   9.048 -1.7182 -1.1125  0.4377
 2104THY    CP352586   7.115   8.273   9.138  0.2053  0.4204 -0.2357
 2104THY    HP552587   7.033   8.200   9.131 -0.2493  1.0583 -3.4636
 2104THY    HP652588   7.083   8.368   9.182 -1.2242  0.1886 -0.7205
 2104THY    HP752589   7.137   8.295   9.033 -0.8357  0.9155 -0.3641
 2104THY    CA352590   7.055   8.181   9.418 -0.0142  0.2474  0.5033
 2104THY    HA352591   6.964   8.183   9.359  0.0360 -1.3044  0.3417
 2104THY    CA452592   7.032   8.164   9.551  0.3604 -0.6370 -0.1021
 2104THY    HA452593   6.933   8.145   9.589 -0.2388 -0.4792 -1.5316
 2104THY    CA552594   7.133   8.160   9.642 -0.6578 -0.0631 -0.4695
 2104THY    CM152595   7.097   8.143   9.790 -0.4463  0.3737  0.5781
 2104THY    HM152596   7.001   8.188   9.817  0.6467  2.2536  1.5940
 2104THY    HM252597   7.105   8.045   9.838  1.1550  0.0686 -0.2579
 2104THY    HM352598   7.158   8.220   9.840  1.0434 -1.5244  1.8172
 2104THY    CA652599   7.270   8.173   9.601 -0.0496  0.3306  0.2076
 2104THY    HA652600   7.355   8.158   9.668  0.2354  1.2615  0.0774
 2105THY      O52601   4.276   0.314   9.855 -0.1148 -0.6512  0.5916
 2105THY     HO52602   4.295   0.306   9.950 -1.3294 -0.8337  0.8380
 2105THY    CA152603   4.395   0.319   9.791  0.5574 -0.2436 -0.0292
 2105THY    CA252604   4.410   0.259   9.663 -0.0004  0.0499  0.7262
 2105THY    CP152605   4.286   0.210   9.574 -0.7741 -0.5695 -0.1457
 2105THY    HP152606   4.190   0.224   9.624 -0.8381 -0.0566 -0.3990
 2105THY    CP252607   4.286   0.293   9.447 -0.2463  0.3279 -0.9833
 2105THY    HP252608   4.192   0.271   9.394  0.5025 -2.3262 -1.3441
 2105THY    HP352609   4.283   0.400   9.473 -1.4584 -0.4044  2.4743
 2105THY    HP452610   4.368   0.270   9.378  0.3481 -0.4229 -0.0398
 2105THY    CP352611   4.283   0.058   9.556  0.3140  0.3943 -0.3645
 2105THY    HP552612   4.329   0.013   9.645  1.6727  4.5939  1.2968
 2105THY    HP652613   4.176   0.034   9.547 -0.2811  2.0406  1.4770
 2105THY    HP752614   4.330   0.026   9.463  2.9118  0.7396  0.7479
 2105THY    CA352615   4.539   0.240   9.618  0.4051 -0.1049  0.6980
 2105THY    HA352616   4.553   0.184   9.526 -0.4507 -2.8889  2.1526
 2105THY    CA452617   4.653   0.282   9.688 -0.0060 -0.1961 -0.1495
 2105THY    HA452618   4.753   0.261   9.650 -0.5155 -0.6644 -1.2787
 2105THY    CA552619   4.629   0.339   9.815 -0.3577 -0.5771  0.3550
 2105THY    CM152620   4.749   0.386   9.900 -0.3143 -0.4878 -0.4606
 2105THY    HM152621   4.814   0.464   9.857  2.0097 -1.2698  1.3809
 2105THY    HM252622   4.716   0.430   9.995  0.4934 -2.5538  0.8465
 2105THY    HM352623   4.822   0.305   9.912 -0.7900 -0.7573  0.7438
 2105THY    CA652624   4.497   0.352   9.868 -0.0939  0.4329  0.0588
 2105THY    HA652625   4.488   0.370   9.974  0.0221  2.7768 -0.2795
 2106THY      O52626   9.877   3.970   4.758 -0.4954  0.1288 -0.1021
 2106THY     HO52627   9.889   4.059   4.794  0.1274 -0.3550  0.9059
 2106THY    CA152628   9.755   3.974   4.692 -0.6383  0.2438 -0.0953
 2106THY    CA252629   9.711   3.865   4.616 -0.0213  0.8195  0.3959
 2106THY    CP152630   9.789   3.734   4.610 -0.0989  0.0202 -0.6003
 2106THY    HP152631   9.831   3.720   4.710  1.5599  0.4655 -1.2120
 2106THY    CP252632   9.702   3.613   4.573 -0.1481  0.1870  0.0273
 2106THY    HP252633   9.608   3.620   4.629  0.1851  0.6580  0.5327
 2106THY    HP352634   9.677   3.614   4.466 -2.1710  0.0437  0.4527
 2106THY    HP452635   9.757   3.519   4.581 -2.2484 -1.1142  0.0390
 2106THY    CP352636   9.913   3.740   4.522  1.1353  0.6572  0.2000
 2106THY    HP552637   9.965   3.644   4.527 -0.3766 -0.2236 -0.1450
 2106THY    HP652638   9.895   3.756   4.415  0.3126 -1.9093 -0.1126
 2106THY    HP752639   9.986   3.813   4.558  1.3045  0.6589 -0.1421
 2106THY    CA352640   9.592   3.883   4.537  0.3668  0.0904 -0.5653
 2106THY    HA352641   9.546   3.802   4.481 -2.2078 -0.8819  2.6316
 2106THY    CA452642   9.532   4.006   4.528  0.2197 -0.8050 -0.0156
 2106THY    HA452643   9.448   4.018   4.460  1.1930  2.1313 -0.8522
 2106THY    CA552644   9.581   4.115   4.610  0.5630  0.0594  0.2065
 2106THY    CM152645   9.531   4.257   4.589 -0.1662 -0.0064 -0.7556
 2106THY    HM152646   9.612   4.331   4.586 -0.5617  0.5541  1.3478
 2106THY    HM252647   9.494   4.267   4.486 -2.1246 -0.6940 -0.1634
 2106THY    HM352648   9.449   4.285   4.656  0.1496 -0.7349 -0.0563
 2106THY    CA652649   9.694   4.097   4.690  0.7108 -0.1243 -0.2963
 2106THY    HA652650   9.736   4.182   4.742 -0.0747  3.2324 -4.5224
 2107THY      O52651   9.893   1.794   8.549 -0.0676  0.4930  0.0468
 2107THY     HO52652   9.860   1.767   8.462 -4.3072  1.9481  0.9408
 2107THY    CA152653   9.787   1.857   8.593  0.5748 -0.3438 -0.3304
 2107THY    CA252654   9.781   1.909   8.723  0.3704  0.4084  0.0457
 2107THY    CP152655   9.888   1.887   8.823 -0.2509  0.6841  0.5881
 2107THY    HP152656   9.955   1.802   8.805  2.1346  2.5806  0.0179
 2107THY    CP252657   9.994   2.006   8.819  0.4241 -0.7529 -0.5156
 2107THY    HP252658  10.092   1.977   8.856 -0.4134  0.6080  3.2113
 2107THY    HP352659   9.999   2.044   8.716 -1.3202 -1.0213 -0.7334
 2107THY    HP452660   9.964   2.087   8.886 -0.3907 -2.6954  1.6126
 2107THY    CP352661   9.842   1.868   8.963 -0.1452  0.6437 -0.3652
 2107THY    HP552662   9.779   1.779   8.958 -0.9325  1.2525 -1.7706
 2107THY    HP652663   9.930   1.842   9.024  1.4513 -0.3085 -2.8874
 2107THY    HP752664   9.780   1.948   9.005 -0.5765 -0.6774  1.6154
 2107THY    CA352665   9.668   1.992   8.750 -0.1911 -0.6202  0.6218
 2107THY    HA352666   9.662   2.036   8.849  3.0760  0.0415  0.6403
 2107THY    CA452667   9.560   2.000   8.657 -0.3123  0.0522  0.5412
 2107THY    HA452668   9.473   2.062   8.673 -0.7966 -0.0624 -1.4613
 2107THY    CA552669   9.569   1.941   8.532  0.1788  0.3819 -0.1503
 2107THY    CM152670   9.450   1.959   8.438  0.4278 -0.0370 -0.3000
 2107THY    HM152671   9.487   2.039   8.373  0.3847  0.4719  0.2878
 2107THY    HM252672   9.427   1.867   8.383 -1.5469 -0.0461  0.4856
 2107THY    HM352673   9.353   1.987   8.480 -0.1539 -1.0266 -0.9494
 2107THY    CA652674   9.682   1.871   8.501  0.0727  0.2482  0.2061
 2107THY    HA652675   9.688   1.829   8.401 -0.5822  0.9593 -0.1459
 2108THY      O52676   1.995   5.055   4.157  0.5226  0.3179 -0.2663
 2108THY     HO52677   1.971   5.144   4.128  0.4766  0.9506  1.5688
 2108THY    CA152678   2.087   5.071   4.254  0.0568 -0.1620  0.8555
 2108THY    CA252679   2.194   4.985   4.271 -0.2283 -0.3053  0.2535
 2108THY    CP152680   2.202   4.859   4.176 -0.0461 -0.1308 -0.2572
 2108THY    HP152681   2.125   4.859   4.098 -0.0658 -1.5112 -0.2674
 2108THY    CP252682   2.336   4.860   4.113 -0.0868  0.2312 -0.4634
 2108THY    HP252683   2.363   4.962   4.083 -1.1319  0.9287  0.8560
 2108THY    HP352684   2.413   4.833   4.186 -0.0127 -0.7037 -0.8661
 2108THY    HP452685   2.346   4.786   4.032 -2.1982 -1.3360  0.6040
 2108THY    CP352686   2.191   4.737   4.270 -0.0018  0.0241 -0.0148
 2108THY    HP552687   2.101   4.741   4.333  0.3474 -0.5620  0.5389
 2108THY    HP652688   2.176   4.648   4.207  1.2477 -0.5932  0.5186
 2108THY    HP752689   2.276   4.724   4.338 -0.3940  2.2219  0.9699
 2108THY    CA352690   2.286   5.002   4.377 -0.2553 -0.4077  0.1664
 2108THY    HA352691   2.377   4.944   4.388 -0.9160 -1.6563 -0.6743
 2108THY    CA452692   2.270   5.108   4.468  0.0101  0.2133  0.6860
 2108THY    HA452693   2.335   5.110   4.554 -0.6621 -0.4597  1.2216
 2108THY    CA552694   2.147   5.184   4.461 -0.7883 -0.2084  0.3636
 2108THY    CM152695   2.116   5.287   4.568 -0.1220  0.1167  0.0657
 2108THY    HM152696   2.010   5.307   4.583  0.3502  1.7483  1.5290
 2108THY    HM252697   2.147   5.243   4.663 -1.2651  1.3950  1.0611
 2108THY    HM352698   2.178   5.378   4.560  1.7198 -1.0929 -0.1824
 2108THY    CA652699   2.057   5.169   4.355  0.1732  0.3875 -0.0833
 2108THY    HA652700   1.964   5.225   4.347  0.0605  0.0908 -0.9665
 2109THY      O52701   5.946   7.084   6.945  0.1085 -0.3964 -0.7104
 2109THY     HO52702   5.891   7.013   6.908 -0.2971 -1.4166  1.6336
 2109THY    CA152703   5.913   7.078   7.079 -0.4740  0.2028 -0.1635
 2109THY    CA252704   5.918   7.195   7.155  0.1459 -0.0928  0.4397
 2109THY    CP152705   5.978   7.329   7.107  0.1204  0.3224  0.1301
 2109THY    HP152706   6.035   7.303   7.017 -0.6348  0.3239 -0.3627
 2109THY    CP252707   5.867   7.428   7.058 -0.4789 -0.0885  0.1996
 2109THY    HP252708   5.803   7.367   6.995  0.7082  0.3618 -1.5125
 2109THY    HP352709   5.813   7.480   7.138  1.9074  0.4380  1.5775
 2109THY    HP452710   5.909   7.509   6.997  0.8319 -1.0045 -0.1584
 2109THY    CP352711   6.077   7.395   7.203 -0.2659 -0.4146  0.3994
 2109THY    HP552712   6.023   7.455   7.277  0.8963  0.0950  0.8475
 2109THY    HP652713   6.137   7.327   7.265 -2.1767 -2.2224  0.3856
 2109THY    HP752714   6.143   7.465   7.151 -0.8324  0.5330  0.9252
 2109THY    CA352715   5.873   7.171   7.291  0.3923 -0.4649 -0.7050
 2109THY    HA352716   5.869   7.261   7.351  0.8101 -0.2587 -0.9864
 2109THY    CA452717   5.807   7.056   7.338  0.1008  0.0486 -0.4295
 2109THY    HA452718   5.762   7.046   7.436  0.4730 -0.4218 -0.3040
 2109THY    CA552719   5.802   6.945   7.260  0.3810  0.2320  0.4849
 2109THY    CM152720   5.744   6.821   7.303 -0.1107 -0.5608 -0.3806
 2109THY    HM152721   5.691   6.829   7.399 -1.9172 -2.0345 -1.1844
 2109THY    HM252722   5.661   6.784   7.242 -1.2377  1.9078 -0.4956
 2109THY    HM352723   5.827   6.751   7.307  1.3212  1.0190 -1.1997
 2109THY    CA652724   5.863   6.950   7.133 -0.1513  0.0758 -0.4105
 2109THY    HA652725   5.858   6.869   7.061 -0.1726  0.4858 -0.8767
 2110THY      O52726   4.526   2.339   1.802  0.2450 -0.4369 -0.5225
 2110THY     HO52727   4.451   2.401   1.792 -0.4176 -1.0672  0.3783
 2110THY    CA152728   4.628   2.407   1.865 -0.0472  0.0585 -0.5526
 2110THY    CA252729   4.719   2.338   1.951 -0.6716 -0.3605 -0.5794
 2110THY    CP152730   4.699   2.186   1.972 -0.3146 -0.3735  0.0514
 2110THY    HP152731   4.669   2.134   1.880 -0.7130 -0.5147  0.2585
 2110THY    CP252732   4.831   2.118   1.987  0.1143  0.6995 -0.2746
 2110THY    HP252733   4.816   2.010   1.978  1.4120  0.6030 -1.7134
 2110THY    HP352734   4.905   2.145   1.910 -1.8130  0.5565 -2.2470
 2110THY    HP452735   4.872   2.134   2.088  0.1020  0.2986 -0.2034
 2110THY    CP352736   4.587   2.141   2.073 -0.1834 -1.4157 -0.4525
 2110THY    HP552737   4.577   2.032   2.079  1.0550 -1.4744  1.9726
 2110THY    HP652738   4.617   2.177   2.172  1.0287  0.8862 -1.5702
 2110THY    HP752739   4.489   2.185   2.050 -0.2909 -1.4664 -0.0983
 2110THY    CA352740   4.812   2.413   2.029  0.4717 -0.0568  0.3231
 2110THY    HA352741   4.870   2.368   2.109  0.5414 -0.2926  0.1424
 2110THY    CA452742   4.806   2.550   2.016 -0.0708  0.3449 -0.3103
 2110THY    HA452743   4.872   2.610   2.077 -2.1292  0.6378  1.7801
 2110THY    CA552744   4.725   2.619   1.930  0.3718 -0.5283  0.5007
 2110THY    CM152745   4.712   2.772   1.947  0.1611 -0.0918  0.1399
 2110THY    HM152746   4.803   2.814   1.903  0.7662 -2.4570 -1.0664
 2110THY    HM252747   4.628   2.812   1.889  0.3043 -0.1176 -0.0844
 2110THY    HM352748   4.708   2.804   2.052  0.3148  1.9007 -0.4195
 2110THY    CA652749   4.630   2.549   1.854 -0.2564  0.2047 -0.0243
 2110THY    HA652750   4.543   2.600   1.813 -0.9329  0.1488  1.2837
 2111THY      O52751   8.160   5.989   1.029  0.3025  0.0970 -0.2961
 2111THY     HO52752   8.113   6.074   1.026 -0.7386 -0.4720 -0.6822
 2111THY    CA152753   8.235   5.986   1.142 -0.9007 -0.2570 -0.2595
 2111THY    CA252754   8.346   5.899   1.160 -0.5886  0.0150 -0.4513
 2111THY    CP152755   8.384   5.795   1.055 -0.4405  0.7563 -0.1669
 2111THY    HP152756   8.337   5.826   0.960 -1.6051  0.9371  0.4526
 2111THY    CP252757   8.535   5.789   1.024 -0.3071  0.7435  0.0505
 2111THY    HP252758   8.602   5.771   1.109 -0.3494 -0.2986 -0.1200
 2111THY    HP352759   8.548   5.696   0.967 -0.9902 -0.6867  2.1368
 2111THY    HP452760   8.573   5.878   0.972  0.3410 -0.0668 -0.9046
 2111THY    CP352761   8.327   5.653   1.080 -0.4726  0.0222 -0.0188
 2111THY    HP552762   8.347   5.584   0.997  1.2117  1.3968 -0.8012
 2111THY    HP652763   8.358   5.606   1.174 -2.7071  0.2163  0.8818
 2111THY    HP752764   8.218   5.662   1.085 -0.5952 -0.4825 -1.2626
 2111THY    CA352765   8.412   5.890   1.283 -0.1917  0.2341  0.1108
 2111THY    HA352766   8.502   5.828   1.290 -0.4873 -0.2026  0.1153
 2111THY    CA452767   8.363   5.968   1.389 -0.0154  0.2322 -0.4544
 2111THY    HA452768   8.392   5.949   1.492  0.1856 -1.7589 -0.8226
 2111THY    CA552769   8.262   6.061   1.359 -0.3947 -0.1113 -1.2441
 2111THY    CM152770   8.208   6.143   1.477  1.1259  0.5988 -0.8315
 2111THY    HM152771   8.120   6.203   1.451  0.3478 -0.4562 -0.6893
 2111THY    HM252772   8.183   6.076   1.560  0.9604 -0.3864 -1.6600
 2111THY    HM352773   8.290   6.197   1.525  0.3952 -2.1372  4.2147
 2111THY    CA652774   8.196   6.076   1.243 -0.5195  0.5632  0.7053
 2111THY    HA652775   8.115   6.146   1.228 -0.6257  0.6878  1.7582
 2112THY      O52776   6.730   4.023   5.175  0.2992  0.0774 -0.2639
 2112THY     HO52777   6.676   3.963   5.229  1.1755 -0.1355  0.4072
 2112THY    CA152778   6.832   4.077   5.251  0.6915  0.5708  0.0011
 2112THY    CA252779   6.946   4.125   5.192  0.0813 -0.6373 -0.0593
 2112THY    CP152780   6.965   4.100   5.047  0.7240  0.8995 -0.2908
 2112THY    HP152781   6.873   4.077   4.993  1.7521  1.3195 -2.3039
 2112THY    CP252782   7.020   4.225   4.972 -0.0764  0.5519  0.8436
 2112THY    HP252783   7.051   4.203   4.869 -0.2443  2.5739  0.3330
 2112THY    HP352784   6.948   4.307   4.975  0.1387  0.7241  1.7236
 2112THY    HP452785   7.116   4.258   5.013 -0.1426  3.4756 -1.1236
 2112THY    CP352786   7.067   3.982   5.028  0.0559 -0.1653  0.7757
 2112THY    HP552787   7.069   3.944   4.925  2.6288  3.0303 -0.5199
 2112THY    HP652788   7.165   4.023   5.054  0.6428  0.1112 -1.5871
 2112THY    HP752789   7.051   3.906   5.105  2.0330 -1.4135  0.0306
 2112THY    CA352790   7.050   4.169   5.277  0.3104  0.9446  0.6962
 2112THY    HA352791   7.139   4.221   5.242  0.9924 -0.2973  0.5311
 2112THY    CA452792   7.027   4.177   5.410 -0.1057  0.3380 -0.0264
 2112THY    HA452793   7.099   4.228   5.474 -2.5033 -0.3993  3.5279
 2112THY    CA552794   6.909   4.124   5.465  0.5249 -0.5789  0.1121
 2112THY    CM152795   6.884   4.137   5.613  0.2970 -0.8035 -0.2656
 2112THY    HM152796   6.919   4.234   5.650  0.5112 -1.6912  1.9796
 2112THY    HM252797   6.776   4.127   5.630  0.2003 -1.2439 -1.0672
 2112THY    HM352798   6.939   4.057   5.664 -0.2730 -0.1006  1.5080
 2112THY    CA652799   6.812   4.071   5.392  0.5055 -0.5554  0.2494
 2112THY    HA652800   6.715   4.048   5.434  0.9252 -1.9510  0.4945
 2113THY      O52801   7.786   7.836   7.840 -0.3859  0.3037 -0.2103
 2113THY     HO52802   7.793   7.795   7.928  0.1644 -1.1257 -0.8888
 2113THY    CA152803   7.783   7.729   7.754  0.4755 -0.6647 -0.6642
 2113THY    CA252804   7.861   7.713   7.637  0.2851 -0.0290 -0.4791
 2113THY    CP152805   7.981   7.797   7.612 -0.0956  1.1147 -0.7070
 2113THY    HP152806   7.993   7.864   7.698  3.6130 -0.3314  0.0757
 2113THY    CP252807   8.107   7.710   7.604 -0.0461  0.4558 -0.1987
 2113THY    HP252808   8.176   7.769   7.543  0.0512 -0.6190 -1.1656
 2113THY    HP352809   8.152   7.675   7.698  0.2473  0.4581 -0.3402
 2113THY    HP452810   8.073   7.625   7.543 -3.4968  0.5793  1.3106
 2113THY    CP352811   7.955   7.873   7.484  0.1055  0.3277  0.5486
 2113THY    HP552812   8.029   7.952   7.466 -0.0252  0.0260 -1.5828
 2113THY    HP652813   7.946   7.808   7.396 -2.2003  1.6584 -0.2926
 2113THY    HP752814   7.858   7.925   7.480 -0.6421 -1.0191 -3.3092
 2113THY    CA352815   7.821   7.610   7.546  1.0389  0.7610 -0.2000
 2113THY    HA352816   7.858   7.595   7.445  0.7745  0.4608 -0.2526
 2113THY    CA452817   7.709   7.522   7.580 -0.8756 -0.9689 -0.4222
 2113THY    HA452818   7.676   7.440   7.517 -0.6322 -3.4209  2.3837
 2113THY    CA552819   7.642   7.531   7.704  0.2327  0.1016 -0.1076
 2113THY    CM152820   7.539   7.420   7.737  0.4334 -0.3350  0.6394
 2113THY    HM152821   7.464   7.397   7.660 -1.2999  2.5769  1.2927
 2113THY    HM252822   7.581   7.327   7.777 -1.1005 -0.7426  1.3781
 2113THY    HM352823   7.487   7.472   7.819  0.8207  3.0585 -1.0835
 2113THY    CA652824   7.676   7.644   7.784 -0.0645 -0.5755 -0.8421
 2113THY    HA652825   7.622   7.650   7.878  0.4620  0.4160 -0.5944
 2114THY      O52826   2.101   5.190   7.061  0.3217  0.1683  0.6544
 2114THY     HO52827   2.188   5.167   7.024 -0.4986 -1.0122 -0.6538
 2114THY    CA152828   2.126   5.265   7.168  0.7747  0.1670 -0.4294
 2114THY    CA252829   2.027   5.355   7.215  0.2776 -0.7525 -0.8349
 2114THY    CP152830   1.896   5.386   7.136 -0.0988 -0.5002 -0.3276
 2114THY    HP152831   1.888   5.307   7.060 -1.8720 -0.7752  0.1013
 2114THY    CP252832   1.769   5.365   7.220 -0.2472  0.3395 -0.2548
 2114THY    HP252833   1.765   5.272   7.277 -1.1846  1.4645  1.6136
 2114THY    HP352834   1.765   5.454   7.284  1.2173  1.1974 -1.2728
 2114THY    HP452835   1.682   5.360   7.153 -0.5055 -0.5682  0.1390
 2114THY    CP352836   1.901   5.516   7.060 -0.0328 -0.4242 -0.2197
 2114THY    HP552837   1.957   5.597   7.109 -0.4254 -0.1643 -0.2016
 2114THY    HP652838   1.954   5.493   6.967 -1.0652 -0.5727 -0.7812
 2114THY    HP752839   1.796   5.540   7.040 -0.2402 -3.0811 -3.1208
 2114THY    CA352840   2.054   5.438   7.328  0.1913  0.1492  0.2232
 2114THY    HA352841   1.990   5.522   7.351  0.9179  0.9237 -0.4989
 2114THY    CA452842   2.180   5.419   7.391 -0.0312 -0.0811  0.3040
 2114THY    HA452843   2.216   5.488   7.466  0.0771 -0.4270  0.5747
 2114THY    CA552844   2.275   5.322   7.351  0.7658  0.7813 -0.3201
 2114THY    CM152845   2.403   5.315   7.423  0.5577 -0.7234 -0.5768
 2114THY    HM152846   2.466   5.400   7.396  1.0329 -0.0718  2.2685
 2114THY    HM252847   2.383   5.311   7.531 -1.1611  1.2283 -0.7702
 2114THY    HM352848   2.457   5.221   7.405 -1.1691 -2.0025  0.6061
 2114THY    CA652849   2.241   5.236   7.238 -0.1084 -0.5757 -1.0658
 2114THY    HA652850   2.316   5.166   7.203  1.6440  1.3297 -1.2979
 2115THY      O52851   6.195   2.936   4.166  0.2857  0.2068 -0.0210
 2115THY     HO52852   6.218   3.014   4.113 -0.0880 -0.0754 -0.6125
 2115THY    CA152853   6.167   2.983   4.290  0.0442  0.2860 -1.0624
 2115THY    CA252854   6.110   2.904   4.392 -0.2689 -0.3657 -0.0894
 2115THY    CP152855   6.087   2.753   4.376  0.2819 -0.6454  0.4771
 2115THY    HP152856   6.127   2.726   4.278  1.2209  3.1352 -0.3499
 2115THY    CP252857   6.153   2.666   4.484 -0.0509 -0.3971 -0.3838
 2115THY    HP252858   6.075   2.616   4.542  0.7767  0.0357  1.1537
 2115THY    HP352859   6.211   2.580   4.449  1.1061  0.3000 -0.2294
 2115THY    HP452860   6.211   2.725   4.555  0.6451  0.2617 -1.4740
 2115THY    CP352861   5.937   2.724   4.374  0.4256 -0.1317  0.5695
 2115THY    HP552862   5.893   2.781   4.290 -1.3421  0.5155  1.8818
 2115THY    HP652863   5.914   2.621   4.347 -2.1685  0.2150  1.1726
 2115THY    HP752864   5.875   2.742   4.462 -1.7431  2.2471 -1.2701
 2115THY    CA352865   6.071   2.967   4.511  0.0918  0.6555  0.0232
 2115THY    HA352866   6.020   2.904   4.584  0.5071 -2.1676 -1.9735
 2115THY    CA452867   6.082   3.108   4.527 -0.1920 -0.3105  0.1249
 2115THY    HA452868   6.043   3.151   4.619 -0.1156 -1.6469  0.8123
 2115THY    CA552869   6.143   3.177   4.422 -0.0753 -0.1989  0.1017
 2115THY    CM152870   6.167   3.325   4.446  0.0912  1.0606  0.2536
 2115THY    HM152871   6.244   3.331   4.524  2.4462  1.3846 -1.9542
 2115THY    HM252872   6.207   3.372   4.354 -0.5039  0.5152 -0.2917
 2115THY    HM352873   6.074   3.369   4.483 -1.0967 -1.2285  0.1415
 2115THY    CA652874   6.178   3.119   4.305 -0.4402  0.4609  0.1452
 2115THY    HA652875   6.217   3.183   4.226  1.5558  0.5119  1.1051
 2116THY      O52876   3.318   2.819   1.967  0.0687  0.3274  0.5997
 2116THY     HO52877   3.241   2.846   2.020 -1.2973  1.3419 -1.7750
 2116THY    CA152878   3.397   2.721   2.021  0.8144 -0.7896  0.6582
 2116THY    CA252879   3.490   2.652   1.943 -0.6189 -0.8013  0.6723
 2116THY    CP152880   3.519   2.704   1.801 -0.8682  1.2445 -0.7861
 2116THY    HP152881   3.473   2.803   1.791 -0.5118  1.3924 -0.9784
 2116THY    CP252882   3.672   2.722   1.776  1.0411 -0.3137 -0.3501
 2116THY    HP252883   3.712   2.620   1.779 -0.6489 -1.0298  3.4697
 2116THY    HP352884   3.688   2.779   1.683 -0.8784 -1.6793 -1.6044
 2116THY    HP452885   3.708   2.780   1.861 -1.4972  1.0900 -0.1256
 2116THY    CP352886   3.447   2.627   1.699 -0.3681 -0.3498  1.1845
 2116THY    HP552887   3.458   2.678   1.603  0.9906 -0.0471  1.4779
 2116THY    HP652888   3.493   2.529   1.685 -0.9875 -0.3582 -1.1677
 2116THY    HP752889   3.338   2.632   1.711 -0.7923  0.5052 -2.2384
 2116THY    CA352890   3.547   2.532   2.000  0.0584  0.1500  0.0106
 2116THY    HA352891   3.614   2.471   1.940 -1.1571 -0.6353 -0.5847
 2116THY    CA452892   3.509   2.490   2.125  0.2217  0.1207 -0.1278
 2116THY    HA452893   3.544   2.395   2.163  0.2828 -0.2909 -1.1824
 2116THY    CA552894   3.415   2.563   2.199  0.4550  0.9320  0.3787
 2116THY    CM152895   3.370   2.501   2.327  0.4839  0.0741 -0.4158
 2116THY    HM152896   3.264   2.472   2.322  0.4506 -0.5286  2.1648
 2116THY    HM252897   3.422   2.407   2.348  3.5947  1.9734  0.9941
 2116THY    HM352898   3.383   2.580   2.402 -1.1713  0.8774 -0.9230
 2116THY    CA652899   3.358   2.675   2.143  0.4936 -0.0290 -0.1569
 2116THY    HA652900   3.273   2.722   2.191  0.9429  0.3581  0.2726
 2117THY      O52901   7.831   5.993   8.645 -0.2621 -0.9125 -0.4700
 2117THY     HO52902   7.798   6.084   8.659 -4.0107 -2.0468 -0.7820
 2117THY    CA152903   7.927   6.008   8.555 -0.7005 -0.1243 -0.1131
 2117THY    CA252904   7.984   5.898   8.492 -0.4741  0.4518 -0.2892
 2117THY    CP152905   7.932   5.759   8.526 -0.0907 -0.6252 -0.2250
 2117THY    HP152906   7.825   5.764   8.545  0.2020 -1.9672  2.1087
 2117THY    CP252907   7.937   5.660   8.410 -0.2870 -0.1436 -0.1113
 2117THY    HP252908   7.906   5.708   8.317 -0.9753  0.0732  0.2228
 2117THY    HP352909   8.044   5.636   8.401 -0.6216 -2.9042  1.9271
 2117THY    HP452910   7.883   5.567   8.434 -0.4868  0.0912  0.3587
 2117THY    CP352911   8.013   5.715   8.655  0.2529  0.3095  0.0677
 2117THY    HP552912   7.948   5.650   8.715  0.5599 -0.9432 -0.9153
 2117THY    HP652913   8.085   5.645   8.612 -1.1842 -1.0227 -0.2963
 2117THY    HP752914   8.055   5.800   8.710 -0.9309  1.1358 -0.2530
 2117THY    CA352915   8.088   5.918   8.400 -0.8313  0.2354 -0.1578
 2117THY    HA352916   8.139   5.834   8.352 -1.4104 -0.1881 -0.0480
 2117THY    CA452917   8.139   6.045   8.378  0.5196  0.0547 -0.2310
 2117THY    HA452918   8.228   6.053   8.317  1.5467 -3.7644  0.5321
 2117THY    CA552919   8.080   6.153   8.448  0.5634 -0.2201  0.2511
 2117THY    CM152920   8.128   6.279   8.415  0.2218 -0.0558 -0.1452
 2117THY    HM152921   8.166   6.292   8.313  1.7597  1.3776  0.5559
 2117THY    HM252922   8.050   6.354   8.436 -0.0966 -1.0299  2.6216
 2117THY    HM352923   8.208   6.304   8.486  1.1829  0.9805 -1.5550
 2117THY    CA652924   7.971   6.141   8.533 -0.3576  0.3822  0.1359
 2117THY    HA652925   7.935   6.228   8.587  1.2672  0.5278  1.0703
 2118THY      O52926   5.276   3.723   1.598 -0.6260  0.3370 -0.2889
 2118THY     HO52927   5.290   3.628   1.584 -1.0327  0.1490  0.4900
 2118THY    CA152928   5.305   3.789   1.483 -0.0997  0.9181 -0.8230
 2118THY    CA252929   5.386   3.910   1.482 -0.5520 -0.5475 -0.7806
 2118THY    CP152930   5.447   3.964   1.614 -0.5308 -0.3784  0.3619
 2118THY    HP152931   5.439   3.881   1.684  0.8758  1.2216  2.5537
 2118THY    CP252932   5.593   4.006   1.598 -0.0298  0.3438  0.4975
 2118THY    HP252933   5.597   4.090   1.528 -2.6096 -1.1779 -1.6814
 2118THY    HP352934   5.640   4.029   1.694  0.4141 -2.4731  1.0441
 2118THY    HP452935   5.647   3.917   1.562  2.4069  2.6533 -2.0960
 2118THY    CP352936   5.369   4.078   1.674 -0.1111  0.2681 -0.7369
 2118THY    HP552937   5.421   4.097   1.768  1.8104 -1.1469 -1.4381
 2118THY    HP652938   5.365   4.171   1.616 -1.4133 -1.0110 -2.8477
 2118THY    HP752939   5.262   4.058   1.690 -0.8124  3.1701 -1.1549
 2118THY    CA352940   5.418   3.969   1.358  0.0703 -0.2873 -0.0997
 2118THY    HA352941   5.472   4.062   1.347  0.5120 -0.1617  2.4289
 2118THY    CA452942   5.365   3.903   1.245 -0.2035  0.0275  0.3305
 2118THY    HA452943   5.388   3.951   1.151 -0.9968  2.5645  1.3415
 2118THY    CA552944   5.293   3.792   1.247 -0.0395  0.1633 -0.2269
 2118THY    CM152945   5.248   3.720   1.119  0.1534 -0.1734  0.3906
 2118THY    HM152946   5.227   3.614   1.137 -1.0919  0.0806  0.4904
 2118THY    HM252947   5.152   3.765   1.091  0.8422  0.8671 -0.3597
 2118THY    HM352948   5.318   3.742   1.037  0.6922 -3.2078 -0.0631
 2118THY    CA652949   5.254   3.733   1.368 -0.1993  0.3923 -0.0137
 2118THY    HA652950   5.194   3.642   1.371  0.1911  0.1275  2.4291
 2119THY      O52951   7.430   8.244   5.668 -0.7429 -0.5222 -0.0770
 2119THY     HO52952   7.523   8.251   5.638 -0.0533  0.0823  2.0416
 2119THY    CA152953   7.399   8.119   5.699  0.2151 -0.5923  0.4290
 2119THY    CA252954   7.266   8.082   5.734 -0.2120  0.3983 -0.7566
 2119THY    CP152955   7.159   8.186   5.712  0.1278  0.0814  0.8654
 2119THY    HP152956   7.202   8.230   5.622  1.5804 -1.3288  0.8361
 2119THY    CP252957   7.018   8.136   5.689 -0.0344 -0.2098 -1.0060
 2119THY    HP252958   6.947   8.216   5.662 -1.7722 -1.2563  0.2614
 2119THY    HP352959   7.014   8.063   5.608  0.4969  1.1463 -2.3019
 2119THY    HP452960   6.976   8.080   5.773  1.8793  0.0659  0.1942
 2119THY    CP352961   7.155   8.299   5.824 -0.3042  0.3939  0.1727
 2119THY    HP552962   7.076   8.366   5.789 -0.7600 -1.8009 -3.5828
 2119THY    HP652963   7.136   8.254   5.921  0.4479  1.5028  0.8668
 2119THY    HP752964   7.250   8.353   5.818  0.4882 -0.9885 -0.1626
 2119THY    CA352965   7.240   7.952   5.782  0.0648 -0.5442  0.1341
 2119THY    HA352966   7.140   7.919   5.807 -0.4619  0.7313 -0.2033
 2119THY    CA452967   7.347   7.863   5.802  0.1744 -0.4553  1.0856
 2119THY    HA452968   7.312   7.764   5.828 -1.4318  0.9084  4.9112
 2119THY    CA552969   7.476   7.901   5.775 -0.3280 -0.1345  0.2900
 2119THY    CM152970   7.595   7.811   5.784  0.6171  1.0458 -0.2551
 2119THY    HM152971   7.594   7.778   5.889  0.4597  3.4718  0.5689
 2119THY    HM252972   7.575   7.728   5.716 -1.8569  1.1038  0.2996
 2119THY    HM352973   7.692   7.854   5.757  1.1232  1.1732  1.6314
 2119THY    CA652974   7.501   8.026   5.722 -0.0519 -0.7227  0.2591
 2119THY    HA652975   7.604   8.053   5.699  0.2556 -1.5581  0.6221
 2120THY      O52976   6.306   1.388   3.090  0.4001  0.1156  0.3536
 2120THY     HO52977   6.367   1.441   3.144  2.6437 -0.7269 -1.2207
 2120THY    CA152978   6.344   1.261   3.109 -0.2320  0.1619  0.9197
 2120THY    CA252979   6.372   1.173   3.003  0.2942  0.6456  0.2208
 2120THY    CP152980   6.337   1.206   2.856 -0.0190 -0.9355  0.9442
 2120THY    HP152981   6.285   1.302   2.865  0.2123 -0.7226  0.1213
 2120THY    CP252982   6.461   1.227   2.759 -0.1029 -0.9092  0.4616
 2120THY    HP252983   6.493   1.130   2.719 -0.7397 -1.0852  0.3748
 2120THY    HP352984   6.441   1.274   2.663  0.0698 -2.2333 -0.2558
 2120THY    HP452985   6.535   1.280   2.820 -1.3984  0.0232  1.2676
 2120THY    CP352986   6.237   1.117   2.785 -0.2368 -0.0530  0.2247
 2120THY    HP552987   6.290   1.025   2.757 -1.8619 -1.5711  1.8235
 2120THY    HP652988   6.160   1.087   2.857 -0.6534 -0.3814 -0.3437
 2120THY    HP752989   6.191   1.169   2.700  1.4106 -0.6020 -1.0551
 2120THY    CA352990   6.411   1.036   3.033  0.9922 -0.3242 -0.5492
 2120THY    HA352991   6.440   0.963   2.958 -2.7950 -2.9878  0.3210
 2120THY    CA452992   6.437   1.004   3.175  0.2939  0.3745 -0.2525
 2120THY    HA452993   6.492   0.913   3.199  1.5334  1.1634 -0.0083
 2120THY    CA552994   6.411   1.100   3.273 -0.0598 -0.3772 -0.5732
 2120THY    CM152995   6.449   1.069   3.411 -0.4711  0.8096 -0.0161
 2120THY    HM152996   6.535   1.001   3.414 -1.9515 -1.1633 -0.6369
 2120THY    HM252997   6.483   1.157   3.467 -0.3339  0.7933 -0.0748
 2120THY    HM352998   6.368   1.017   3.464  1.0089  0.2112  1.7991
 2120THY    CA652999   6.355   1.226   3.241 -0.4778  0.0351 -0.3132
 2120THY    HA653000   6.350   1.302   3.319 -1.1242  0.1659 -0.4695
 2121THY      O53001   9.290   2.758   7.241 -0.1766  0.4587 -0.2627
 2121THY     HO53002   9.262   2.682   7.187 -0.9045 -0.7793  1.7556
 2121THY    CA153003   9.186   2.837   7.227 -0.3671 -1.0850  0.0471
 2121THY    CA253004   9.183   2.967   7.280  0.3236 -0.1289  0.4940
 2121THY    CP153005   9.303   3.020   7.355 -0.6586  0.3345  0.0995
 2121THY    HP153006   9.389   2.952   7.346 -0.0655  1.1176 -0.2638
 2121THY    CP253007   9.354   3.151   7.297  0.0593 -0.7486 -0.2303
 2121THY    HP253008   9.440   3.189   7.351  0.1536  0.9247 -1.4731
 2121THY    HP353009   9.390   3.126   7.196  0.6573  1.1931 -0.5399
 2121THY    HP453010   9.270   3.221   7.308  0.8103  0.0654  0.3450
 2121THY    CP353011   9.277   3.022   7.504 -0.4945 -0.0151 -0.3479
 2121THY    HP553012   9.368   3.064   7.549 -0.6018  0.3096 -0.4309
 2121THY    HP653013   9.190   3.083   7.532 -0.3850  0.6418 -1.4010
 2121THY    HP753014   9.260   2.926   7.553 -0.5763  0.5614  0.8029
 2121THY    CA353015   9.064   3.037   7.268 -0.4046  0.5599 -0.3693
 2121THY    HA353016   9.057   3.141   7.297 -1.4911  0.2956  0.3549
 2121THY    CA453017   8.959   2.989   7.195 -0.2567  0.0678 -0.4435
 2121THY    HA453018   8.867   3.045   7.184  0.4915  1.4427  0.1093
 2121THY    CA553019   8.965   2.857   7.145 -0.6254 -0.0241 -0.3546
 2121THY    CM153020   8.850   2.801   7.061  0.5341 -0.2638  0.1919
 2121THY    HM153021   8.887   2.799   6.958  0.8782 -0.5476  0.3184
 2121THY    HM253022   8.813   2.700   7.085  1.2451 -0.7459 -0.6957
 2121THY    HM353023   8.764   2.869   7.061 -0.3177 -1.3017  1.1456
 2121THY    CA653024   9.082   2.781   7.158  0.4571  0.1749 -0.4702
 2121THY    HA653025   9.089   2.677   7.127  0.0133  0.0026 -0.0141
 2122THY      O53026   1.341   2.126   0.444  0.8637 -0.3152  0.8089
 2122THY     HO53027   1.386   2.190   0.502 -2.6089  1.0985  2.2017
 2122THY    CA153028   1.285   2.030   0.519  0.4724 -0.1674 -0.6019
 2122THY    CA253029   1.246   1.907   0.459 -0.3624  0.4207  0.2192
 2122THY    CP153030   1.274   1.883   0.317 -0.7642  0.0168  0.3333
 2122THY    HP153031   1.374   1.925   0.302 -0.0970 -1.3090  0.9276
 2122THY    CP253032   1.298   1.731   0.279  0.7119 -0.0840  0.0041
 2122THY    HP253033   1.376   1.682   0.337 -0.0746 -0.0019  1.1513
 2122THY    HP353034   1.202   1.681   0.294 -1.4058  3.7026  0.4086
 2122THY    HP453035   1.316   1.728   0.170  1.5563 -2.2189  0.1549
 2122THY    CP353036   1.175   1.945   0.219 -0.2125 -0.1834  0.5289
 2122THY    HP553037   1.154   2.052   0.218 -4.3894 -0.8274 -0.7307
 2122THY    HP653038   1.204   1.923   0.115 -1.8975 -0.0034 -0.0137
 2122THY    HP753039   1.079   1.894   0.231  0.2410 -1.2996 -0.3396
 2122THY    CA353040   1.223   1.801   0.548 -0.4105  0.6975 -0.6626
 2122THY    HA353041   1.210   1.698   0.518 -0.2044  0.3672  0.3328
 2122THY    CA453042   1.248   1.811   0.683  0.1989  0.5923 -0.2530
 2122THY    HA453043   1.243   1.724   0.749 -0.8934  1.4421  0.8270
 2122THY    CA553044   1.281   1.927   0.743 -0.2316 -0.0134  0.1681
 2122THY    CM153045   1.316   1.942   0.890 -0.6737  0.2094 -0.1689
 2122THY    HM153046   1.228   1.957   0.954  0.5946 -0.8150  1.9167
 2122THY    HM253047   1.374   1.856   0.925  0.0415  0.9109  0.4381
 2122THY    HM353048   1.383   2.025   0.914  0.5959 -1.1016  1.0242
 2122THY    CA653049   1.306   2.037   0.660 -0.2224 -0.1623  1.1707
 2122THY    HA653050   1.361   2.125   0.692  1.2916 -0.2304 -1.0163
 2123THY      O53051   5.341   2.113   9.149 -0.9641 -0.1141 -0.0556
 2123THY     HO53052   5.409   2.179   9.129 -0.5107 -0.2895  0.8852
 2123THY    CA153053   5.350   2.008   9.061 -0.6124 -0.3572 -0.5935
 2123THY    CA253054   5.266   1.894   9.083  0.0209  0.4285  0.8229
 2123THY    CP153055   5.142   1.893   9.174 -0.8691  0.3429  0.2735
 2123THY    HP153056   5.135   1.984   9.234 -1.5411  0.2371  0.3624
 2123THY    CP253057   5.016   1.886   9.092 -0.2080 -0.0413  0.2534
 2123THY    HP253058   4.935   1.901   9.164  1.1320  1.0087  1.6088
 2123THY    HP353059   5.016   1.967   9.017 -0.2390 -0.0088  0.2883
 2123THY    HP453060   5.008   1.787   9.045 -1.5275 -0.2099  0.7998
 2123THY    CP353061   5.151   1.771   9.267 -0.4037  0.2478 -0.3375
 2123THY    HP553062   5.135   1.677   9.212  0.9290  0.5746 -1.3350
 2123THY    HP653063   5.237   1.752   9.331  0.4643 -2.3612 -2.0646
 2123THY    HP753064   5.074   1.786   9.343 -0.6754  1.3365 -0.8062
 2123THY    CA353065   5.275   1.798   8.985  0.0498  0.0188  0.3174
 2123THY    HA353066   5.204   1.715   8.985 -1.2017  1.0490  0.4598
 2123THY    CA453067   5.388   1.794   8.901 -0.3502  0.1067 -0.3794
 2123THY    HA453068   5.403   1.704   8.843 -0.8647 -1.7980  2.2759
 2123THY    CA553069   5.477   1.905   8.892 -0.3922 -0.3986 -0.1655
 2123THY    CM153070   5.611   1.886   8.830 -0.2723  0.2497 -0.3174
 2123THY    HM153071   5.666   1.806   8.881 -0.3133  0.2681 -0.2446
 2123THY    HM253072   5.589   1.869   8.724 -1.6536 -1.9762  0.2585
 2123THY    HM353073   5.677   1.974   8.840 -0.5471  0.2997  1.2182
 2123THY    CA653074   5.450   2.014   8.966 -0.4424 -0.2030 -0.3554
 2123THY    HA653075   5.515   2.101   8.961  0.1097 -0.4602  1.6321
 2124THY      O53076   2.035   7.675   6.473 -0.2630 -0.6512 -0.5684
 2124THY     HO53077   2.049   7.761   6.430  0.9576 -0.5591  0.0001
 2124THY    CA153078   1.945   7.601   6.402 -0.1753  0.7786 -0.3116
 2124THY    CA253079   1.852   7.509   6.460 -0.7738  0.2807  0.3687
 2124THY    CP153080   1.839   7.485   6.611 -0.4568 -0.4165 -0.5522
 2124THY    HP153081   1.937   7.494   6.659 -0.2783 -1.3171 -0.7102
 2124THY    CP253082   1.752   7.582   6.680 -0.3597  0.1077 -0.1313
 2124THY    HP253083   1.716   7.659   6.610  0.1478 -2.3104 -3.3119
 2124THY    HP353084   1.661   7.534   6.718  0.2755 -0.0522  1.2235
 2124THY    HP453085   1.803   7.621   6.768  1.1400 -1.6208 -0.1822
 2124THY    CP353086   1.816   7.338   6.650  1.3077 -0.2328 -1.0785
 2124THY    HP553087   1.713   7.319   6.615  0.9039 -0.4606  0.1741
 2124THY    HP653088   1.870   7.258   6.598 -1.5737 -1.9087 -1.7685
 2124THY    HP753089   1.810   7.313   6.756 -0.6950 -1.7544 -1.4870
 2124THY    CA353090   1.773   7.441   6.364 -0.3715  0.4091 -1.4877
 2124THY    HA353091   1.698   7.377   6.409 -0.0458  1.0149 -0.0254
 2124THY    CA453092   1.777   7.462   6.230 -0.6257 -0.4801  0.5456
 2124THY    HA453093   1.711   7.416   6.157  1.0455 -3.0377  0.5352
 2124THY    CA553094   1.856   7.564   6.181 -0.0246  0.6819  0.2232
 2124THY    CM153095   1.857   7.585   6.031  0.0797 -0.7816  0.2638
 2124THY    HM153096   1.765   7.546   5.986  3.0862 -3.5780 -4.2418
 2124THY    HM253097   1.881   7.691   6.014 -1.2896 -0.2682  1.3192
 2124THY    HM353098   1.932   7.515   5.992  1.5758 -0.1148  1.8003
 2124THY    CA653099   1.943   7.629   6.265  0.0608  0.4366 -0.0516
 2124THY    HA653100   2.004   7.710   6.226 -1.1623  1.5910  0.3702
 2125THY      O53101   4.041   6.724   4.954 -0.2912 -0.4755 -0.0842
 2125THY     HO53102   4.013   6.652   4.896  0.1886 -0.6841 -0.0675
 2125THY    CA153103   3.925   6.794   4.961 -0.6701  0.0330 -0.2715
 2125THY    CA253104   3.903   6.889   5.065 -0.3388  0.4782 -0.1913
 2125THY    CP153105   4.011   6.936   5.165  0.0014  0.2067  0.0826
 2125THY    HP153106   4.108   6.893   5.134 -0.2337  1.6525 -2.9851
 2125THY    CP253107   4.037   7.084   5.145 -0.6155  0.1844 -0.1769
 2125THY    HP253108   4.138   7.110   5.180 -0.8969  1.2287 -0.0897
 2125THY    HP353109   4.030   7.101   5.037  0.9744  0.3930 -0.2830
 2125THY    HP453110   3.974   7.153   5.203  2.0662  1.3212  1.6093
 2125THY    CP353111   3.979   6.897   5.302 -0.2424 -0.3894  0.5418
 2125THY    HP553112   3.972   6.787   5.299  0.9525 -0.4711  0.2715
 2125THY    HP653113   4.054   6.916   5.378 -1.4923  1.5180  1.3652
 2125THY    HP753114   3.881   6.941   5.327  0.5469  1.1477  1.0110
 2125THY    CA353115   3.775   6.949   5.074  0.0915  0.0017 -0.6864
 2125THY    HA353116   3.759   7.014   5.160  1.3425 -0.8069  0.1796
 2125THY    CA453117   3.677   6.915   4.980  0.7497 -0.1263  0.5761
 2125THY    HA453118   3.576   6.953   4.993  0.8694  0.4036 -0.0166
 2125THY    CA553119   3.696   6.819   4.880 -0.3459 -0.1400 -0.9992
 2125THY    CM153120   3.586   6.765   4.803 -0.1130 -0.1697 -0.2121
 2125THY    HM153121   3.607   6.784   4.697 -3.1693  2.6697 -0.4738
 2125THY    HM253122   3.569   6.659   4.825  1.6987  0.0053  2.4545
 2125THY    HM353123   3.491   6.813   4.830  0.0018 -0.6623  1.1198
 2125THY    CA653124   3.821   6.756   4.873  0.0044  0.0358 -0.4168
 2125THY    HA653125   3.845   6.675   4.805 -1.6247 -0.9303  0.1112
 2126THY      O53126   1.877   5.120   6.837  0.1898  0.7532 -0.4978
 2126THY     HO53127   1.922   5.143   6.920 -1.8743  0.4711  0.7677
 2126THY    CA153128   1.812   4.997   6.850  0.4079  0.2129  0.1956
 2126THY    CA253129   1.718   4.949   6.759  0.1700 -0.8025 -0.7232
 2126THY    CP153130   1.684   5.028   6.629  0.4565 -0.6677  0.3651
 2126THY    HP153131   1.762   5.096   6.593 -1.9611  1.3687 -1.4371
 2126THY    CP253132   1.680   4.922   6.515  0.5986 -1.0762  0.1026
 2126THY    HP253133   1.761   4.849   6.517  1.4842 -0.1581 -0.7137
 2126THY    HP353134   1.582   4.873   6.518 -0.6395  1.2530  1.0077
 2126THY    HP453135   1.690   4.968   6.416  1.1560 -0.2586  0.5253
 2126THY    CP353136   1.557   5.116   6.651  0.6681 -0.6920  0.0844
 2126THY    HP553137   1.467   5.060   6.680  0.0269  1.1167  1.8126
 2126THY    HP653138   1.573   5.182   6.737 -1.1904 -0.0565 -0.0205
 2126THY    HP753139   1.534   5.160   6.553  0.1867 -1.6402 -0.2491
 2126THY    CA353140   1.659   4.826   6.794  0.2994  0.3177  0.1758
 2126THY    HA353141   1.583   4.788   6.726  0.2986 -0.2036  0.4646
 2126THY    CA453142   1.698   4.753   6.908  0.6983  0.5077 -0.3175
 2126THY    HA453143   1.649   4.659   6.933 -0.9676  1.7776  1.5279
 2126THY    CA553144   1.786   4.813   7.001  0.6428 -0.4447  0.1268
 2126THY    CM153145   1.828   4.732   7.114 -0.2878 -0.2230  0.3127
 2126THY    HM153146   1.881   4.786   7.193  0.4756  0.6157 -0.7453
 2126THY    HM253147   1.739   4.689   7.162  1.1659 -2.0939  1.4922
 2126THY    HM353148   1.884   4.642   7.085  0.5103 -0.2487  1.8450
 2126THY    CA653149   1.834   4.945   6.973 -0.9098  0.5443 -0.7146
 2126THY    HA653150   1.906   4.991   7.042 -0.2633 -0.3015 -0.8068
 2127THY      O53151   3.270   5.157   8.838  0.2347 -0.7184  0.1576
 2127THY     HO53152   3.201   5.123   8.779 -0.4779 -0.1685  0.6511
 2127THY    CA153153   3.195   5.227   8.924 -0.1525 -0.0696 -0.2437
 2127THY    CA253154   3.227   5.355   8.961  0.0364  0.2892 -1.4182
 2127THY    CP153155   3.342   5.436   8.902  0.1187 -0.1631 -0.1152
 2127THY    HP153156   3.389   5.381   8.819  2.1667  0.4128  0.5891
 2127THY    CP253157   3.295   5.571   8.832 -0.3444 -0.3777 -0.1148
 2127THY    HP253158   3.367   5.627   8.772  0.3414 -1.5743 -0.4494
 2127THY    HP353159   3.219   5.559   8.754 -0.4230  1.5183 -0.3724
 2127THY    HP453160   3.261   5.645   8.905  1.4994  2.7792 -2.2175
 2127THY    CP353161   3.450   5.476   9.004 -0.1383 -0.3270 -0.6132
 2127THY    HP553162   3.467   5.401   9.082  3.7445  2.0299  1.0978
 2127THY    HP653163   3.543   5.501   8.952 -0.7325 -0.5898 -1.8347
 2127THY    HP753164   3.409   5.569   9.045 -1.2778 -0.7323 -0.7915
 2127THY    CA353165   3.148   5.419   9.067  0.1066 -0.1299  0.4214
 2127THY    HA353166   3.180   5.516   9.105  1.0497 -0.8429  1.5327
 2127THY    CA453167   3.033   5.353   9.115  0.6306 -0.5932  0.5908
 2127THY    HA453168   2.964   5.399   9.185  1.9356 -0.8031  2.0877
 2127THY    CA553169   2.986   5.232   9.058 -0.3577 -0.2380 -0.1295
 2127THY    CM153170   2.863   5.169   9.102 -0.5129  0.8810  0.0815
 2127THY    HM153171   2.855   5.147   9.209 -2.1951  0.3761 -0.1174
 2127THY    HM253172   2.776   5.231   9.078  0.4880  1.8505 -1.1650
 2127THY    HM353173   2.848   5.071   9.055 -0.9259  0.9811  0.0009
 2127THY    CA653174   3.073   5.167   8.968 -0.3112  0.0171  0.1229
 2127THY    HA653175   3.045   5.072   8.922 -0.7011 -0.0598  0.5138
 2128THY      O53176   4.121   4.977   9.517 -0.0178  0.1529  0.1189
 2128THY     HO53177   4.208   4.989   9.558 -0.5222 -1.1566  1.6609
 2128THY    CA153178   4.038   5.075   9.554  0.2297 -0.3801  0.6237
 2128THY    CA253179   3.912   5.094   9.488 -0.7017  0.0447  0.5606
 2128THY    CP153180   3.864   4.987   9.388 -0.2091 -0.4967 -0.0553
 2128THY    HP153181   3.942   4.911   9.379  0.7730  0.5411 -0.7504
 2128THY    CP253182   3.726   4.924   9.432  0.0183 -0.0990  0.3114
 2128THY    HP253183   3.644   4.995   9.447 -0.2340 -0.4096  0.3925
 2128THY    HP353184   3.688   4.854   9.357  0.7892 -0.0928 -0.0928
 2128THY    HP453185   3.741   4.862   9.521 -1.5054 -0.7791  0.1309
 2128THY    CP353186   3.847   5.045   9.249  0.0255 -0.4381  0.0832
 2128THY    HP553187   3.946   5.078   9.218  0.3138 -0.2923  1.1284
 2128THY    HP653188   3.806   4.971   9.179  0.0513  0.9704 -1.5046
 2128THY    HP753189   3.787   5.137   9.246  0.0841 -0.4246 -1.0007
 2128THY    CA353190   3.840   5.214   9.518 -0.1153  0.6973 -0.6675
 2128THY    HA353191   3.748   5.235   9.463 -0.5033 -1.4139 -0.9071
 2128THY    CA453192   3.884   5.300   9.620 -0.4589  0.1686  0.0064
 2128THY    HA453193   3.818   5.383   9.640 -0.6855 -0.3069  1.3053
 2128THY    CA553194   4.006   5.280   9.678 -0.5582  0.9584  0.3015
 2128THY    CM153195   4.049   5.378   9.792  0.1624  0.8395  0.2893
 2128THY    HM153196   3.974   5.439   9.844 -0.7028  0.0990 -0.0569
 2128THY    HM253197   4.099   5.331   9.877 -0.8223 -0.0594  0.4006
 2128THY    HM353198   4.115   5.455   9.750 -1.4077  2.6965  1.1055
 2128THY    CA653199   4.083   5.172   9.645 -0.1521  0.5332  0.0058
 2128THY    HA653200   4.181   5.161   9.691  0.6829  0.6194 -1.6757
 2129THY      O53201   4.465   5.604   4.854 -0.2268  0.0002  0.2180
 2129THY     HO53202   4.469   5.508   4.843 -0.8985 -0.1701  1.2252
 2129THY    CA153203   4.586   5.656   4.867  0.2310  0.3353 -0.2740
 2129THY    CA253204   4.600   5.763   4.952  0.1674  0.2092  0.1024
 2129THY    CP153205   4.473   5.825   5.019 -1.0829  0.0209  0.4871
 2129THY    HP153206   4.385   5.801   4.959  0.1288 -0.4260 -1.1734
 2129THY    CP253207   4.455   5.778   5.163 -0.0851  0.0531 -0.3257
 2129THY    HP253208   4.369   5.829   5.207  0.7921  1.8997 -0.6707
 2129THY    HP353209   4.424   5.673   5.164 -1.3140  0.3386  2.9348
 2129THY    HP453210   4.552   5.792   5.213 -0.0141  1.5842 -0.8342
 2129THY    CP353211   4.469   5.983   5.033  0.0907  0.1331 -0.4574
 2129THY    HP553212   4.533   6.008   5.118  0.1507  0.4884 -0.6044
 2129THY    HP653213   4.513   6.031   4.945  0.7951 -0.3647 -0.3773
 2129THY    HP753214   4.365   6.013   5.052 -0.3804  0.4938 -3.2555
 2129THY    CA353215   4.726   5.811   4.986 -0.8830  0.4886 -0.2704
 2129THY    HA353216   4.742   5.882   5.066  0.7797  0.5806 -0.6340
 2129THY    CA453217   4.839   5.756   4.919 -0.1703  0.2245 -0.7273
 2129THY    HA453218   4.938   5.792   4.947 -0.8438  1.3816  0.2725
 2129THY    CA553219   4.829   5.659   4.827  0.8525  0.0412 -0.2776
 2129THY    CM153220   4.948   5.596   4.762 -0.3373 -0.0154  0.1778
 2129THY    HM153221   4.919   5.514   4.696  1.5509  0.5627 -1.4771
 2129THY    HM253222   4.995   5.669   4.695 -0.1788 -0.5612 -0.3164
 2129THY    HM353223   5.020   5.567   4.840  0.3732  0.4923 -0.2771
 2129THY    CA653224   4.699   5.607   4.802 -0.0804  0.5984  0.5505
 2129THY    HA653225   4.686   5.523   4.734  0.0649  0.6685  0.4371
 2130THY      O53226   0.335   5.934   0.543  0.1040  0.0651  0.2674
 2130THY     HO53227   0.326   6.013   0.599  0.2929  0.8898 -0.8218
 2130THY    CA153228   0.293   5.820   0.605  0.0399  0.0718 -1.0535
 2130THY    CA253229   0.282   5.693   0.545  0.8140  0.0411  0.1195
 2130THY    CP153230   0.292   5.683   0.392 -0.0085 -0.4740 -0.6880
 2130THY    HP153231   0.353   5.758   0.339 -1.9480  0.2100 -2.0464
 2130THY    CP253232   0.378   5.564   0.351  0.0863  0.2005  0.5733
 2130THY    HP253233   0.393   5.583   0.244 -1.0080 -0.1942  0.3412
 2130THY    HP353234   0.482   5.577   0.384  0.9128  2.8087 -2.5489
 2130THY    HP453235   0.352   5.460   0.375  3.8464 -0.7638  1.1960
 2130THY    CP353236   0.157   5.686   0.320  0.1175 -0.3095  0.5191
 2130THY    HP553237   0.108   5.589   0.339 -1.8787 -0.0180 -2.4347
 2130THY    HP653238   0.096   5.767   0.361  0.3543  0.7654 -1.1862
 2130THY    HP753239   0.167   5.696   0.212 -1.9509 -0.0204  0.3121
 2130THY    CA353240   0.229   5.589   0.615  0.4715  0.8211 -0.6717
 2130THY    HA353241   0.204   5.495   0.568  1.1111 -0.8496  2.1254
 2130THY    CA453242   0.211   5.600   0.752 -0.5703 -0.6466 -0.6303
 2130THY    HA453243   0.158   5.521   0.804 -2.4942  0.2342 -1.1589
 2130THY    CA553244   0.228   5.724   0.815 -0.6026 -0.5648 -0.1607
 2130THY    CM153245   0.195   5.740   0.959 -0.0868  0.1407  0.0318
 2130THY    HM153246   0.094   5.711   0.989  0.5787 -1.3934  0.9140
 2130THY    HM253247   0.267   5.685   1.021 -0.9685 -0.5595  0.4615
 2130THY    HM353248   0.205   5.845   0.988 -0.1041  0.1343  0.0603
 2130THY    CA653249   0.268   5.838   0.743 -0.1842 -0.1763  0.6313
 2130THY    HA653250   0.286   5.932   0.794 -1.1717 -0.0003  0.6845
 2131THY      O53251   0.456   5.211   5.593  0.1702 -0.9391  0.1697
 2131THY     HO53252   0.543   5.238   5.626  0.8513 -0.2118 -2.0312
 2131THY    CA153253   0.366   5.317   5.590  0.2143 -0.4248 -0.3688
 2131THY    CA253254   0.234   5.297   5.553  0.3400  0.5117 -0.4799
 2131THY    CP153255   0.173   5.147   5.541  1.1417 -0.5662  0.4648
 2131THY    HP153256   0.254   5.083   5.503  0.9227 -1.3436  1.2699
 2131THY    CP253257   0.121   5.097   5.678  0.0465 -0.1868  0.6852
 2131THY    HP253258   0.049   5.163   5.727  1.4832  1.7402  0.2836
 2131THY    HP353259   0.080   4.997   5.656  0.4076 -0.1196 -0.3489
 2131THY    HP453260   0.204   5.065   5.742  1.0134  0.4420 -0.2365
 2131THY    CP353261   0.061   5.135   5.438  0.0035  0.2233  0.8007
 2131THY    HP553262   0.040   5.027   5.429 -1.2107  0.1774  3.3182
 2131THY    HP653263  -0.026   5.190   5.475 -0.1955  1.4836 -1.3948
 2131THY    HP753264   0.094   5.170   5.339 -2.2741  1.2240  0.3299
 2131THY    CA353265   0.140   5.411   5.548 -0.0828  0.0968  0.4166
 2131THY    HA353266   0.036   5.390   5.527 -0.2396 -0.0998  1.3637
 2131THY    CA453267   0.191   5.536   5.562  0.1115 -0.5496 -0.1549
 2131THY    HA453268   0.126   5.623   5.560 -1.6419 -1.7674  0.8800
 2131THY    CA553269   0.326   5.558   5.592  0.7266 -0.2158 -0.5396
 2131THY    CM153270   0.389   5.699   5.600  0.7037  0.2771  0.4909
 2131THY    HM153271   0.326   5.771   5.547  0.5907  0.6547  1.1277
 2131THY    HM253272   0.402   5.731   5.704  0.9219  1.9306 -0.0191
 2131THY    HM353273   0.485   5.699   5.547 -0.3450  0.3209 -1.4927
 2131THY    CA653274   0.410   5.447   5.614 -0.2621  0.0776 -0.1721
 2131THY    HA653275   0.511   5.459   5.653 -1.0845  0.2258  2.0286
 2132THY      O53276   5.158   4.060   0.435 -0.0150  0.4310  0.3218
 2132THY     HO53277   5.151   4.133   0.372 -0.5321  0.5600  0.5232
 2132THY    CA153278   5.033   4.019   0.466  0.3724  0.4399 -0.0707
 2132THY    CA253279   4.992   3.997   0.598  0.3747 -0.0420 -0.9704
 2132THY    CP153280   5.109   3.993   0.697  0.0895 -0.8124  0.4379
 2132THY    HP153281   5.193   3.942   0.650  0.5953 -0.1208  0.5841
 2132THY    CP253282   5.154   4.122   0.752 -0.0763 -0.0418  0.0016
 2132THY    HP253283   5.072   4.182   0.791  2.3303  1.1798  3.7194
 2132THY    HP353284   5.221   4.099   0.835 -1.3125 -0.0197  1.0243
 2132THY    HP453285   5.207   4.174   0.671 -0.8263 -0.5539 -0.8399
 2132THY    CP353286   5.070   3.900   0.821 -0.2204  0.7516  0.3697
 2132THY    HP553287   4.994   3.944   0.887 -1.0549  0.7681 -0.5844
 2132THY    HP653288   5.032   3.804   0.785  2.6254 -1.7399  3.4587
 2132THY    HP753289   5.154   3.871   0.885 -1.3840 -1.1469  1.1175
 2132THY    CA353290   4.857   3.985   0.630 -0.4308  0.2464 -0.6841
 2132THY    HA353291   4.815   3.959   0.726 -1.8417  0.0130 -1.3380
 2132THY    CA453292   4.763   3.981   0.523  0.1830  0.3063 -0.4159
 2132THY    HA453293   4.657   3.965   0.542  0.4994  0.6283  1.8766
 2132THY    CA553294   4.800   3.999   0.391 -0.0465  0.5071 -0.8991
 2132THY    CM153295   4.694   3.995   0.281  0.4756 -0.6088  0.1999
 2132THY    HM153296   4.619   3.916   0.284 -0.8972  0.5692 -1.1522
 2132THY    HM253297   4.634   4.087   0.289 -0.7572 -1.4987  1.6548
 2132THY    HM353298   4.749   3.981   0.187  0.3244 -2.1221  0.3161
 2132THY    CA653299   4.937   4.012   0.367 -0.7940  0.2512  0.4502
 2132THY    HA653300   4.969   4.026   0.264 -1.8932 -2.6328 -0.3842
 2133THY      O53301   8.898   7.518   0.899 -0.1564  0.0182  0.3568
 2133THY     HO53302   8.982   7.475   0.876 -1.2457 -1.6674 -0.6836
 2133THY    CA153303   8.842   7.528   0.782  0.0693  0.8584 -0.7250
 2133THY    CA253304   8.709   7.560   0.755  0.7526 -0.4972 -0.4222
 2133THY    CP153305   8.602   7.564   0.861 -0.0537 -0.7449  0.0432
 2133THY    HP153306   8.637   7.520   0.955 -1.3979 -3.0702 -0.4686
 2133THY    CP253307   8.557   7.707   0.892  0.2527 -0.2043  0.5606
 2133THY    HP253308   8.646   7.769   0.911 -0.1101  0.2333  0.8565
 2133THY    HP353309   8.512   7.755   0.804 -0.5302  0.4460  1.2937
 2133THY    HP453310   8.494   7.707   0.981 -1.0590 -1.6279 -0.3328
 2133THY    CP353311   8.480   7.482   0.827 -0.2150 -0.3080 -0.6764
 2133THY    HP553312   8.509   7.379   0.801 -0.6377 -0.6207  0.0416
 2133THY    HP653313   8.395   7.489   0.896  0.1095 -0.8620 -0.2027
 2133THY    HP753314   8.436   7.510   0.731 -1.4719 -3.5475 -1.1889
 2133THY    CA353315   8.666   7.591   0.618  0.7293  0.0939  0.4665
 2133THY    HA353316   8.569   7.633   0.592  1.0056  0.0141 -0.7469
 2133THY    CA453317   8.762   7.573   0.514 -0.2509  0.2681  0.1659
 2133THY    HA453318   8.746   7.596   0.409  2.1978 -0.4317 -0.4170
 2133THY    CA553319   8.893   7.542   0.543 -0.5869 -0.4401  0.4416
 2133THY    CM153320   8.997   7.531   0.438  0.5230  0.3511 -0.0839
 2133THY    HM153321   8.999   7.621   0.375  1.4966  0.2918 -0.1527
 2133THY    HM253322   9.096   7.519   0.482 -0.0411 -1.1591  0.8286
 2133THY    HM353323   8.969   7.449   0.370 -0.7881  2.4308 -2.2463
 2133THY    CA653324   8.934   7.517   0.676  0.3879 -0.5016  0.2338
 2133THY    HA653325   9.038   7.491   0.691  0.2805 -0.1616  1.7714
 2134THY      O53326   4.899   0.835   2.300  0.5565 -0.2768 -0.3105
 2134THY     HO53327   4.977   0.778   2.288  0.9884  0.2815 -0.1933
 2134THY    CA153328   4.932   0.919   2.401 -0.4769 -0.0594  0.3441
 2134THY    CA253329   4.907   1.052   2.401 -0.1589 -0.6600  0.1466
 2134THY    CP153330   4.816   1.119   2.296 -0.2212 -0.4079 -0.7283
 2134THY    HP153331   4.797   1.048   2.215 -0.7250 -0.9827 -0.1207
 2134THY    CP253332   4.676   1.152   2.346 -0.7491  0.1177 -0.0273
 2134THY    HP253333   4.697   1.206   2.439  0.3969 -0.2670 -0.0510
 2134THY    HP353334   4.614   1.211   2.277  0.2565  1.3679  0.1087
 2134THY    HP453335   4.628   1.056   2.371 -1.4295  0.5615  0.3995
 2134THY    CP353336   4.872   1.243   2.248 -0.4402  0.0902 -0.0203
 2134THY    HP553337   4.811   1.282   2.166 -0.5669  0.4070  0.2228
 2134THY    HP653338   4.880   1.322   2.324 -0.2870  0.1135 -0.0599
 2134THY    HP753339   4.970   1.218   2.205 -0.0655 -0.0364  0.8767
 2134THY    CA353340   4.966   1.131   2.502 -1.4063 -0.2959  0.1635
 2134THY    HA353341   4.951   1.239   2.498  0.2987 -0.0591 -0.8091
 2134THY    CA453342   5.051   1.072   2.598 -0.7064  0.0251 -0.3346
 2134THY    HA453343   5.097   1.138   2.672  1.0049 -2.3734  0.8733
 2134THY    CA553344   5.075   0.939   2.592  0.1595 -0.1007  0.0398
 2134THY    CM153345   5.165   0.875   2.696 -0.3166 -0.0268  0.0605
 2134THY    HM153346   5.259   0.845   2.650 -0.5298 -1.2982  0.4135
 2134THY    HM253347   5.190   0.948   2.774  2.6967  2.0687 -2.6514
 2134THY    HM353348   5.119   0.789   2.746 -2.1345  1.1002  0.4315
 2134THY    CA653349   5.014   0.860   2.497  0.9203  1.0515  1.0172
 2134THY    HA653350   5.031   0.753   2.490 -2.7538  0.3273  1.1710
 2135THY      O53351   2.140   4.903   0.582 -0.1275 -0.1038 -0.0969
 2135THY     HO53352   2.054   4.883   0.623  1.6946 -1.7192  3.4149
 2135THY    CA153353   2.201   4.785   0.554  0.0827  0.5641  0.4055
 2135THY    CA253354   2.332   4.781   0.509  0.6088 -0.2405 -0.3409
 2135THY    CP153355   2.401   4.918   0.486 -0.7466 -0.1651 -0.0647
 2135THY    HP153356   2.359   4.994   0.553 -2.3922 -0.6853 -0.4512
 2135THY    CP253357   2.553   4.910   0.520  0.1158  0.0334  1.1222
 2135THY    HP253358   2.602   4.849   0.443 -1.8425 -1.7955  1.2502
 2135THY    HP353359   2.601   5.008   0.529  0.0724 -0.0665  2.6400
 2135THY    HP453360   2.552   4.859   0.617 -3.2064  0.8273  1.6500
 2135THY    CP353361   2.387   4.965   0.341 -0.3745 -0.2124 -0.2003
 2135THY    HP553362   2.438   5.062   0.332  0.4695 -0.3332  2.3326
 2135THY    HP653363   2.440   4.904   0.267 -0.9564  1.1925 -1.8148
 2135THY    HP753364   2.280   4.962   0.317 -0.0415 -2.6523 -1.7814
 2135THY    CA353365   2.403   4.657   0.496 -0.1324 -0.0716  0.0821
 2135THY    HA353366   2.506   4.655   0.460 -0.3306  1.9316 -0.6758
 2135THY    CA453367   2.331   4.535   0.513 -0.1918  0.0469  0.3012
 2135THY    HA453368   2.385   4.442   0.499  2.3197  1.6728 -1.5654
 2135THY    CA553369   2.199   4.541   0.551 -0.3179 -0.2896 -0.0826
 2135THY    CM153370   2.131   4.408   0.581 -0.9950 -0.1598 -0.8067
 2135THY    HM153371   2.168   4.338   0.505 -1.1701 -2.3582  1.0397
 2135THY    HM253372   2.153   4.369   0.681 -1.0781  2.2716  0.2221
 2135THY    HM353373   2.022   4.416   0.570 -1.0908  1.1818  0.6951
 2135THY    CA653374   2.134   4.667   0.575  0.2635  0.3386 -0.0712
 2135THY    HA653375   2.033   4.666   0.614  0.4128  0.8144  0.3308
 2136THY      O53376   7.252   7.015   2.454 -0.3775 -0.0368  0.0268
 2136THY     HO53377   7.195   7.077   2.405 -3.7387 -1.9258  1.2061
 2136THY    CA153378   7.266   6.908   2.378  0.0235 -0.1758  0.4321
 2136THY    CA253379   7.321   6.919   2.247 -0.4269  0.1061 -0.1379
 2136THY    CP153380   7.353   7.059   2.189  0.2328 -0.2976 -0.2597
 2136THY    HP153381   7.289   7.138   2.230  2.1738  1.8506 -1.1485
 2136THY    CP253382   7.491   7.103   2.237  0.2328 -0.0643  0.5873
 2136THY    HP253383   7.567   7.026   2.220  2.3734  2.1438 -0.5368
 2136THY    HP353384   7.506   7.190   2.171  0.1443 -0.1732  0.4241
 2136THY    HP453385   7.491   7.131   2.343  2.4287  0.4241  0.5092
 2136THY    CP353386   7.327   7.060   2.037 -0.2987  0.4332  0.2296
 2136THY    HP553387   7.302   7.162   2.007  1.6317  0.5219 -1.2767
 2136THY    HP653388   7.413   7.029   1.977 -0.5511 -0.2428  0.2044
 2136THY    HP753389   7.248   6.992   2.001  0.4237 -0.0793 -0.4179
 2136THY    CA353390   7.344   6.813   2.175  0.3435  0.1725  0.4159
 2136THY    HA353391   7.396   6.817   2.080  0.7917 -0.9745  0.5951
 2136THY    CA453392   7.297   6.689   2.219  0.7633 -0.1748  0.3047
 2136THY    HA453393   7.313   6.603   2.155  0.5594 -0.0210  0.0474
 2136THY    CA553394   7.240   6.675   2.349  0.0198 -0.3588 -0.8287
 2136THY    CM153395   7.180   6.542   2.388  0.4157  0.5248  0.3170
 2136THY    HM153396   7.205   6.503   2.487  1.0446  1.5052  0.5584
 2136THY    HM253397   7.071   6.557   2.398  0.3121 -0.3708  0.6455
 2136THY    HM353398   7.192   6.459   2.318 -1.7888 -0.6870  1.2755
 2136THY    CA653399   7.234   6.785   2.429 -0.2793 -0.2447 -0.8915
 2136THY    HA653400   7.195   6.792   2.530 -0.5923  1.8414 -1.1054
 2137THY      O53401   3.514   7.550   6.109  0.2376  0.1264  0.2052
 2137THY     HO53402   3.439   7.589   6.158 -1.3464  1.3509 -2.9500
 2137THY    CA153403   3.471   7.417   6.112 -0.6547 -0.4823  0.3348
 2137THY    CA253404   3.507   7.327   6.009  0.8493 -0.3401  0.0349
 2137THY    CP153405   3.593   7.380   5.894 -0.2482  0.0474  0.4108
 2137THY    HP153406   3.676   7.425   5.951  0.2140  0.3466 -0.4825
 2137THY    CP253407   3.650   7.265   5.811 -0.3068  0.3335  0.5369
 2137THY    HP253408   3.737   7.301   5.754 -0.7977  1.2350  0.3414
 2137THY    HP353409   3.685   7.184   5.876 -1.1002  0.7644  1.5261
 2137THY    HP453410   3.569   7.222   5.751 -0.2801 -0.1057  0.8099
 2137THY    CP353411   3.519   7.479   5.800 -0.5022  0.0494 -0.1813
 2137THY    HP553412   3.484   7.574   5.843 -2.5219 -1.1509  0.9536
 2137THY    HP653413   3.586   7.494   5.714 -0.9240  2.5932 -0.1424
 2137THY    HP753414   3.425   7.431   5.771 -2.1235  1.1999  2.7508
 2137THY    CA353415   3.446   7.199   6.013 -0.6550 -0.2402  0.5452
 2137THY    HA353416   3.473   7.119   5.946 -0.5198 -1.6694  2.2292
 2137THY    CA453417   3.368   7.155   6.121  0.0272 -0.3838 -0.0843
 2137THY    HA453418   3.302   7.069   6.113  0.2769 -0.7541  1.4675
 2137THY    CA553419   3.346   7.243   6.228  0.3569 -0.2914  0.2106
 2137THY    CM153420   3.260   7.204   6.344  0.0034 -0.2103  0.0329
 2137THY    HM153421   3.160   7.189   6.300 -0.0999  0.9585 -0.1748
 2137THY    HM253422   3.286   7.111   6.394 -1.2170 -0.2910  0.5598
 2137THY    HM353423   3.272   7.277   6.425  0.6082 -0.9257  0.6020
 2137THY    CA653424   3.398   7.373   6.217  0.2163  0.1486  0.1956
 2137THY    HA653425   3.385   7.444   6.299  0.3115  1.5088 -0.9197
 2138THY      O53426   5.069   4.371   2.752  0.0801 -0.8122  0.2207
 2138THY     HO53427   5.019   4.350   2.833  0.7674  0.0149  0.8696
 2138THY    CA153428   5.057   4.503   2.749 -1.0369  0.3600 -0.1923
 2138THY    CA253429   5.151   4.577   2.679  0.0462  0.2499  0.3243
 2138THY    CP153430   5.259   4.509   2.600 -0.4333 -0.1006 -0.4457
 2138THY    HP153431   5.226   4.418   2.548  0.9212 -0.9947  0.2130
 2138THY    CP253432   5.300   4.597   2.484  0.1061  0.5240 -0.1650
 2138THY    HP253433   5.208   4.645   2.449 -2.1950 -2.0974  1.8494
 2138THY    HP353434   5.379   4.666   2.513  0.4609 -0.4525  1.2865
 2138THY    HP453435   5.353   4.539   2.407  1.7090  2.2170 -0.3872
 2138THY    CP353436   5.384   4.483   2.695  0.3908  0.4277  0.1044
 2138THY    HP553437   5.411   4.577   2.743 -0.2395  0.6629  0.0022
 2138THY    HP653438   5.351   4.413   2.773 -0.2187 -0.8803 -1.2625
 2138THY    HP753439   5.467   4.442   2.636 -1.9717 -0.0619 -3.1670
 2138THY    CA353440   5.144   4.718   2.690 -0.1685  0.1072  0.3529
 2138THY    HA353441   5.210   4.785   2.636 -3.1570  3.3398  0.3077
 2138THY    CA453442   5.044   4.776   2.771 -0.1334 -0.5083 -0.0752
 2138THY    HA453443   5.042   4.884   2.772 -0.0088 -0.5093  0.2416
 2138THY    CA553444   4.947   4.703   2.831 -0.3055  0.4113  0.3250
 2138THY    CM153445   4.834   4.760   2.906 -0.4542 -0.3182 -0.2426
 2138THY    HM153446   4.839   4.728   3.011 -1.8251  0.3260  0.0413
 2138THY    HM253447   4.829   4.869   2.896  2.8469  0.0977  1.3627
 2138THY    HM353448   4.747   4.719   2.852  0.4813 -0.4578 -1.7151
 2138THY    CA653449   4.960   4.562   2.828  0.0507  0.3338 -0.6792
 2138THY    HA653450   4.898   4.499   2.891 -1.4682  0.0007 -2.4103
 2139THY      O53451   7.408   8.719   2.289 -0.6757 -0.5059 -0.0076
 2139THY     HO53452   7.467   8.643   2.308 -2.2545 -1.4736  1.2697
 2139THY    CA153453   7.440   8.771   2.167  0.0882 -0.0519 -0.5509
 2139THY    CA253454   7.415   8.903   2.138  1.2107  0.6585  0.0796
 2139THY    CP153455   7.343   8.983   2.243 -0.3461  0.6700 -0.5548
 2139THY    HP153456   7.280   8.927   2.312  0.5684  0.2399 -0.0442
 2139THY    CP253457   7.448   9.055   2.333  0.1997  0.2578  0.0951
 2139THY    HP253458   7.521   8.983   2.372  1.0395  0.5069 -0.9703
 2139THY    HP353459   7.511   9.123   2.276 -0.3317 -1.4633 -2.7367
 2139THY    HP453460   7.397   9.110   2.413  2.3645  0.8979  1.0971
 2139THY    CP353461   7.245   9.088   2.180 -0.0853  0.9023  0.0919
 2139THY    HP553462   7.177   9.036   2.112  0.2887 -1.0900  1.1610
 2139THY    HP653463   7.182   9.143   2.252  1.3725 -0.9296  2.9675
 2139THY    HP753464   7.304   9.163   2.126  0.1616 -0.8505 -2.1685
 2139THY    CA353465   7.462   8.957   2.017 -0.7148  0.6735 -0.4590
 2139THY    HA353466   7.444   9.062   1.995 -1.1146  0.4238 -1.3688
 2139THY    CA453467   7.520   8.869   1.926 -0.5103  0.5518  0.5910
 2139THY    HA453468   7.533   8.890   1.821  0.0742 -2.0168  0.0669
 2139THY    CA553469   7.546   8.735   1.957  0.4478  0.1700 -0.5553
 2139THY    CM153470   7.627   8.645   1.880  0.3397  1.0435  0.2509
 2139THY    HM153471   7.734   8.648   1.904  0.0520 -1.7966  2.5877
 2139THY    HM253472   7.584   8.544   1.882  0.1104  1.1460  1.8840
 2139THY    HM353473   7.631   8.675   1.775 -1.2572  0.9625  0.1377
 2139THY    CA653474   7.510   8.689   2.080  0.0114  0.3998  0.7830
 2139THY    HA653475   7.527   8.587   2.114  1.3405  0.4303  0.2689
 2140THY      O53476   9.826   5.322   0.028 -0.0376  0.2319  0.2370
 2140THY     HO53477   9.891   5.269   0.077  0.3282  0.0313 -0.4510
 2140THY    CA153478   9.792   5.244  -0.084  0.3266 -0.5804  0.1331
 2140THY    CA253479   9.690   5.281  -0.170  0.8812 -0.1260 -0.3662
 2140THY    CP153480   9.598   5.406  -0.137 -0.1537  0.6421  0.1893
 2140THY    HP153481   9.620   5.457  -0.043  0.8944  0.9527 -0.2035
 2140THY    CP253482   9.609   5.513  -0.243 -0.3756 -0.3223  0.0802
 2140THY    HP253483   9.558   5.486  -0.336 -2.0346 -2.6714  1.5828
 2140THY    HP353484   9.569   5.610  -0.211 -0.1754  0.1070 -0.9262
 2140THY    HP453485   9.716   5.526  -0.266  0.0561 -0.1661  1.9839
 2140THY    CP353486   9.446   5.375  -0.136 -0.2741  0.5550  0.1766
 2140THY    HP553487   9.416   5.294  -0.069 -2.5146  0.6916 -0.5799
 2140THY    HP653488   9.388   5.463  -0.103 -1.1278  0.0998 -0.0731
 2140THY    HP753489   9.418   5.344  -0.237  0.5209 -2.8969  0.8860
 2140THY    CA353490   9.670   5.203  -0.288 -0.1042 -0.1142  0.3474
 2140THY    HA353491   9.578   5.223  -0.342 -1.7963 -3.5133  1.7019
 2140THY    CA453492   9.750   5.093  -0.318  0.1110 -0.0941  0.0921
 2140THY    HA453493   9.733   5.027  -0.403  0.2879 -0.7358  0.5501
 2140THY    CA553494   9.848   5.050  -0.225 -0.0494 -0.6634 -0.3225
 2140THY    CM153495   9.925   4.926  -0.260  0.0311  0.1950 -0.3765
 2140THY    HM153496  10.033   4.930  -0.240 -0.1040 -1.5160  0.8806
 2140THY    HM253497   9.888   4.829  -0.225 -0.1212 -0.3940 -2.0482
 2140THY    HM353498   9.920   4.922  -0.370 -2.2885 -0.6292 -0.2885
 2140THY    CA653499   9.868   5.122  -0.105 -0.1807  0.4925  0.8170
 2140THY    HA653500   9.945   5.096  -0.032 -0.3113 -0.4572  0.6235
 2141THY      O53501   5.600   7.159   3.414  0.3957  0.3456 -0.1881
 2141THY     HO53502   5.615   7.226   3.345 -1.0791 -1.4394 -2.4060
 2141THY    CA153503   5.624   7.038   3.364 -0.4056  0.1537 -0.4451
 2141THY    CA253504   5.628   6.927   3.443  0.2951  0.5006 -0.6216
 2141THY    CP153505   5.601   6.936   3.593 -0.5002 -0.3947 -0.2004
 2141THY    HP153506   5.549   7.029   3.619 -2.4552 -1.8181  1.2833
 2141THY    CP253507   5.496   6.833   3.623 -0.2319 -0.2544 -0.5688
 2141THY    HP253508   5.538   6.733   3.619  0.9427  0.1737  0.5763
 2141THY    HP353509   5.455   6.854   3.723  1.1630 -1.2690  0.2444
 2141THY    HP453510   5.407   6.830   3.558 -1.1045 -0.8782  0.6195
 2141THY    CP353511   5.725   6.911   3.690  0.4659  0.4685 -0.5845
 2141THY    HP553512   5.769   7.004   3.728 -0.8119  0.3774  1.2824
 2141THY    HP653513   5.695   6.862   3.784 -0.4415  1.9385 -0.0658
 2141THY    HP753514   5.807   6.856   3.643  1.0480  0.6238  0.2330
 2141THY    CA353515   5.652   6.804   3.381  0.9020  0.1715 -0.1005
 2141THY    HA353516   5.666   6.717   3.445  0.8802 -0.0233 -0.3558
 2141THY    CA453517   5.657   6.792   3.243  0.3890 -0.4445  0.1190
 2141THY    HA453518   5.686   6.699   3.194  1.7810  0.0926 -0.1501
 2141THY    CA553519   5.660   6.909   3.167 -0.1993  0.2121 -0.5466
 2141THY    CM153520   5.695   6.898   3.022 -0.9361 -0.3066  0.1492
 2141THY    HM153521   5.608   6.905   2.955  1.0238 -2.3878 -2.8705
 2141THY    HM253522   5.765   6.982   3.014  0.5567 -1.4539  0.8778
 2141THY    HM353523   5.749   6.807   2.993 -1.7638 -0.3804 -1.2269
 2141THY    CA653524   5.636   7.029   3.224  0.3285  0.2720  0.2517
 2141THY    HA653525   5.630   7.109   3.150  0.1641 -1.0897 -1.2434
 2142THY      O53526   1.204   6.289   3.389  0.3337  0.1792 -0.1288
 2142THY     HO53527   1.222   6.248   3.476 -0.2480 -1.5276 -0.7674
 2142THY    CA153528   1.321   6.343   3.353  0.7041  0.0482  0.1409
 2142THY    CA253529   1.332   6.426   3.236  0.2705 -0.7027 -0.2155
 2142THY    CP153530   1.210   6.455   3.156 -0.0579 -0.9862 -0.8829
 2142THY    HP153531   1.128   6.385   3.179 -1.3837  0.9148  0.4561
 2142THY    CP253532   1.168   6.608   3.174  0.4679  0.8570 -0.3067
 2142THY    HP253533   1.084   6.631   3.107 -0.8640  2.5713  1.7973
 2142THY    HP353534   1.137   6.617   3.279  0.0428  0.1418 -0.3661
 2142THY    HP453535   1.247   6.680   3.147 -0.3190  1.8060 -0.1463
 2142THY    CP353536   1.243   6.429   3.007  0.4878 -0.2810  0.0590
 2142THY    HP553537   1.307   6.508   2.966  1.7453 -0.5957  1.3603
 2142THY    HP653538   1.279   6.326   3.002 -2.1358 -1.4479  2.5198
 2142THY    HP753539   1.146   6.421   2.955  0.7655 -1.2066 -0.3299
 2142THY    CA353540   1.455   6.470   3.194  0.1200  0.2774  0.1116
 2142THY    HA353541   1.471   6.539   3.111  1.2982  0.7610  0.7151
 2142THY    CA453542   1.568   6.421   3.262 -0.0166 -0.0759  0.8332
 2142THY    HA453543   1.669   6.448   3.230 -1.5140  0.5949 -4.1501
 2142THY    CA553544   1.557   6.337   3.375 -0.2857 -0.3060  0.2635
 2142THY    CM153545   1.673   6.308   3.452 -0.6920  0.1872 -0.6456
 2142THY    HM153546   1.768   6.343   3.408  0.6613 -2.3747  0.0774
 2142THY    HM253547   1.662   6.356   3.550  2.7852  3.2630 -1.5160
 2142THY    HM353548   1.681   6.201   3.474  2.2576  0.0190 -1.9338
 2142THY    CA653549   1.434   6.298   3.422 -0.2128  0.0315  0.3352
 2142THY    HA653550   1.424   6.223   3.500 -0.6051 -0.2528  0.0196
 2143THY      O53551   1.545   4.805   8.437  0.5250 -0.0500  0.4655
 2143THY     HO53552   1.482   4.846   8.499 -0.4084  1.0944 -1.1516
 2143THY    CA153553   1.469   4.790   8.319 -0.0075  1.1133 -0.6979
 2143THY    CA253554   1.513   4.702   8.214  0.0977 -0.7578 -0.0013
 2143THY    CP153555   1.647   4.631   8.223  0.9277 -0.7021 -0.1460
 2143THY    HP153556   1.692   4.659   8.319  0.7671 -0.8817 -0.0164
 2143THY    CP253557   1.627   4.479   8.226 -0.0482  0.2531 -0.5666
 2143THY    HP253558   1.605   4.435   8.128  1.1608 -2.1599  0.1616
 2143THY    HP353559   1.717   4.424   8.255  0.1949 -0.0187 -1.7941
 2143THY    HP453560   1.552   4.465   8.304  2.2612  1.1247  1.9647
 2143THY    CP353561   1.734   4.666   8.105 -0.1415 -0.3222 -0.2753
 2143THY    HP553562   1.741   4.774   8.086  3.1442  0.3652  3.6531
 2143THY    HP653563   1.836   4.636   8.130 -0.0262 -0.7937 -1.2412
 2143THY    HP753564   1.704   4.609   8.016 -0.3483  0.5997 -0.8074
 2143THY    CA353565   1.430   4.682   8.104 -0.0048  0.4856  0.3081
 2143THY    HA353566   1.464   4.626   8.018 -0.8626 -0.7498  0.7420
 2143THY    CA453567   1.308   4.749   8.100  0.0479 -0.5309 -0.5487
 2143THY    HA453568   1.244   4.738   8.013 -0.1088  0.3898 -0.5609
 2143THY    CA553569   1.265   4.839   8.198 -0.4834  0.4345  0.4920
 2143THY    CM153570   1.132   4.903   8.201 -0.5809 -0.6306 -0.0705
 2143THY    HM153571   1.138   4.997   8.257  0.0394 -0.3456 -0.5968
 2143THY    HM253572   1.098   4.934   8.101  1.5498 -1.1624 -1.0251
 2143THY    HM353573   1.057   4.845   8.255 -0.3155  1.7677  3.1611
 2143THY    CA653574   1.342   4.847   8.317 -0.5271 -0.7989  0.6322
 2143THY    HA653575   1.303   4.917   8.390  1.3295 -1.7878  2.6987
 2144THY      O53576   3.827   3.336   4.757  0.3299  0.3581  0.1372
 2144THY     HO53577   3.850   3.243   4.772  0.3505  0.3603  0.1189
 2144THY    CA153578   3.821   3.355   4.632 -0.3847  0.1072  0.3909
 2144THY    CA253579   3.785   3.480   4.580 -0.4263 -0.5437  0.3118
 2144THY    CP153580   3.734   3.578   4.686 -0.3077 -0.0699  0.4902
 2144THY    HP153581   3.686   3.519   4.765 -0.3209  0.0683  0.5863
 2144THY    CP253582   3.860   3.654   4.746  0.3271 -0.1918 -0.1203
 2144THY    HP253583   3.890   3.732   4.675  2.1864 -0.9641 -0.2539
 2144THY    HP353584   3.837   3.716   4.833 -0.7255  1.3086 -1.3950
 2144THY    HP453585   3.945   3.587   4.762 -1.2278 -1.8101  1.8326
 2144THY    CP353586   3.623   3.672   4.638 -0.1943 -0.3154 -0.4997
 2144THY    HP553587   3.596   3.740   4.719  0.9263 -0.0349 -0.3415
 2144THY    HP653588   3.659   3.728   4.551  0.0371  0.4125  0.0504
 2144THY    HP753589   3.533   3.617   4.609 -1.6349  0.2871  2.5026
 2144THY    CA353590   3.779   3.505   4.439  1.4606  0.6022 -0.3469
 2144THY    HA353591   3.731   3.591   4.394 -1.2708 -2.9792 -5.2034
 2144THY    CA453592   3.815   3.394   4.363  0.6216 -0.6318  0.0847
 2144THY    HA453593   3.808   3.415   4.256 -0.6054  1.1803  0.4735
 2144THY    CA553594   3.869   3.273   4.411  0.2686 -0.1385  0.1992
 2144THY    CM153595   3.907   3.166   4.320  0.1728  0.2180  0.7454
 2144THY    HM153596   3.972   3.091   4.366  0.4157  0.9084  1.5561
 2144THY    HM253597   3.817   3.113   4.286  0.3372  0.0166  0.6300
 2144THY    HM353598   3.956   3.195   4.227  0.0512  2.5785  1.3446
 2144THY    CA653599   3.871   3.255   4.551  0.1444  0.2566 -0.1822
 2144THY    HA653600   3.913   3.165   4.595  0.3989  0.8499  0.8000
 2145THY      O53601   1.417   0.375   9.306 -0.0282  0.4148  0.6091
 2145THY     HO53602   1.402   0.319   9.227 -1.2221  1.3462  0.1516
 2145THY    CA153603   1.312   0.338   9.385 -0.4623 -0.5742  0.0338
 2145THY    CA253604   1.287   0.407   9.509  1.1042 -0.5784 -0.1153
 2145THY    CP153605   1.378   0.514   9.562 -0.2358  0.3606  0.3193
 2145THY    HP153606   1.463   0.528   9.495 -0.1934 -2.5688 -0.3580
 2145THY    CP253607   1.295   0.651   9.568 -0.2201  0.2779  0.2106
 2145THY    HP253608   1.291   0.707   9.473  1.7050  1.3290  0.6971
 2145THY    HP353609   1.194   0.632   9.604 -0.0398 -0.3343  0.3958
 2145THY    HP453610   1.342   0.719   9.640 -0.0333 -0.2993  0.6440
 2145THY    CP353611   1.430   0.474   9.695 -0.7385  0.4741  0.2259
 2145THY    HP553612   1.518   0.535   9.718 -0.6749  0.6899 -0.5548
 2145THY    HP653613   1.352   0.478   9.771  1.3921 -1.4093  2.6765
 2145THY    HP753614   1.461   0.369   9.690  0.3489  0.6867  1.7423
 2145THY    CA353615   1.167   0.362   9.581 -1.1374 -0.3481  0.3607
 2145THY    HA353616   1.134   0.417   9.669  0.6405  3.3979 -1.0878
 2145THY    CA453617   1.088   0.258   9.533  0.2631 -0.5349 -0.8071
 2145THY    HA453618   1.010   0.215   9.595  0.6123 -0.9953 -0.6871
 2145THY    CA553619   1.114   0.206   9.411  0.1997  0.2629  0.5591
 2145THY    CM153620   1.013   0.101   9.342 -0.2205  0.7209  0.1957
 2145THY    HM153621   1.001   0.116   9.235  1.9192  0.5717 -0.1155
 2145THY    HM253622   1.047  -0.000   9.370 -2.1358  0.7977  3.3267
 2145THY    HM353623   0.916   0.115   9.391  0.9508 -0.0293  2.9510
 2145THY    CA653624   1.218   0.252   9.330  0.1072  0.5045  0.6353
 2145THY    HA653625   1.223   0.225   9.225 -0.0377  0.3721  0.6616
 2146THY      O53626   7.933   8.511   6.852 -0.2124  0.3566  0.0557
 2146THY     HO53627   7.964   8.572   6.783  1.4524 -1.7601 -1.2315
 2146THY    CA153628   7.798   8.529   6.867  0.7164  0.1794 -0.3218
 2146THY    CA253629   7.717   8.436   6.944 -0.4780 -0.3209  0.1730
 2146THY    CP153630   7.777   8.311   7.010 -0.0919 -0.3542 -0.2971
 2146THY    HP153631   7.844   8.269   6.935 -0.8299  1.1358 -1.8413
 2146THY    CP253632   7.852   8.351   7.136  0.2232  0.0011  0.9071
 2146THY    HP253633   7.888   8.265   7.192 -2.0754 -3.2808 -2.1982
 2146THY    HP353634   7.932   8.423   7.114  0.7694 -0.4738  1.3116
 2146THY    HP453635   7.771   8.400   7.191 -3.5613 -2.0320 -2.2766
 2146THY    CP353636   7.680   8.191   7.050  0.3644 -0.1109  0.4189
 2146THY    HP553637   7.619   8.176   6.959 -0.6563  0.4451  0.9897
 2146THY    HP653638   7.738   8.110   7.094  4.0200  1.2048 -1.5039
 2146THY    HP753639   7.610   8.222   7.128 -2.1814 -0.3438 -1.6234
 2146THY    CA353640   7.584   8.471   6.972 -0.0630 -0.1538 -0.5573
 2146THY    HA353641   7.526   8.405   7.036  0.4661 -0.9617 -0.9035
 2146THY    CA453642   7.528   8.594   6.928 -0.1039  0.0443 -0.3567
 2146THY    HA453643   7.433   8.627   6.967  0.0105  0.2370 -0.2424
 2146THY    CA553644   7.603   8.678   6.836 -0.1339  0.6426  0.6149
 2146THY    CM153645   7.537   8.796   6.769  0.2975 -0.6829 -0.0657
 2146THY    HM153646   7.610   8.871   6.735  2.1388 -1.9699  0.8274
 2146THY    HM253647   7.485   8.763   6.679 -3.7253  0.1347  1.7561
 2146THY    HM353648   7.464   8.837   6.840  2.1628  0.8239  1.0811
 2146THY    CA653649   7.740   8.644   6.815 -0.0558 -1.0805 -0.0645
 2146THY    HA653650   7.800   8.719   6.764 -0.6516 -0.7913 -0.3549
 2147THY      O53651   2.291   2.653   8.234  0.3136 -0.5188 -0.1891
 2147THY     HO53652   2.249   2.690   8.314  0.2574  0.2999 -0.5924
 2147THY    CA153653   2.191   2.597   8.160 -0.0810  0.4038 -0.0291
 2147THY    CA253654   2.199   2.592   8.019 -0.2288  0.1566 -0.3201
 2147THY    CP153655   2.330   2.636   7.948 -0.1144 -0.3600  0.4325
 2147THY    HP153656   2.416   2.644   8.015 -0.6228  0.2254  1.0277
 2147THY    CP253657   2.384   2.533   7.839 -0.4489 -0.4535  0.0136
 2147THY    HP253658   2.451   2.458   7.883 -1.0544 -0.4128  1.0575
 2147THY    HP353659   2.301   2.499   7.776 -0.5906 -0.6680  0.3109
 2147THY    HP453660   2.444   2.591   7.769 -0.7734  0.3976  0.4116
 2147THY    CP353661   2.302   2.774   7.884 -0.4032  0.3065  0.1676
 2147THY    HP553662   2.387   2.811   7.826 -0.3088  1.3863  0.9575
 2147THY    HP653663   2.216   2.769   7.816 -1.1836  0.0481  1.1273
 2147THY    HP753664   2.284   2.856   7.955  1.1756  1.3202 -0.5621
 2147THY    CA353665   2.085   2.548   7.952  0.2303 -0.1193 -0.5394
 2147THY    HA353666   2.080   2.564   7.845  0.9315  0.2995 -0.5157
 2147THY    CA453667   1.977   2.507   8.026  0.2234  0.2765 -0.1398
 2147THY    HA453668   1.888   2.484   7.968 -0.0506  2.9517 -0.9493
 2147THY    CA553669   1.963   2.510   8.165 -0.4565 -0.4306 -0.2679
 2147THY    CM153670   1.842   2.463   8.241 -0.5217 -0.0301 -0.3967
 2147THY    HM153671   1.859   2.473   8.349 -0.9710 -1.4948 -0.1711
 2147THY    HM253672   1.754   2.523   8.216  0.4205  0.9996 -1.3377
 2147THY    HM353673   1.828   2.357   8.217  0.4369 -0.4594  0.8043
 2147THY    CA653674   2.081   2.551   8.230  0.2933 -0.5793 -0.4912
 2147THY    HA653675   2.089   2.539   8.337  2.3220 -0.1742 -0.5562
 2148THY      O53676   0.701   8.591   1.911  0.2255  0.6300 -0.2862
 2148THY     HO53677   0.660   8.534   1.844 -0.5238  0.7410  0.0734
 2148THY    CA153678   0.712   8.526   2.032 -0.6788  0.1337  0.7902
 2148THY    CA253679   0.720   8.611   2.143 -0.1127  0.3036  0.2673
 2148THY    CP153680   0.706   8.761   2.129  0.4163 -0.3595 -0.2579
 2148THY    HP153681   0.649   8.780   2.037  1.2455 -0.2434 -0.7634
 2148THY    CP253682   0.639   8.831   2.248 -0.3443 -0.8111 -0.0859
 2148THY    HP253683   0.634   8.937   2.221  0.7106 -0.3530  1.4022
 2148THY    HP353684   0.548   8.781   2.282 -1.3525 -0.4563 -2.0858
 2148THY    HP453685   0.715   8.830   2.327  0.8733 -1.6926 -1.2246
 2148THY    CP353686   0.843   8.832   2.117  0.0448 -0.5203 -0.1624
 2148THY    HP553687   0.902   8.803   2.029  0.4961 -0.9935  0.2899
 2148THY    HP653688   0.834   8.939   2.096  1.8329 -0.3402 -0.2363
 2148THY    HP753689   0.899   8.809   2.208  0.3907 -1.2199 -0.5431
 2148THY    CA353690   0.750   8.545   2.261 -0.8181 -0.4307 -0.1473
 2148THY    HA353691   0.768   8.606   2.348  2.3360  0.2473 -1.1355
 2148THY    CA453692   0.769   8.403   2.269 -0.1370 -0.0882 -0.4315
 2148THY    HA453693   0.796   8.362   2.366  1.3720  0.0789 -0.7650
 2148THY    CA553694   0.751   8.320   2.154  0.5130 -0.1405  0.4959
 2148THY    CM153695   0.752   8.165   2.153  0.3454 -0.6098  0.0143
 2148THY    HM153696   0.738   8.121   2.252  0.0080  1.4811  0.9482
 2148THY    HM253697   0.684   8.124   2.077  1.6923  1.5253 -2.5137
 2148THY    HM353698   0.852   8.135   2.121 -0.2563 -1.9212 -0.7495
 2148THY    CA653699   0.729   8.387   2.038 -0.0712 -0.3179 -0.0186
 2148THY    HA653700   0.738   8.327   1.948 -0.5860 -1.3664  0.6015
 2149THY      O53701   1.875   9.058   8.844 -0.1127  0.1014  0.6328
 2149THY     HO53702   1.797   9.111   8.819  0.8831  1.8087  0.9798
 2149THY    CA153703   1.980   9.137   8.797 -0.3439  1.1975  0.9434
 2149THY    CA253704   1.970   9.211   8.678 -0.1650  0.6588  0.2464
 2149THY    CP153705   1.849   9.197   8.585 -0.3892 -0.1595 -0.0151
 2149THY    HP153706   1.783   9.122   8.630 -0.1704  0.0186  0.6068
 2149THY    CP253707   1.775   9.331   8.568  0.3820  0.1006  0.7006
 2149THY    HP253708   1.719   9.367   8.655 -1.2488  2.5831 -1.2382
 2149THY    HP353709   1.841   9.415   8.544 -0.3265  1.7167  3.9649
 2149THY    HP453710   1.702   9.335   8.486 -1.0323  1.5367  1.9809
 2149THY    CP353711   1.888   9.132   8.454 -0.3410 -0.6459  0.5021
 2149THY    HP553712   1.810   9.121   8.377 -0.0185 -1.2191  0.2547
 2149THY    HP653713   1.961   9.196   8.404 -0.6630 -1.3470 -0.8985
 2149THY    HP753714   1.938   9.038   8.480 -0.3289 -0.5307  0.9135
 2149THY    CA353715   2.084   9.288   8.634  0.3112 -0.1973  0.0267
 2149THY    HA353716   2.084   9.341   8.539 -3.3782 -2.6568 -1.5886
 2149THY    CA453717   2.195   9.302   8.720  0.1903 -0.6960  0.0404
 2149THY    HA453718   2.283   9.356   8.686 -0.5859  0.5536 -0.0295
 2149THY    CA553719   2.203   9.225   8.839 -0.9642 -0.7769 -0.0425
 2149THY    CM153720   2.328   9.234   8.914  0.1052  0.2143 -0.4656
 2149THY    HM153721   2.347   9.339   8.941 -0.7330  0.1492  0.4241
 2149THY    HM253722   2.326   9.159   8.994 -0.0892 -0.4119 -1.0524
 2149THY    HM353723   2.412   9.206   8.849  1.3297  0.5487  0.9215
 2149THY    CA653724   2.100   9.142   8.882  0.2505 -0.1673 -0.0057
 2149THY    HA653725   2.108   9.079   8.969 -1.4851  0.1942  0.4545
 2150THY      O53726   1.224   4.468   3.689  0.0412 -0.7370  0.2936
 2150THY     HO53727   1.166   4.428   3.622  1.3951 -2.3052  0.0017
 2150THY    CA153728   1.171   4.589   3.718 -0.2901 -0.1667 -0.3712
 2150THY    CA253729   1.230   4.682   3.810  0.1101  0.1344  0.5389
 2150THY    CP153730   1.349   4.650   3.900  0.1557 -0.0735  0.0918
 2150THY    HP153731   1.377   4.547   3.877  2.9618  1.0427 -1.9666
 2150THY    CP253732   1.465   4.740   3.864  0.6797  0.3795  0.5254
 2150THY    HP253733   1.497   4.741   3.759  1.9688  2.9023  0.8583
 2150THY    HP353734   1.444   4.843   3.895  1.7682  1.0604 -0.8979
 2150THY    HP453735   1.555   4.713   3.921  0.9218 -0.2681 -0.1475
 2150THY    CP353736   1.308   4.660   4.048  0.5533 -0.0109  0.4647
 2150THY    HP553737   1.397   4.634   4.107  0.4650  1.1500  1.1454
 2150THY    HP653738   1.276   4.759   4.083 -1.7651 -0.5046 -0.1114
 2150THY    HP753739   1.236   4.580   4.071  1.3449 -0.5331  1.1999
 2150THY    CA353740   1.163   4.809   3.827 -0.4555  0.5683  0.2159
 2150THY    HA353741   1.205   4.880   3.898  0.6645 -0.4353  0.5798
 2150THY    CA453742   1.061   4.843   3.731 -0.2414  0.0266  0.8163
 2150THY    HA453743   1.025   4.945   3.723  1.8426  0.9974  2.9711
 2150THY    CA553744   1.006   4.751   3.649  0.2353  0.0177 -0.5018
 2150THY    CM153745   0.895   4.787   3.553 -0.4637  0.2673  0.0365
 2150THY    HM153746   0.796   4.790   3.598 -0.1808  1.3243  0.6347
 2150THY    HM253747   0.910   4.883   3.502  0.5558 -0.8138 -1.8460
 2150THY    HM353748   0.887   4.719   3.467 -1.3889  0.6059 -0.1559
 2150THY    CA653749   1.051   4.622   3.655 -0.4198 -0.3620 -0.1153
 2150THY    HA653750   1.003   4.540   3.601 -2.8482  0.8280  0.0847
 2151THY      O53751   9.167   7.168   1.671  0.4576  0.0218 -0.4550
 2151THY     HO53752   9.158   7.078   1.636 -0.8260  0.1147 -0.4270
 2151THY    CA153753   9.081   7.172   1.772  0.2582 -0.3569  0.1340
 2151THY    CA253754   9.083   7.269   1.872  0.5522 -0.2036  0.3971
 2151THY    CP153755   9.213   7.354   1.884  0.0850  0.1387  0.0795
 2151THY    HP153756   9.260   7.363   1.785  0.4842 -3.0157 -0.1117
 2151THY    CP253757   9.195   7.495   1.941 -1.0444 -0.0896 -0.5536
 2151THY    HP253758   9.287   7.550   1.917 -0.6891  0.6706  2.2109
 2151THY    HP353759   9.111   7.536   1.884 -0.6601 -0.4932 -1.4317
 2151THY    HP453760   9.174   7.506   2.047 -2.7034  0.2703 -0.8966
 2151THY    CP353761   9.324   7.285   1.967  1.0743  0.2038 -0.1942
 2151THY    HP553762   9.285   7.268   2.068 -0.2617 -0.8258 -0.8508
 2151THY    HP653763   9.358   7.190   1.924  0.3609  0.9575 -2.5789
 2151THY    HP753764   9.401   7.362   1.974  1.5461 -0.1697 -1.0870
 2151THY    CA353765   8.973   7.274   1.967 -0.0340  0.6521 -0.2720
 2151THY    HA353766   8.981   7.342   2.051 -1.1647  1.6178 -0.9197
 2151THY    CA453767   8.869   7.171   1.955 -0.3577 -0.3052  0.5235
 2151THY    HA453768   8.780   7.165   2.017 -3.0410  0.1815 -2.9301
 2151THY    CA553769   8.869   7.086   1.845 -0.1776 -0.4212 -0.7248
 2151THY    CM153770   8.766   6.987   1.825 -0.1055  0.5013 -0.0544
 2151THY    HM153771   8.680   7.002   1.892 -0.8162  0.9544 -1.0334
 2151THY    HM253772   8.727   6.980   1.723 -0.7804  0.0680  0.2309
 2151THY    HM353773   8.809   6.888   1.841 -1.4336 -0.2845 -1.0738
 2151THY    CA653774   8.977   7.085   1.755  0.4991 -0.2194  0.0418
 2151THY    HA653775   8.974   7.013   1.674  2.0405 -0.0079 -0.2228
 2152THY      O53776   7.000   5.985   6.401  0.8521 -0.1048  0.0471
 2152THY     HO53777   6.979   5.941   6.486  1.9562 -1.8775 -0.5387
 2152THY    CA153778   6.943   6.113   6.408  0.3860  0.4288 -0.0126
 2152THY    CA253779   6.938   6.188   6.293 -0.0403  0.3947  0.1749
 2152THY    CP153780   7.008   6.135   6.162 -0.3448 -0.4510  1.4864
 2152THY    HP153781   7.096   6.073   6.185 -0.8751 -1.9514 -0.2732
 2152THY    CP253782   6.913   6.058   6.070  0.4678  0.3618  0.3957
 2152THY    HP253783   6.961   6.018   5.980 -0.2681 -2.2252  1.0692
 2152THY    HP353784   6.874   5.970   6.123  0.5508  1.2390  1.9782
 2152THY    HP453785   6.819   6.111   6.054  0.4485  1.3874  3.3074
 2152THY    CP353786   7.055   6.247   6.063 -0.3203 -0.1703 -0.5282
 2152THY    HP553787   6.981   6.295   5.997 -2.1751  1.0565  2.2243
 2152THY    HP653788   7.077   6.331   6.130 -1.3178  1.5227 -2.2161
 2152THY    HP753789   7.142   6.216   6.005  0.7383 -0.6794  1.2386
 2152THY    CA353790   6.883   6.322   6.296  0.6348  0.1757 -0.0266
 2152THY    HA353791   6.872   6.381   6.205  2.0289 -0.4610 -0.6320
 2152THY    CA453792   6.824   6.365   6.422  0.0213  0.1475  0.2668
 2152THY    HA453793   6.772   6.460   6.418  1.1560  0.8643  1.6237
 2152THY    CA553794   6.832   6.280   6.537  0.2668 -0.4870  0.5767
 2152THY    CM153795   6.771   6.334   6.662 -0.0525  0.0766 -0.0640
 2152THY    HM153796   6.834   6.418   6.694  0.4316 -1.0755  2.1864
 2152THY    HM253797   6.670   6.371   6.638 -0.3056 -1.4686 -1.5515
 2152THY    HM353798   6.756   6.264   6.745 -0.1180  1.7691  1.4123
 2152THY    CA653799   6.885   6.151   6.527  0.6070 -0.2487  0.4403
 2152THY    HA653800   6.875   6.090   6.616 -0.9652  1.4722  1.5223
 2153THY      O53801   0.252   4.016   6.170  0.2204 -0.9209  0.2766
 2153THY     HO53802   0.228   4.044   6.080  2.1364 -3.1607 -1.0573
 2153THY    CA153803   0.215   4.121   6.246  0.5547 -0.1791 -0.9453
 2153THY    CA253804   0.249   4.125   6.375  1.6415 -0.0033 -0.4416
 2153THY    CP153805   0.351   4.026   6.438 -0.9164  0.1551 -0.9255
 2153THY    HP153806   0.344   3.928   6.390 -1.2421  0.7038 -2.0194
 2153THY    CP253807   0.496   4.083   6.438  0.1072  0.0234 -0.9468
 2153THY    HP253808   0.532   4.099   6.336  0.8804 -1.8569 -1.0049
 2153THY    HP353809   0.496   4.179   6.491 -1.3692 -0.2114 -0.4537
 2153THY    HP453810   0.563   4.024   6.500  1.1004 -0.2607 -2.2544
 2153THY    CP353811   0.306   3.993   6.585  0.2085 -0.1279  0.6812
 2153THY    HP553812   0.342   4.074   6.650  1.7862 -0.5835  0.4080
 2153THY    HP653813   0.197   3.983   6.590  0.0077  1.5706  0.4430
 2153THY    HP753814   0.359   3.910   6.632  1.4027 -0.3964 -1.0264
 2153THY    CA353815   0.219   4.242   6.449  0.2910  0.7512 -0.0358
 2153THY    HA353816   0.260   4.247   6.549  0.9060  1.5319 -0.3182
 2153THY    CA453817   0.137   4.339   6.390 -0.3036  0.1062 -0.4974
 2153THY    HA453818   0.104   4.423   6.450 -0.7116 -2.1793  2.7309
 2153THY    CA553819   0.099   4.328   6.261 -0.6784  0.3384 -0.0286
 2153THY    CM153820   0.014   4.430   6.193  0.3845  0.2789  0.0312
 2153THY    HM153821  -0.003   4.396   6.090 -1.3206  0.9510  0.0735
 2153THY    HM253822  -0.083   4.452   6.238  2.3332  4.2293  2.8979
 2153THY    HM353823   0.078   4.518   6.186  1.7609 -0.4381  2.3346
 2153THY    CA653824   0.139   4.219   6.183 -0.4770  0.2190  0.3449
 2153THY    HA653825   0.112   4.214   6.078 -0.3404  0.3774  0.3030
 2154THY      O53826   5.886   0.506   6.123  0.2788 -0.1602  0.8497
 2154THY     HO53827   5.872   0.589   6.074 -0.9509  0.6222  2.4277
 2154THY    CA153828   5.758   0.464   6.136  0.1399 -0.4726 -0.0901
 2154THY    CA253829   5.717   0.350   6.196 -0.4052  0.7164  0.0491
 2154THY    CP153830   5.815   0.251   6.262 -0.3140 -0.1088  0.9078
 2154THY    HP153831   5.920   0.282   6.254  0.2337 -1.6565  1.6442
 2154THY    CP253832   5.795   0.240   6.412 -0.0439  0.2941 -0.0126
 2154THY    HP253833   5.713   0.175   6.443  1.5677 -2.0811 -0.4777
 2154THY    HP353834   5.878   0.189   6.462 -0.5708  0.0999  0.6826
 2154THY    HP453835   5.786   0.341   6.455  1.5469  0.2393  0.5398
 2154THY    CP353836   5.802   0.113   6.191 -0.8316  0.5348 -0.6656
 2154THY    HP553837   5.702   0.075   6.215 -0.9127  1.6865  0.9743
 2154THY    HP653838   5.818   0.122   6.083  3.1117 -1.8981 -0.4572
 2154THY    HP753839   5.874   0.043   6.235 -1.5112 -0.6944 -1.4398
 2154THY    CA353840   5.575   0.323   6.211  0.4044 -0.1174  0.3520
 2154THY    HA353841   5.534   0.243   6.272 -2.6205 -0.1978 -1.5565
 2154THY    CA453842   5.483   0.403   6.154 -0.1416  0.3242  0.0262
 2154THY    HA453843   5.376   0.394   6.174 -0.2694  0.0866 -0.7057
 2154THY    CA553844   5.532   0.520   6.083 -0.1603  0.5298  0.3130
 2154THY    CM153845   5.431   0.605   6.014 -0.4840  0.1626  0.1194
 2154THY    HM153846   5.432   0.704   6.061  0.2014 -0.6037  1.7896
 2154THY    HM253847   5.445   0.607   5.905 -1.3361  2.0424  0.0090
 2154THY    HM353848   5.333   0.555   6.023 -1.6360  2.2223 -0.4300
 2154THY    CA653849   5.667   0.552   6.079 -0.7320  0.1953 -0.8141
 2154THY    HA653850   5.701   0.637   6.022 -0.4308  1.5378  1.2796
 2155THY      O53851   8.039   3.595   1.158  0.0454 -0.6412  0.0414
 2155THY     HO53852   8.040   3.559   1.248 -1.5824  2.6352  1.5387
 2155THY    CA153853   8.022   3.485   1.077  0.6167 -0.1244  0.0905
 2155THY    CA253854   7.904   3.475   0.994 -0.5897 -0.2582  0.2741
 2155THY    CP153855   7.803   3.596   0.990 -0.6357  0.1249  1.1572
 2155THY    HP153856   7.819   3.652   1.083 -0.7473  2.1734  0.0109
 2155THY    CP253857   7.816   3.700   0.874 -0.8462 -0.2651  0.1982
 2155THY    HP253858   7.750   3.787   0.874 -0.1140  0.3030 -0.4499
 2155THY    HP353859   7.918   3.739   0.868 -0.8096 -0.4139 -0.1914
 2155THY    HP453860   7.808   3.635   0.786  1.3638 -1.1058  0.5643
 2155THY    CP353861   7.661   3.533   0.997  0.1913  0.6164 -0.8932
 2155THY    HP553862   7.661   3.452   1.070 -0.4188 -0.5007 -2.0889
 2155THY    HP653863   7.586   3.611   1.015 -1.2591 -0.6791 -1.1741
 2155THY    HP753864   7.635   3.500   0.896 -0.2081 -2.7344  0.1998
 2155THY    CA353865   7.883   3.367   0.909 -0.0132  0.8678 -0.5087
 2155THY    HA353866   7.803   3.369   0.836  0.6645  2.2758 -1.2525
 2155THY    CA453867   7.972   3.252   0.926  0.2154  0.1894 -0.7767
 2155THY    HA453868   7.970   3.158   0.872 -1.1064 -0.3213  0.0866
 2155THY    CA553869   8.094   3.276   1.003  0.0511 -0.0463  0.9456
 2155THY    CM153870   8.189   3.165   1.021 -0.5003  0.3713 -0.6716
 2155THY    HM153871   8.133   3.072   1.033 -1.0499  1.0762  4.1366
 2155THY    HM253872   8.262   3.154   0.940 -0.7760  1.2915 -1.0711
 2155THY    HM353873   8.261   3.186   1.101 -0.4762  1.0804 -0.8706
 2155THY    CA653874   8.114   3.392   1.079 -0.4141  0.6639 -0.2365
 2155THY    HA653875   8.209   3.416   1.125 -1.5264  0.8754  2.0796
 2156THY      O53876   5.257   1.537   2.596 -0.0704  0.0929 -0.2496
 2156THY     HO53877   5.238   1.555   2.502  0.7038 -0.4505 -0.5155
 2156THY    CA153878   5.138   1.515   2.657 -0.4201 -0.1348 -0.0977
 2156THY    CA253879   5.124   1.443   2.780 -0.0410  0.4940 -0.3505
 2156THY    CP153880   5.245   1.423   2.869 -0.3841 -0.2049 -0.0499
 2156THY    HP153881   5.323   1.497   2.845 -0.4765  0.0073  0.3001
 2156THY    CP253882   5.216   1.455   3.018  0.1067  0.3850  0.1382
 2156THY    HP253883   5.167   1.554   3.020 -1.1109 -0.1731  2.1803
 2156THY    HP353884   5.148   1.382   3.064 -1.2223  1.3873 -0.1728
 2156THY    HP453885   5.313   1.459   3.069 -0.0981  2.0990  0.4641
 2156THY    CP353886   5.298   1.285   2.864  0.2291  0.6239 -0.2950
 2156THY    HP553887   5.386   1.264   2.925  1.4601  2.9715 -1.1493
 2156THY    HP653888   5.227   1.208   2.897  1.3329  0.8658  3.0978
 2156THY    HP753889   5.323   1.266   2.760 -0.5985 -1.0345 -0.2311
 2156THY    CA353890   4.994   1.398   2.813  0.3278 -0.5746 -0.4085
 2156THY    HA353891   4.974   1.348   2.907 -2.6194  0.1774 -0.5454
 2156THY    CA453892   4.887   1.434   2.728  0.7981 -1.0755  1.2274
 2156THY    HA453893   4.783   1.412   2.752  1.0302 -0.6655  2.7017
 2156THY    CA553894   4.914   1.499   2.608  0.2758  0.4868 -0.4678
 2156THY    CM153895   4.796   1.539   2.515  0.0041  0.3726 -0.1608
 2156THY    HM153896   4.701   1.492   2.542  0.6688  0.7825  3.2949
 2156THY    HM253897   4.772   1.646   2.522 -1.8898  0.0716 -1.0855
 2156THY    HM353898   4.816   1.511   2.411  0.9478 -1.9790  0.5838
 2156THY    CA653899   5.038   1.538   2.574  0.4018  0.0389 -0.7691
 2156THY    HA653900   5.046   1.591   2.479 -1.0503  1.5808 -0.0929
 2157THY      O53901   0.431   9.929   3.120  0.4442  0.1767 -0.0769
 2157THY     HO53902   0.484   9.877   3.183 -1.1830  0.1225  1.3319
 2157THY    CA153903   0.505   9.931   3.000 -0.2317  0.3922  0.1867
 2157THY    CA253904   0.467  10.001   2.883  0.4565  0.1384 -0.0131
 2157THY    CP153905   0.327  10.061   2.881  0.2754  0.4215  1.0112
 2157THY    HP153906   0.263   9.988   2.935  0.9979 -2.7076 -2.0114
 2157THY    CP253907   0.312  10.192   2.962  1.1723  0.7320  0.5202
 2157THY    HP253908   0.275  10.187   3.065  1.3057 -0.4080  0.5271
 2157THY    HP353909   0.407  10.247   2.967  0.5195  1.8995  0.2141
 2157THY    HP453910   0.242  10.259   2.911  1.0532  0.6668  0.5975
 2157THY    CP353911   0.264  10.068   2.740  0.4061 -0.2249  0.2205
 2157THY    HP553912   0.160  10.102   2.749  0.9371  1.2318  1.1984
 2157THY    HP653913   0.315  10.133   2.669 -0.6249 -0.4896 -0.8001
 2157THY    HP753914   0.270   9.968   2.694  0.7470 -0.1454  0.0909
 2157THY    CA353915   0.549  10.004   2.771  0.0939  0.3313 -0.4660
 2157THY    HA353916   0.528  10.059   2.680  2.4851 -0.8544 -1.8204
 2157THY    CA453917   0.673   9.938   2.773  0.2018  0.4189  1.1624
 2157THY    HA453918   0.729   9.944   2.680 -2.3156  0.6816 -0.4376
 2157THY    CA553919   0.715   9.869   2.890  0.1876  0.3421 -1.1901
 2157THY    CM153920   0.848   9.811   2.894 -0.0530 -0.5242  0.0632
 2157THY    HM153921   0.866   9.745   2.980 -3.8492 -1.3234  0.4071
 2157THY    HM253922   0.881   9.772   2.797  2.3702 -0.1526  0.6542
 2157THY    HM353923   0.916   9.897   2.900 -0.0810 -0.5838  2.0005
 2157THY    CA653924   0.631   9.872   3.005 -0.1985  0.4674 -0.1669
 2157THY    HA653925   0.672   9.821   3.092 -1.3437 -1.5386 -0.7216
 2158THY      O53926   8.987   2.874   1.630 -0.2822 -0.5277 -0.2526
 2158THY     HO53927   9.001   2.970   1.623 -0.3036 -0.6305 -2.3472
 2158THY    CA153928   8.944   2.842   1.755  0.0025 -0.1798  0.0957
 2158THY    CA253929   9.027   2.837   1.869 -0.2686  0.2371 -0.8543
 2158THY    CP153930   9.173   2.855   1.854 -0.5265  0.1567 -0.3178
 2158THY    HP153931   9.198   2.845   1.748 -1.9770 -1.0797 -0.5824
 2158THY    CP253932   9.221   2.986   1.914  0.0120 -0.6899 -0.2716
 2158THY    HP253933   9.233   2.987   2.023  0.8785  2.8577 -0.2667
 2158THY    HP353934   9.310   3.022   1.862  0.1568  0.3630  0.6633
 2158THY    HP453935   9.151   3.068   1.895  0.0958 -0.8565 -1.3381
 2158THY    CP353936   9.251   2.742   1.929 -0.2174 -0.4040 -1.2162
 2158THY    HP553937   9.358   2.754   1.907  0.0409 -2.1185 -1.0264
 2158THY    HP653938   9.249   2.755   2.037  1.4363 -0.9628 -1.0915
 2158THY    HP753939   9.228   2.638   1.902  0.7252 -1.6984  2.4533
 2158THY    CA353940   8.961   2.806   1.994  0.0890  0.0111 -0.4141
 2158THY    HA353941   9.020   2.805   2.085 -1.6711  1.0486  0.7870
 2158THY    CA453942   8.826   2.779   1.992 -0.0600 -0.5105 -0.5073
 2158THY    HA453943   8.780   2.745   2.085  0.0083  1.3319  0.2462
 2158THY    CA553944   8.750   2.780   1.874 -0.1796  0.7765 -0.3188
 2158THY    CM153945   8.602   2.748   1.874  0.3527  0.0911  0.3607
 2158THY    HM153946   8.558   2.768   1.972 -3.0412  0.0084 -1.0218
 2158THY    HM253947   8.549   2.813   1.803 -0.0450  0.1253  0.6855
 2158THY    HM353948   8.601   2.642   1.846  1.9574  0.0547  0.3611
 2158THY    CA653949   8.810   2.818   1.757 -0.2754  0.1555 -0.0720
 2158THY    HA653950   8.756   2.823   1.663  1.4770  1.6898 -1.0893
 2159THY      O53951   9.302   7.120   6.234 -0.0020  0.1222 -0.6291
 2159THY     HO53952   9.384   7.073   6.212  1.1982  1.9553 -0.2606
 2159THY    CA153953   9.312   7.156   6.367  1.0068 -0.2993 -0.2085
 2159THY    CA253954   9.257   7.280   6.407 -0.2474  0.3825  0.2513
 2159THY    CP153955   9.214   7.386   6.301  0.5864  0.1200 -0.2820
 2159THY    HP153956   9.241   7.365   6.197 -0.7111 -0.6194 -0.4995
 2159THY    CP253957   9.057   7.384   6.288 -0.1855 -0.2495  0.1405
 2159THY    HP253958   9.030   7.462   6.217  2.6920 -1.3562 -2.3824
 2159THY    HP353959   9.025   7.293   6.236 -1.2189  0.9080 -1.2994
 2159THY    HP453960   9.008   7.393   6.386  0.2664  1.8857  0.2048
 2159THY    CP353961   9.250   7.533   6.331 -0.1834  0.0041 -0.8568
 2159THY    HP553962   9.197   7.559   6.423 -0.7254  1.0190 -1.4471
 2159THY    HP653963   9.358   7.538   6.350 -0.1456 -1.7610 -0.4378
 2159THY    HP753964   9.228   7.601   6.248 -0.0809  0.8838 -0.1800
 2159THY    CA353965   9.237   7.310   6.542  0.4546 -0.5801 -0.4276
 2159THY    HA353966   9.189   7.402   6.574 -0.6038 -0.1158 -3.0488
 2159THY    CA453967   9.279   7.219   6.639  0.1108  0.6833 -0.5465
 2159THY    HA453968   9.275   7.232   6.747  3.3685 -2.9363  0.2692
 2159THY    CA553969   9.343   7.102   6.594  0.2760  0.3389  0.7530
 2159THY    CM153970   9.407   7.018   6.694 -0.2244 -0.1284 -0.4848
 2159THY    HM153971   9.395   7.053   6.797  3.3246 -1.0308  0.3698
 2159THY    HM253972   9.368   6.915   6.687 -0.7376  0.1291 -1.7171
 2159THY    HM353973   9.515   7.006   6.677  0.3669 -0.2446  2.7534
 2159THY    CA653974   9.359   7.066   6.459  0.7765 -0.7048 -0.3460
 2159THY    HA653975   9.400   6.969   6.430 -1.3727 -2.1842  1.2187
 2160THY      O53976   8.657   4.845   3.301  0.2130  0.5017  0.5257
 2160THY     HO53977   8.625   4.842   3.393 -0.5255  1.7109  0.3346
 2160THY    CA153978   8.781   4.811   3.318 -0.3042  0.2608  0.4570
 2160THY    CA253979   8.857   4.765   3.209 -0.4305 -0.2063  0.4377
 2160THY    CP153980   8.798   4.777   3.068 -0.1652  0.0822  0.0736
 2160THY    HP153981   8.728   4.859   3.051 -1.5595 -1.0360  0.2553
 2160THY    CP253982   8.910   4.786   2.965 -0.6310 -0.4711 -0.4873
 2160THY    HP253983   8.990   4.859   2.983 -1.3106  0.0876  0.3230
 2160THY    HP353984   8.967   4.694   2.947  0.6826  0.2292 -0.0143
 2160THY    HP453985   8.871   4.814   2.866  4.0206  1.7198 -2.0100
 2160THY    CP353986   8.714   4.648   3.043 -0.2872 -0.3695  0.4362
 2160THY    HP553987   8.651   4.613   3.126  2.6677 -4.1487  1.3959
 2160THY    HP653988   8.639   4.680   2.970 -2.4172 -2.5761  1.4938
 2160THY    HP753989   8.761   4.558   3.003 -0.2179 -0.3074  0.3763
 2160THY    CA353990   8.985   4.718   3.247 -0.4988  0.0674 -0.4545
 2160THY    HA353991   9.058   4.683   3.175  0.4483 -1.4027  1.1314
 2160THY    CA453992   9.029   4.711   3.382 -0.0171 -0.4495 -0.2079
 2160THY    HA453993   9.128   4.675   3.408  0.3476  1.3902  1.2222
 2160THY    CA553994   8.944   4.751   3.484 -0.8295 -0.0178  0.1404
 2160THY    CM153995   8.979   4.718   3.629  0.0453 -0.7749 -0.6441
 2160THY    HM153996   8.890   4.691   3.686 -1.2223  2.2612 -0.9761
 2160THY    HM253997   9.059   4.643   3.641  1.2797  0.6262  0.2108
 2160THY    HM353998   9.021   4.806   3.679  3.8450 -1.8914 -1.5268
 2160THY    CA653999   8.825   4.809   3.450  0.1322 -0.7218 -0.5246
 2160THY    HA654000   8.766   4.857   3.527 -0.7505  0.7997 -2.0740
 2161THY      O54001   0.271   2.840   2.340 -0.6307 -0.0432 -0.4708
 2161THY     HO54002   0.252   2.748   2.315  0.3788 -0.3624 -0.1571
 2161THY    CA154003   0.341   2.895   2.236  0.1609 -0.4072 -0.4154
 2161THY    CA254004   0.394   3.027   2.250  0.4257  0.5950 -0.1005
 2161THY    CP154005   0.395   3.097   2.386  0.7999  0.3903 -0.6207
 2161THY    HP154006   0.405   3.023   2.465 -1.1564  0.4807 -0.2334
 2161THY    CP254007   0.515   3.192   2.401 -0.3290  0.4177  0.5674
 2161THY    HP254008   0.507   3.280   2.336  0.0795  0.2040  0.2205
 2161THY    HP354009   0.516   3.207   2.509  1.5520  3.2764  0.2859
 2161THY    HP454010   0.611   3.145   2.376 -1.2264 -2.2276  1.7614
 2161THY    CP354011   0.263   3.178   2.419  0.2597  0.5232 -0.6155
 2161THY    HP554012   0.175   3.123   2.383 -0.1977  0.4694  0.5359
 2161THY    HP654013   0.238   3.193   2.525 -0.3520  0.2035 -0.7104
 2161THY    HP754014   0.269   3.280   2.380 -1.0279  0.7943 -0.1579
 2161THY    CA354015   0.430   3.097   2.136 -0.0151  0.7617  0.0788
 2161THY    HA354016   0.473   3.196   2.144  1.1946  0.4968 -2.2937
 2161THY    CA454017   0.425   3.029   2.015  0.0416 -0.4035 -0.0517
 2161THY    HA454018   0.457   3.078   1.924  0.2045  0.5654  0.5058
 2161THY    CA554019   0.392   2.892   2.012 -0.6224  0.0153  0.2578
 2161THY    CM154020   0.408   2.819   1.879 -0.4976 -0.6529 -0.4848
 2161THY    HM154021   0.323   2.844   1.814 -2.0693 -1.5856  1.0955
 2161THY    HM254022   0.501   2.843   1.826  0.2302  2.2141  1.8425
 2161THY    HM354023   0.405   2.710   1.893  1.4743 -0.7528 -0.6527
 2161THY    CA654024   0.347   2.820   2.122  0.4278 -0.2317  1.1775
 2161THY    HA654025   0.327   2.713   2.123  3.0718 -0.8722 -1.3341
 2162THY      O54026   9.802   4.139   8.983  0.4642  0.1496 -0.1929
 2162THY     HO54027   9.706   4.139   8.972  0.4407  2.3533 -0.5661
 2162THY    CA154028   9.822   4.069   9.099  1.1188  0.4403 -0.0727
 2162THY    CA254029   9.948   4.054   9.157 -0.2560  0.0411  0.5921
 2162THY    CP154030  10.069   4.124   9.093 -0.5143  0.3995  0.2932
 2162THY    HP154031  10.043   4.195   9.013  0.7143  2.3097  1.5014
 2162THY    CP254032  10.142   4.212   9.196  0.4204  0.0413 -0.0880
 2162THY    HP254033  10.068   4.263   9.259  0.9542 -0.7410  1.1963
 2162THY    HP354034  10.200   4.147   9.261  0.1727 -0.3390 -0.2453
 2162THY    HP454035  10.198   4.283   9.134  0.8593 -2.1121 -2.3015
 2162THY    CP354036  10.169   4.017   9.041  0.2145 -0.2095 -0.2346
 2162THY    HP554037  10.206   3.954   9.123 -2.0519  0.5801  1.4893
 2162THY    HP654038  10.119   3.961   8.961 -0.4674  0.9072 -0.6111
 2162THY    HP754039  10.260   4.069   9.009  1.8948 -3.0929 -0.4127
 2162THY    CA354040   9.964   3.982   9.278  0.4032  0.3959  0.1218
 2162THY    HA354041  10.062   3.956   9.318  0.6900  2.7156  1.1140
 2162THY    CA454042   9.851   3.922   9.331 -0.6941 -0.0712  0.0194
 2162THY    HA454043   9.861   3.867   9.425 -1.1829  1.3510  0.9261
 2162THY    CA554044   9.725   3.938   9.279  1.0728  0.3799 -0.3410
 2162THY    CM154045   9.600   3.873   9.355 -0.0737  0.6326  0.0159
 2162THY    HM154046   9.597   3.764   9.351 -2.9952  0.5049  2.5056
 2162THY    HM254047   9.595   3.913   9.457 -0.2748 -2.7119  1.4417
 2162THY    HM354048   9.515   3.918   9.301  0.3915  0.6764 -0.6898
 2162THY    CA654049   9.709   4.014   9.165 -0.1377 -0.3639  0.5113
 2162THY    HA654050   9.611   4.040   9.128  0.0094  4.0168  2.6128
 2163THY      O54051   8.128   2.072   2.302 -0.0707 -0.4189 -0.1686
 2163THY     HO54052   8.208   2.022   2.276 -0.3385 -2.1342  1.9989
 2163THY    CA154053   8.094   2.030   2.427  0.3566  0.0969  0.3724
 2163THY    CA254054   8.010   2.110   2.498 -0.2025  0.0012  0.1563
 2163THY    CP154055   7.929   2.228   2.438  0.5505 -0.0707  0.8861
 2163THY    HP154056   7.980   2.263   2.347 -1.9590  3.5313  0.6267
 2163THY    CP254057   7.785   2.162   2.409 -0.7057  0.0185 -0.2351
 2163THY    HP254058   7.718   2.234   2.361 -1.2187 -0.9067 -0.9405
 2163THY    HP354059   7.801   2.079   2.339 -0.0092  0.3922 -0.5268
 2163THY    HP454060   7.748   2.129   2.507 -2.3679  1.3394 -0.3651
 2163THY    CP354061   7.914   2.350   2.516  0.1159 -0.8171  0.3270
 2163THY    HP554062   8.019   2.375   2.534  0.1685 -0.8591  0.0820
 2163THY    HP654063   7.856   2.425   2.461  1.3457 -1.5417 -2.0747
 2163THY    HP754064   7.862   2.337   2.612  0.9605  0.2233  0.9479
 2163THY    CA354065   7.980   2.075   2.630 -0.3099 -0.3722 -0.4333
 2163THY    HA354066   7.899   2.127   2.679  0.4150  0.1950  0.1800
 2163THY    CA454067   8.042   1.955   2.681  0.3288 -0.5024  0.1660
 2163THY    HA454068   8.030   1.926   2.785 -2.0349 -0.4889 -0.0336
 2163THY    CA554069   8.131   1.880   2.602  0.1577 -0.2263 -0.6983
 2163THY    CM154070   8.199   1.755   2.668 -0.3121  0.0830  0.1138
 2163THY    HM154071   8.128   1.685   2.714  0.7913 -1.0933  0.0906
 2163THY    HM254072   8.261   1.690   2.606 -1.8663 -1.2100 -0.1691
 2163THY    HM354073   8.262   1.783   2.753  0.1832 -1.2143  0.1943
 2163THY    CA654074   8.156   1.915   2.473  0.0981  0.3357 -0.1150
 2163THY    HA654075   8.219   1.855   2.407 -1.5144  0.7934 -2.2003
 2164THY      O54076   2.638   3.377   6.136  0.5769  0.5485 -0.2665
 2164THY     HO54077   2.607   3.442   6.072 -0.1116  0.8886  0.3970
 2164THY    CA154078   2.727   3.433   6.219  0.1743  0.1646  0.5496
 2164THY    CA254079   2.752   3.380   6.342 -0.3575  0.0254  0.1069
 2164THY    CP154080   2.685   3.248   6.388 -0.6176 -0.8451 -0.4209
 2164THY    HP154081   2.595   3.226   6.331 -1.8628  0.4671  0.9635
 2164THY    CP254082   2.779   3.141   6.334 -0.2521  0.3149 -0.3232
 2164THY    HP254083   2.734   3.041   6.336 -1.6442  0.9090 -0.6443
 2164THY    HP354084   2.812   3.160   6.232  4.6953 -0.7154  0.8090
 2164THY    HP454085   2.875   3.130   6.386  0.6550  0.3485 -1.9295
 2164THY    CP354086   2.668   3.227   6.537  0.4559 -0.5641 -0.2188
 2164THY    HP554087   2.754   3.246   6.602 -2.1088 -1.5341  3.7639
 2164THY    HP654088   2.582   3.282   6.576  1.1832  0.8486 -0.5295
 2164THY    HP754089   2.642   3.123   6.557  0.8244 -0.7114 -0.4978
 2164THY    CA354090   2.852   3.443   6.416 -0.2274  0.3131 -0.0965
 2164THY    HA354091   2.875   3.401   6.513 -0.6957  2.1274  0.8328
 2164THY    CA454092   2.923   3.555   6.368  0.7442  0.0059 -0.2471
 2164THY    HA454093   2.998   3.604   6.429 -2.0271  1.6461  2.1662
 2164THY    CA554094   2.883   3.611   6.248  0.7253 -0.1756 -0.5457
 2164THY    CM154095   2.947   3.738   6.198 -0.2644 -1.1496  0.2072
 2164THY    HM154096   2.944   3.825   6.264 -0.9816  2.1967 -3.8777
 2164THY    HM254097   3.053   3.719   6.179  0.2690  2.1397 -0.5802
 2164THY    HM354098   2.908   3.783   6.106 -1.4814  2.1281  2.1717
 2164THY    CA654099   2.782   3.553   6.176 -0.5519 -0.4464  0.0393
 2164THY    HA654100   2.747   3.597   6.083  2.4924  1.3938 -0.3945
 2165THY      O54101   7.247   1.659   7.329 -0.0836 -0.2784  0.3923
 2165THY     HO54102   7.341   1.636   7.329  0.0049 -0.0770  2.3190
 2165THY    CA154103   7.208   1.717   7.215  0.0231 -0.7944 -0.1347
 2165THY    CA254104   7.086   1.786   7.212 -1.0278  0.4391  0.5826
 2165THY    CP154105   7.000   1.799   7.329 -0.6660 -0.2885  0.1605
 2165THY    HP154106   7.038   1.732   7.408  0.4246 -0.9647 -0.9116
 2165THY    CP254107   7.004   1.940   7.387  0.4369 -0.1040  0.8186
 2165THY    HP254108   7.110   1.966   7.396  1.0935 -1.7442 -1.4420
 2165THY    HP354109   6.965   2.006   7.309  0.9416 -0.0799  0.5872
 2165THY    HP454110   6.954   1.947   7.485  0.8991 -0.1770  1.0616
 2165THY    CP354111   6.855   1.760   7.305 -0.1315  0.1116 -0.2799
 2165THY    HP554112   6.850   1.666   7.249  2.6070  0.1086 -0.6919
 2165THY    HP654113   6.798   1.747   7.397  1.6099 -2.8445  0.5051
 2165THY    HP754114   6.796   1.831   7.246 -1.9303 -2.0547 -1.1913
 2165THY    CA354115   7.060   1.854   7.089  0.6024  0.5557 -0.2090
 2165THY    HA354116   6.972   1.917   7.080  1.0992  1.4497  0.9179
 2165THY    CA454117   7.147   1.849   6.979 -0.1892 -0.6399  0.0808
 2165THY    HA454118   7.118   1.899   6.886  2.2996 -2.3796 -1.7745
 2165THY    CA554119   7.261   1.772   6.983  0.0028 -0.3219  0.5991
 2165THY    CM154120   7.349   1.767   6.861  0.0473 -0.3095  0.0379
 2165THY    HM154121   7.378   1.863   6.818 -0.4614 -0.5445 -0.8608
 2165THY    HM254122   7.445   1.714   6.870 -1.0815 -2.3595  0.6946
 2165THY    HM354123   7.286   1.717   6.786 -0.7814  1.1436 -0.2663
 2165THY    CA654124   7.293   1.712   7.104 -0.9297  0.4332  0.4958
 2165THY    HA654125   7.386   1.655   7.102 -1.0208  0.2690 -1.5164
 2166THY      O54126   5.702   7.408   3.285 -0.0414  0.1067 -0.1494
 2166THY     HO54127   5.713   7.443   3.375 -1.6360  0.3070 -0.0024
 2166THY    CA154128   5.795   7.458   3.209  0.2187 -0.6618 -0.4840
 2166THY    CA254129   5.785   7.463   3.067 -0.3064 -0.2659 -0.0869
 2166THY    CP154130   5.671   7.404   2.982 -0.8010 -0.2319 -0.0008
 2166THY    HP154131   5.599   7.353   3.046  0.1636 -3.0819 -1.0219
 2166THY    CP254132   5.598   7.516   2.901 -0.3164  0.4184  0.1646
 2166THY    HP254133   5.620   7.615   2.941 -2.4560  1.2883 -0.6626
 2166THY    HP354134   5.643   7.516   2.801  1.6558 -2.2547  0.9410
 2166THY    HP454135   5.488   7.510   2.909 -0.1946  0.4576  2.5990
 2166THY    CP354136   5.717   7.294   2.880  0.3716  0.3921  0.0454
 2166THY    HP554137   5.760   7.336   2.788  0.2052 -0.6367 -0.5104
 2166THY    HP654138   5.788   7.232   2.934  0.8906 -0.3143 -1.4059
 2166THY    HP754139   5.630   7.231   2.856  0.8692 -0.2536 -0.0719
 2166THY    CA354140   5.890   7.527   3.001  0.0997 -0.5837  0.0036
 2166THY    HA354141   5.892   7.541   2.893  1.7101  1.4505  0.2299
 2166THY    CA454142   6.000   7.572   3.064 -0.0213  0.2453  0.2743
 2166THY    HA454143   6.077   7.627   3.009 -0.0307 -1.1038 -1.1425
 2166THY    CA554144   6.011   7.569   3.206 -0.4488  0.4723 -0.1573
 2166THY    CM154145   6.120   7.633   3.279 -0.6789  0.0594 -1.1883
 2166THY    HM154146   6.214   7.577   3.285 -2.5455 -3.1983 -0.1543
 2166THY    HM254147   6.130   7.732   3.232  1.1658 -0.0967 -1.2159
 2166THY    HM354148   6.106   7.657   3.385  0.0973 -0.9859 -0.8307
 2166THY    CA654149   5.910   7.511   3.276 -0.2832 -0.1595  0.0362
 2166THY    HA654150   5.927   7.521   3.382  1.6987  2.1216 -0.4217
 2167THY      O54151   0.090   5.327   0.285  0.0254  0.3459  0.5135
 2167THY     HO54152   0.117   5.415   0.254 -1.5863  0.3876 -0.9272
 2167THY    CA154153   0.162   5.227   0.216  0.1918  0.0719 -0.7046
 2167THY    CA254154   0.133   5.090   0.235  0.6658 -0.7399 -0.5364
 2167THY    CP154155   0.042   5.052   0.351  0.3242  0.4468  0.0725
 2167THY    HP154156   0.058   5.122   0.434  1.0548  0.8291 -0.3741
 2167THY    CP254157  -0.098   5.056   0.299  0.4776 -0.1545  0.4248
 2167THY    HP254158  -0.173   4.991   0.345 -1.2312  1.4970  0.1365
 2167THY    HP354159  -0.144   5.156   0.297  1.1409  0.1423 -0.3333
 2167THY    HP454160  -0.107   5.028   0.193 -0.5828  3.3373 -0.5687
 2167THY    CP354161   0.076   4.912   0.416 -0.0815 -0.0674 -0.5616
 2167THY    HP554162   0.022   4.912   0.512  2.6021  0.2788  1.0444
 2167THY    HP654163   0.049   4.831   0.348 -1.3236 -1.6583  1.6972
 2167THY    HP754164   0.185   4.904   0.425 -0.0306  1.3856  0.6305
 2167THY    CA354165   0.192   4.995   0.149  0.1287  0.1005  0.2487
 2167THY    HA354166   0.173   4.889   0.155 -0.1100  0.0384 -1.2635
 2167THY    CA454167   0.281   5.042   0.047  0.4202 -0.3192  0.0935
 2167THY    HA454168   0.329   4.974  -0.023 -1.4892 -1.9871  0.3262
 2167THY    CA554169   0.317   5.179   0.039  0.2288  0.2824  0.2529
 2167THY    CM154170   0.414   5.237  -0.069 -0.5341 -0.2030  0.1719
 2167THY    HM154171   0.492   5.165  -0.099 -0.4741 -0.5324  1.0830
 2167THY    HM254172   0.358   5.269  -0.157 -0.6938  0.3571  0.4716
 2167THY    HM354173   0.478   5.318  -0.034  1.9032 -1.7330 -0.4805
 2167THY    CA654174   0.251   5.267   0.120 -0.4468 -0.8844 -0.1418
 2167THY    HA654175   0.267   5.373   0.103 -0.2607 -0.7638  0.7315
 2168THY      O54176   7.298   2.728   5.295  0.1671  0.3311  1.0195
 2168THY     HO54177   7.241   2.650   5.301 -0.0577  0.1150 -2.1650
 2168THY    CA154178   7.233   2.815   5.219 -0.5280  0.2028  0.0641
 2168THY    CA254179   7.287   2.943   5.200  0.2892 -0.2014  0.0858
 2168THY    CP154180   7.402   2.986   5.280 -0.0180 -0.1896 -0.3553
 2168THY    HP154181   7.413   2.920   5.367  0.3515 -2.4623 -2.0388
 2168THY    CP254182   7.530   2.967   5.198 -0.2694 -0.0048  0.4058
 2168THY    HP254183   7.529   2.862   5.167  2.0772 -0.1271  0.5882
 2168THY    HP354184   7.533   3.030   5.108  0.5019 -1.6498 -0.7547
 2168THY    HP454185   7.617   2.978   5.264  0.7203 -1.0063 -0.6934
 2168THY    CP354186   7.393   3.131   5.325 -0.0306  0.1226  0.1492
 2168THY    HP554187   7.411   3.200   5.242  5.3477 -0.2187  0.7097
 2168THY    HP654188   7.305   3.159   5.384 -0.4916 -0.0178 -0.4592
 2168THY    HP754189   7.476   3.147   5.394  2.3342 -0.0779 -2.4466
 2168THY    CA354190   7.228   3.032   5.103  0.0098  1.2390  0.5194
 2168THY    HA354191   7.271   3.129   5.079  3.2731 -0.0846  0.4136
 2168THY    CA454192   7.100   2.990   5.047 -0.1677  0.2630  0.2604
 2168THY    HA454193   7.054   3.053   4.971 -0.7241 -0.4847 -0.0283
 2168THY    CA554194   7.041   2.863   5.072 -0.6556  0.3824 -0.3334
 2168THY    CM154195   6.905   2.831   5.018 -0.3995  0.0252  0.6156
 2168THY    HM154196   6.876   2.728   5.044 -3.0804  0.2980 -0.9134
 2168THY    HM254197   6.832   2.889   5.076 -0.2500  0.2765  0.5537
 2168THY    HM354198   6.889   2.848   4.911 -0.7861  1.3822  0.8780
 2168THY    CA654199   7.108   2.779   5.164 -1.1181 -0.4518  0.4151
 2168THY    HA654200   7.069   2.679   5.177 -1.1139 -0.5925 -0.6260
 2169THY      O54201   1.150   4.170   9.006  0.6597 -0.0632 -1.1122
 2169THY     HO54202   1.062   4.134   8.986 -0.0215  1.4938 -1.0368
 2169THY    CA154203   1.142   4.170   9.142 -0.1967 -0.1057  0.2923
 2169THY    CA254204   1.269   4.186   9.208  0.0385  0.3345  0.1689
 2169THY    CP154205   1.408   4.188   9.125 -0.6001 -0.3708 -0.0903
 2169THY    HP154206   1.391   4.239   9.029 -1.4035  0.1586  0.3258
 2169THY    CP254207   1.513   4.283   9.191  0.4042  0.0826  0.1743
 2169THY    HP254208   1.598   4.313   9.129 -0.4908  2.7473  0.1158
 2169THY    HP354209   1.471   4.384   9.198  0.9304  0.2111  1.9795
 2169THY    HP454210   1.546   4.243   9.288 -0.5394  0.8099  0.8088
 2169THY    CP354211   1.463   4.048   9.109  0.4192 -0.0751 -0.5140
 2169THY    HP554212   1.380   3.991   9.067  0.1395 -0.2711  0.2906
 2169THY    HP654213   1.543   4.052   9.033  1.2313  0.9635  0.3589
 2169THY    HP754214   1.493   3.997   9.201 -1.2251 -1.4339 -0.7027
 2169THY    CA354215   1.263   4.194   9.353  0.0380 -0.2924  0.0451
 2169THY    HA354216   1.355   4.198   9.409  0.2535 -2.0823 -0.1519
 2169THY    CA454217   1.144   4.177   9.425  0.3194 -0.3411  0.0277
 2169THY    HA454218   1.129   4.196   9.530 -1.0792 -1.2683  0.0329
 2169THY    CA554219   1.022   4.150   9.357  0.4888 -0.6051  0.2968
 2169THY    CM154220   0.888   4.139   9.420  1.0769 -0.0111  0.7102
 2169THY    HM154221   0.815   4.214   9.385  0.0883 -0.6178  1.4236
 2169THY    HM254222   0.865   4.040   9.379  1.1081  0.1052  0.4031
 2169THY    HM354223   0.892   4.128   9.529 -4.2045  1.5550  1.3880
 2169THY    CA654224   1.019   4.148   9.215 -0.3109 -0.6319  0.2572
 2169THY    HA654225   0.926   4.131   9.162 -0.5491 -0.6802  0.6939
 2170THY      O54226   6.680   4.894   5.897 -0.7356 -0.4203  0.5072
 2170THY     HO54227   6.748   4.964   5.888 -2.6379  2.0762  3.5460
 2170THY    CA154228   6.652   4.837   5.779  0.1596  0.4039 -0.0514
 2170THY    CA254229   6.632   4.696   5.760 -0.5209 -0.6698  0.0406
 2170THY    CP154230   6.647   4.602   5.878  0.7778 -0.1295 -0.2019
 2170THY    HP154231   6.660   4.661   5.970 -0.3218  1.7347 -1.1912
 2170THY    CP254232   6.510   4.528   5.917 -0.4287 -0.1412 -0.2730
 2170THY    HP254233   6.448   4.598   5.973  0.3122 -1.6831  2.6716
 2170THY    HP354234   6.455   4.491   5.829  0.5187 -0.5807 -0.7002
 2170THY    HP454235   6.534   4.442   5.981  0.2508  1.3996  1.6212
 2170THY    CP354236   6.765   4.498   5.859  0.5187 -0.1543  0.1441
 2170THY    HP554237   6.730   4.425   5.786 -1.5247 -0.3143  1.2300
 2170THY    HP654238   6.858   4.543   5.820 -0.1682 -1.2989 -3.1501
 2170THY    HP754239   6.790   4.437   5.946  2.9226  0.9660  0.3217
 2170THY    CA354240   6.594   4.645   5.635  0.3906  0.5109 -0.2823
 2170THY    HA354241   6.568   4.540   5.622 -0.1364  0.8094 -1.8901
 2170THY    CA454242   6.583   4.736   5.527  0.2594 -0.3160 -0.2585
 2170THY    HA454243   6.543   4.693   5.436  0.7547 -1.9185  0.2433
 2170THY    CA554244   6.593   4.879   5.544  0.5784 -0.4370 -0.8742
 2170THY    CM154245   6.577   4.971   5.431 -0.2076 -0.6614  0.1422
 2170THY    HM154246   6.582   5.077   5.458 -0.2114 -0.4729 -0.5806
 2170THY    HM254247   6.666   4.966   5.368  0.6827 -0.1117  1.3228
 2170THY    HM354248   6.481   4.948   5.383 -0.0512 -0.8825 -0.0656
 2170THY    CA654249   6.628   4.923   5.671 -0.6741  0.1735 -0.4308
 2170THY    HA654250   6.638   5.030   5.690  0.2207  0.1654 -0.8109
 2171THY      O54251   5.517   8.982   1.053 -0.3642 -0.5051  0.1060
 2171THY     HO54252   5.486   8.946   1.138 -1.0605 -1.4210 -0.5141
 2171THY    CA154253   5.537   8.876   0.973  0.0334  0.7239 -0.4789
 2171THY    CA254254   5.615   8.880   0.858  0.0021 -0.5960  1.2649
 2171THY    CP154255   5.676   9.011   0.798 -0.6208 -1.3057  0.1607
 2171THY    HP154256   5.645   9.097   0.860  1.5811 -0.7396  0.5623
 2171THY    CP254257   5.828   9.017   0.809  0.0816  0.2683 -0.0780
 2171THY    HP254258   5.863   9.116   0.778 -0.0648 -0.0335 -1.2455
 2171THY    HP354259   5.877   8.972   0.895  0.2883 -0.6904 -0.6848
 2171THY    HP454260   5.859   8.960   0.721  0.3919 -1.5462  1.1447
 2171THY    CP354261   5.640   9.040   0.653  0.5988 -0.1436  0.3962
 2171THY    HP554262   5.534   9.065   0.642  0.1937 -1.8662  0.2199
 2171THY    HP654263   5.688   9.130   0.611  1.7171 -0.2997  1.2832
 2171THY    HP754264   5.664   8.952   0.593  1.0503 -0.3764  0.9062
 2171THY    CA354265   5.642   8.761   0.781  0.2829 -0.3206  0.3186
 2171THY    HA354266   5.691   8.781   0.686 -3.3227  3.7735 -1.0355
 2171THY    CA454267   5.590   8.641   0.830 -0.3070  0.1162  0.1519
 2171THY    HA454268   5.595   8.544   0.780 -0.6649  0.1786 -0.0026
 2171THY    CA554269   5.519   8.633   0.953  0.3672  0.4437  0.3823
 2171THY    CM154270   5.450   8.507   0.996  0.2427 -0.3463  0.2334
 2171THY    HM154271   5.417   8.454   0.906 -0.4468 -0.1672  0.3819
 2171THY    HM254272   5.520   8.439   1.047  1.0499  2.3484  3.0505
 2171THY    HM354273   5.371   8.522   1.070 -1.3881 -1.1171 -1.2999
 2171THY    CA654274   5.502   8.748   1.025 -0.1419 -0.1585 -0.5521
 2171THY    HA654275   5.447   8.751   1.118  0.4136 -0.8823 -0.1900
 2172THY      O54276   0.013   5.268   1.838 -0.2920  0.5077 -0.2950
 2172THY     HO54277   0.092   5.219   1.866 -0.2969  1.3664  1.3500
 2172THY    CA154278  -0.003   5.371   1.914 -0.3094  0.4637 -0.7881
 2172THY    CA254279  -0.094   5.468   1.878  0.2796 -0.1095  0.2846
 2172THY    CP154280  -0.179   5.475   1.746 -0.1428 -0.3800  0.3952
 2172THY    HP154281  -0.240   5.565   1.748  1.5872  0.8633  2.3112
 2172THY    CP254282  -0.100   5.479   1.618 -0.3245 -0.4828  0.4347
 2172THY    HP254283  -0.162   5.497   1.529  1.0783 -2.1329 -0.9418
 2172THY    HP354284  -0.033   5.565   1.635 -1.3569  0.2297  1.0080
 2172THY    HP454285  -0.040   5.389   1.604 -2.0645 -1.7452  0.7595
 2172THY    CP354286  -0.275   5.364   1.735  0.4118  0.2636  0.3278
 2172THY    HP554287  -0.343   5.383   1.651 -1.4748  0.6400  1.8722
 2172THY    HP654288  -0.227   5.265   1.725  0.6520  0.5278 -1.4881
 2172THY    HP754289  -0.346   5.362   1.818  1.2908  2.1160  1.1753
 2172THY    CA354290  -0.107   5.569   1.979 -0.8616 -0.0943  0.0805
 2172THY    HA354291  -0.159   5.658   1.945 -0.8034  0.6464  1.8577
 2172THY    CA454292  -0.040   5.564   2.102 -0.2207 -0.3839 -0.3682
 2172THY    HA454293  -0.055   5.644   2.174  1.3262 -0.7862  0.4381
 2172THY    CA554294   0.039   5.457   2.133  0.3270  0.0379  0.0738
 2172THY    CM154295   0.119   5.448   2.268 -0.0208  0.0556 -0.2899
 2172THY    HM154296   0.209   5.387   2.254  0.3203  0.7161 -1.0182
 2172THY    HM254297   0.153   5.544   2.307 -0.9081  0.2481  0.0317
 2172THY    HM354298   0.059   5.407   2.351 -2.5851 -0.1751 -2.1305
 2172THY    CA654299   0.055   5.358   2.038  0.5118  0.7892  0.4473
 2172THY    HA654300   0.121   5.273   2.055 -0.6474 -0.1496  0.3564
 2173THY      O54301   0.094   7.051   6.294  0.5487 -0.4832  0.1860
 2173THY     HO54302   0.132   7.105   6.365 -0.8260 -0.6579  1.1139
 2173THY    CA154303  -0.022   7.119   6.253  0.0102 -0.1789 -0.2277
 2173THY    CA254304  -0.048   7.132   6.115  0.4507 -1.2860  0.1704
 2173THY    CP154305   0.040   7.066   6.003  0.5053  0.9664  0.3688
 2173THY    HP154306   0.106   6.991   6.048 -0.2892 -0.8099 -1.2779
 2173THY    CP254307  -0.043   6.976   5.912  0.0686  0.1199 -0.1060
 2173THY    HP254308  -0.074   6.888   5.970  1.0049  0.3604  0.8037
 2173THY    HP354309  -0.123   7.024   5.855  0.6447 -0.9249 -1.8382
 2173THY    HP454310   0.029   6.934   5.841  1.0217 -0.6315  1.2542
 2173THY    CP354311   0.118   7.164   5.930  0.3768  0.4719  0.1192
 2173THY    HP554312   0.058   7.222   5.859 -0.4303  1.4729  1.5652
 2173THY    HP654313   0.163   7.240   5.996  0.6414  0.0397  0.4439
 2173THY    HP754314   0.197   7.117   5.870 -0.3969  0.3372 -0.8110
 2173THY    CA354315  -0.165   7.207   6.076  0.0985  0.2459  0.0729
 2173THY    HA354316  -0.192   7.201   5.971  1.5527  0.8831 -0.3624
 2173THY    CA454317  -0.239   7.274   6.175 -0.1110 -0.4899 -0.1938
 2173THY    HA454318  -0.325   7.334   6.146  0.7756 -0.1911 -2.3899
 2173THY    CA554319  -0.201   7.262   6.307  0.2336 -0.3323  0.2076
 2173THY    CM154320  -0.293   7.321   6.414 -0.0538 -0.0840  0.4718
 2173THY    HM154321  -0.349   7.405   6.371  0.7340 -0.1431 -0.6827
 2173THY    HM254322  -0.375   7.252   6.441 -0.3910 -0.8762 -2.2439
 2173THY    HM354323  -0.235   7.347   6.504  0.8261  1.2592 -0.4553
 2173THY    CA654324  -0.094   7.184   6.349 -0.2168  0.2923 -0.8663
 2173THY    HA654325  -0.069   7.187   6.455  1.8607  2.1469 -1.3472
 2174THY      O54326   0.147   5.834   5.121 -0.7886 -0.2409 -0.1232
 2174THY     HO54327   0.148   5.756   5.180  0.1723 -0.4758 -0.4226
 2174THY    CA154328   0.264   5.908   5.131  0.7663  0.2249  0.0213
 2174THY    CA254329   0.269   6.041   5.102  0.6580 -0.8578  0.0486
 2174THY    CP154330   0.149   6.109   5.034  0.0003  0.0714  0.7241
 2174THY    HP154331   0.063   6.042   5.044 -1.1644  1.4298  0.1466
 2174THY    CP254332   0.104   6.244   5.101  0.2318  0.1874 -0.4077
 2174THY    HP254333   0.093   6.238   5.209 -1.1350  2.4269 -0.3566
 2174THY    HP354334   0.167   6.332   5.078  1.8785 -0.9581 -0.4642
 2174THY    HP454335   0.005   6.271   5.063  0.1148  1.9160  0.9631
 2174THY    CP354336   0.180   6.135   4.883  0.9458  0.5555 -1.2802
 2174THY    HP554337   0.252   6.217   4.875  0.2168  1.4486  0.6056
 2174THY    HP654338   0.220   6.044   4.839  1.5748  1.4046 -2.5161
 2174THY    HP754339   0.083   6.169   4.845  0.3391  0.2155 -0.0948
 2174THY    CA354340   0.389   6.116   5.119  0.0495  0.0670 -0.1461
 2174THY    HA354341   0.402   6.219   5.088 -0.9953  0.1629 -0.3042
 2174THY    CA454342   0.496   6.042   5.167 -0.6949 -0.3693 -0.5314
 2174THY    HA454343   0.589   6.096   5.168 -0.7207 -0.3177  0.6786
 2174THY    CA554344   0.487   5.904   5.200  0.2139 -0.2830  0.5383
 2174THY    CM154345   0.610   5.830   5.231 -0.2649  0.3811 -0.0982
 2174THY    HM154346   0.660   5.836   5.329  1.3944  0.7705 -0.9228
 2174THY    HM254347   0.603   5.725   5.201  2.3216  0.3709 -0.9897
 2174THY    HM354348   0.688   5.876   5.168  0.7301  0.9850  1.5152
 2174THY    CA654349   0.366   5.837   5.181  0.0348 -0.2330 -0.1980
 2174THY    HA654350   0.353   5.730   5.195 -3.7244 -0.0583 -1.3533
 2175THY      O54351   1.796   6.935   5.826  0.1579  0.5327 -0.0121
 2175THY     HO54352   1.784   6.913   5.920  0.1157  0.8944  0.0705
 2175THY    CA154353   1.771   7.068   5.811 -1.0761  0.1472 -0.1654
 2175THY    CA254354   1.853   7.145   5.719  0.4966  0.1856 -0.4227
 2175THY    CP154355   1.960   7.077   5.633  0.2643 -0.5880  0.2511
 2175THY    HP154356   1.949   6.969   5.647  1.0667 -0.6293  0.6671
 2175THY    CP254357   1.940   7.116   5.491  0.1557  0.1484  0.1379
 2175THY    HP254358   1.838   7.089   5.462 -0.7807  3.0835  0.4219
 2175THY    HP354359   1.958   7.223   5.479  0.1121  0.2526  0.9096
 2175THY    HP454360   2.007   7.056   5.428  0.0509 -0.4119  0.5507
 2175THY    CP354361   2.106   7.109   5.674 -0.1433 -0.5113  0.0928
 2175THY    HP554362   2.123   7.217   5.668 -1.1997 -0.3183  0.2867
 2175THY    HP654363   2.129   7.086   5.779  1.2001  1.5884  0.3079
 2175THY    HP754364   2.169   7.055   5.602  0.2272  0.1864 -0.1084
 2175THY    CA354365   1.825   7.284   5.720 -0.2353 -0.1114  0.2268
 2175THY    HA354366   1.896   7.338   5.658  1.3263 -4.4673 -2.2565
 2175THY    CA454367   1.721   7.338   5.802  1.0818 -0.5867 -0.6398
 2175THY    HA454368   1.701   7.444   5.790 -0.7101 -1.0303 -1.9552
 2175THY    CA554369   1.642   7.252   5.876  0.8643  0.2840  1.0904
 2175THY    CM154370   1.535   7.303   5.957 -1.1143  0.2069 -0.2855
 2175THY    HM154371   1.522   7.412   5.958 -0.4801  0.2969  1.7619
 2175THY    HM254372   1.444   7.250   5.923  0.4851 -1.3056 -2.5101
 2175THY    HM354373   1.563   7.274   6.058 -0.5428 -1.3987 -0.8679
 2175THY    CA654374   1.669   7.120   5.885 -1.0010 -0.2105  0.3060
 2175THY    HA654375   1.600   7.049   5.931 -0.6953 -2.0245 -1.8168
 2176THY      O54376   7.670   5.341   0.617  0.5874 -0.5072 -0.6014
 2176THY     HO54377   7.607   5.402   0.575 -1.6717 -1.0644  1.7385
 2176THY    CA154378   7.664   5.217   0.565 -0.5533 -0.6249  0.1222
 2176THY    CA254379   7.637   5.101   0.641 -0.8418 -0.4521 -0.6552
 2176THY    CP154380   7.621   5.113   0.794  0.5713  0.0759  0.6349
 2176THY    HP154381   7.675   5.199   0.835  0.5180  0.5515 -0.2759
 2176THY    CP254382   7.478   5.146   0.825 -0.4888  0.6590  0.3472
 2176THY    HP254383   7.448   5.249   0.803 -1.9303  0.1043 -0.4014
 2176THY    HP354384   7.402   5.080   0.781 -0.1074  0.1328  0.4641
 2176THY    HP454385   7.468   5.148   0.934  2.1044  0.5393  0.6536
 2176THY    CP354386   7.673   4.994   0.876 -0.4702  0.4372 -0.7440
 2176THY    HP554387   7.674   5.033   0.979 -3.5878 -0.0968 -0.4396
 2176THY    HP654388   7.610   4.905   0.878 -0.2114  0.2038  2.2887
 2176THY    HP754389   7.773   4.966   0.842 -0.3216 -0.8090  0.5998
 2176THY    CA354390   7.623   4.982   0.576  0.2845  0.3609  0.0359
 2176THY    HA354391   7.606   4.888   0.627 -0.8445  0.5032 -0.0436
 2176THY    CA454392   7.618   4.977   0.432  0.3117  0.2528 -0.6603
 2176THY    HA454393   7.589   4.884   0.384 -1.5932  0.9756 -1.0081
 2176THY    CA554394   7.632   5.095   0.362 -0.6354 -0.6288 -0.6539
 2176THY    CM154395   7.636   5.104   0.206 -1.0654 -0.0507 -0.4650
 2176THY    HM154396   7.740   5.089   0.173 -1.0904 -0.3782 -0.3967
 2176THY    HM254397   7.577   5.028   0.156 -0.8719  0.0445 -0.8428
 2176THY    HM354398   7.604   5.206   0.180  0.2958  0.5640  0.1519
 2176THY    CA654399   7.658   5.215   0.424 -0.4992 -0.2113 -1.0283
 2176THY    HA654400   7.680   5.301   0.361  0.5336 -1.0345 -1.8193
 2177THY      O54401   6.690   0.214   2.196 -0.7294 -0.1894 -0.3658
 2177THY     HO54402   6.774   0.182   2.158 -0.9596  0.9891 -1.9899
 2177THY    CA154403   6.672   0.341   2.161 -0.9896  0.3281  0.0455
 2177THY    CA254404   6.559   0.408   2.200 -0.3629 -0.7029 -0.8606
 2177THY    CP154405   6.456   0.341   2.289  0.2572  0.2390 -0.5508
 2177THY    HP154406   6.464   0.232   2.273  1.8381  0.2224  0.2169
 2177THY    CP254407   6.499   0.350   2.442  0.1086 -0.5356 -0.9763
 2177THY    HP254408   6.509   0.245   2.473 -0.3519 -1.1019 -2.6125
 2177THY    HP354409   6.579   0.424   2.454 -2.1342  2.1884 -1.6379
 2177THY    HP454410   6.411   0.389   2.495  2.6227  3.2867  0.7947
 2177THY    CP354411   6.309   0.382   2.265 -0.5186  0.0801 -0.0006
 2177THY    HP554412   6.275   0.474   2.315 -1.5177  0.0611 -0.6277
 2177THY    HP654413   6.282   0.379   2.159  1.1179  0.7576 -0.4764
 2177THY    HP754414   6.247   0.314   2.325  2.3388 -1.1361  1.7709
 2177THY    CA354415   6.548   0.543   2.173  0.4277 -0.0850 -0.0160
 2177THY    HA354416   6.462   0.596   2.214  0.3159 -0.8848  0.8208
 2177THY    CA454417   6.646   0.617   2.099  0.6734  0.2164  0.4012
 2177THY    HA454418   6.627   0.723   2.089 -0.6111 -0.0994 -0.8048
 2177THY    CA554419   6.739   0.536   2.034 -0.6547  0.1294  0.2722
 2177THY    CM154420   6.832   0.605   1.935 -0.3032  0.3739 -0.4515
 2177THY    HM154421   6.865   0.701   1.976 -0.6220 -0.2087  1.2648
 2177THY    HM254422   6.925   0.547   1.922 -0.1058  1.1019 -2.7755
 2177THY    HM354423   6.804   0.604   1.829  0.1161 -1.2697 -0.5747
 2177THY    CA654424   6.754   0.400   2.068  0.6830 -0.2272  0.8958
 2177THY    HA654425   6.843   0.347   2.034  1.7367  0.2342  2.7326
 2178THY      O54426   9.826   8.956   7.843  0.7655  0.7337  0.2169
 2178THY     HO54427   9.746   8.971   7.897 -1.8836 -0.0118 -3.1059
 2178THY    CA154428   9.774   8.997   7.724  0.2493  0.1795  0.1151
 2178THY    CA254429   9.861   9.060   7.627  0.0826 -0.4861 -0.7993
 2178THY    CP154430  10.011   9.053   7.661 -0.7593  0.0672  0.3857
 2178THY    HP154431  10.025   9.078   7.767 -1.6232  1.0850  0.2807
 2178THY    CP254432  10.064   8.915   7.625 -0.6157 -0.0714  0.3711
 2178THY    HP254433  10.030   8.911   7.520  0.0152  0.5378  0.1407
 2178THY    HP354434  10.172   8.896   7.624 -0.5289  0.3781 -1.1762
 2178THY    HP454435  10.011   8.835   7.677 -1.0569  0.5488  0.8802
 2178THY    CP354436  10.089   9.164   7.583 -0.6861  1.1663 -0.4044
 2178THY    HP554437  10.194   9.141   7.606 -1.1968 -1.0108  0.0365
 2178THY    HP654438  10.089   9.142   7.476  2.7024 -1.7022 -0.0370
 2178THY    HP754439  10.063   9.267   7.608  0.6404  1.6824 -1.0374
 2178THY    CA354440   9.811   9.102   7.507  0.5856  0.5051 -0.3201
 2178THY    HA354441   9.871   9.154   7.433  1.7487  2.2481  1.7294
 2178THY    CA454442   9.671   9.087   7.480  0.6304  0.1875  0.3124
 2178THY    HA454443   9.626   9.119   7.387 -0.9745 -1.5097  0.4413
 2178THY    CA554444   9.587   9.031   7.579 -0.2769  0.5714  0.5730
 2178THY    CM154445   9.439   9.010   7.545  0.4948 -0.5432  0.6631
 2178THY    HM154446   9.383   9.104   7.536 -0.4107 -1.2096 -1.6994
 2178THY    HM254447   9.437   8.967   7.443  0.7774  0.0485  0.4074
 2178THY    HM354448   9.384   8.944   7.613 -0.8690  0.9759  1.0893
 2178THY    CA654449   9.642   8.985   7.696  0.2236  0.0810 -0.7574
 2178THY    HA654450   9.577   8.938   7.769  0.5975  3.0335  1.7233
 2179THY      O54451   6.187   5.600   4.313  0.0102  0.5664  0.1295
 2179THY     HO54452   6.192   5.697   4.316 -0.4098  0.6860 -1.6782
 2179THY    CA154453   6.297   5.560   4.243 -0.1742 -0.2623 -0.1559
 2179THY    CA254454   6.312   5.437   4.173 -0.2171  0.0170  0.5283
 2179THY    CP154455   6.205   5.331   4.188  1.0270 -0.9065 -0.1646
 2179THY    HP154456   6.133   5.366   4.263  1.9745 -0.4033  0.5270
 2179THY    CP254457   6.112   5.321   4.068 -0.4737  0.1101 -0.1725
 2179THY    HP254458   6.066   5.418   4.046 -0.5153  0.7601  2.4568
 2179THY    HP354459   6.168   5.298   3.977 -2.3100 -0.9115 -1.1117
 2179THY    HP454460   6.033   5.248   4.090  1.6510 -2.0579  0.6949
 2179THY    CP354461   6.262   5.199   4.243  0.8570 -0.3605  0.3211
 2179THY    HP554462   6.350   5.209   4.308  1.4384 -0.1433 -0.4787
 2179THY    HP654463   6.187   5.134   4.289 -0.1212 -0.3313 -1.1632
 2179THY    HP754464   6.298   5.138   4.159  0.2624 -0.4496  0.1271
 2179THY    CA354465   6.429   5.413   4.094  0.4700 -0.2835 -1.0353
 2179THY    HA354466   6.448   5.325   4.033  1.4084  0.4158 -1.7865
 2179THY    CA454467   6.520   5.515   4.077 -0.3107 -0.1327  0.0825
 2179THY    HA454468   6.601   5.504   4.006 -1.0489 -0.5450 -0.7157
 2179THY    CA554469   6.512   5.629   4.153  0.2316 -0.0600  0.4391
 2179THY    CM154470   6.615   5.746   4.141  0.0171 -0.4880 -0.4155
 2179THY    HM154471   6.693   5.719   4.069  0.8471 -0.3406  0.4051
 2179THY    HM254472   6.559   5.833   4.104 -0.6689 -1.2681 -1.2900
 2179THY    HM354473   6.658   5.782   4.235 -3.2617  3.5804 -0.1626
 2179THY    CA654474   6.403   5.650   4.235  0.0420  0.0893  0.1047
 2179THY    HA654475   6.400   5.737   4.300  0.4152 -1.0046  1.6386
 2180THY      O54476   3.150   3.122   9.337  0.6267 -0.0184  0.2463
 2180THY     HO54477   3.152   3.206   9.288  0.3192 -0.3372 -0.3320
 2180THY    CA154478   3.272   3.088   9.374  0.7219 -1.0367 -0.4928
 2180THY    CA254479   3.304   3.066   9.508  0.4453 -0.4733 -0.0087
 2180THY    CP154480   3.214   3.114   9.625  0.6877 -0.4999  0.2737
 2180THY    HP154481   3.125   3.171   9.597  0.8601 -0.6189 -0.5534
 2180THY    CP254482   3.183   2.990   9.722  0.6183 -0.1182  0.7994
 2180THY    HP254483   3.163   2.907   9.654  1.4097  0.4748 -0.1901
 2180THY    HP354484   3.261   2.963   9.794 -0.3563 -0.1754  1.8637
 2180THY    HP454485   3.098   3.013   9.787  0.9102 -2.0326  1.9406
 2180THY    CP354486   3.291   3.206   9.722 -0.0678  0.0167 -0.1886
 2180THY    HP554487   3.398   3.184   9.725  0.5559  2.8005  0.8747
 2180THY    HP654488   3.283   3.312   9.694  1.0981  0.6013  1.4958
 2180THY    HP754489   3.259   3.199   9.827 -0.6681 -2.9941 -0.4968
 2180THY    CA354490   3.432   3.015   9.537 -0.1673 -0.2780  0.1554
 2180THY    HA354491   3.461   2.995   9.639  0.3697 -0.6784 -0.0742
 2180THY    CA454492   3.512   2.968   9.427  0.1021  0.1578 -0.6891
 2180THY    HA454493   3.613   2.928   9.432  0.8332  2.0244  0.4082
 2180THY    CA554494   3.470   2.985   9.296  0.6998 -0.7409  0.9738
 2180THY    CM154495   3.558   2.931   9.187 -0.2231  0.6708  0.2929
 2180THY    HM154496   3.583   2.827   9.212 -0.3630  0.8092  1.0470
 2180THY    HM254497   3.503   2.934   9.092  0.4901 -0.5414 -0.1704
 2180THY    HM354498   3.657   2.975   9.169  0.0922  0.4902  1.4565
 2180THY    CA654499   3.353   3.047   9.273 -0.6833  0.7459 -0.4696
 2180THY    HA654500   3.315   3.058   9.172 -0.1700  1.9356 -0.5532
 2181THY      O54501   4.310   5.551   2.729 -0.3660  0.3067  0.1914
 2181THY     HO54502   4.327   5.504   2.645 -2.2003 -1.5846  0.7651
 2181THY    CA154503   4.372   5.673   2.730  0.9071 -0.4454 -0.5989
 2181THY    CA254504   4.300   5.786   2.770  1.0483 -0.2126  0.2035
 2181THY    CP154505   4.158   5.771   2.817  0.5989 -0.6586 -0.0478
 2181THY    HP154506   4.118   5.689   2.755 -0.0434  0.9037 -1.8176
 2181THY    CP254507   4.148   5.729   2.961 -0.1961 -0.7565 -0.5598
 2181THY    HP254508   4.049   5.695   2.994  0.9640 -0.4126  3.9293
 2181THY    HP354509   4.209   5.640   2.980  0.4843 -0.5343 -1.6354
 2181THY    HP454510   4.192   5.807   3.023 -0.6256  0.8783 -2.2189
 2181THY    CP354511   4.058   5.892   2.805 -0.4561  0.2678  0.4239
 2181THY    HP554512   4.049   5.934   2.704 -3.4031  0.0595  0.5158
 2181THY    HP654513   3.957   5.863   2.834 -1.4982  0.2946 -2.7604
 2181THY    HP754514   4.087   5.974   2.872  2.3434 -0.8332  0.7045
 2181THY    CA354515   4.368   5.911   2.778 -0.2952  0.0283  0.3224
 2181THY    HA354516   4.316   6.001   2.810 -0.1030  0.4862 -0.6257
 2181THY    CA454517   4.496   5.925   2.727 -0.7318 -0.1743 -0.2637
 2181THY    HA454518   4.534   6.027   2.732  0.2403 -0.4307 -1.7882
 2181THY    CA554519   4.563   5.812   2.666  0.1586 -0.8949 -0.4937
 2181THY    CM154520   4.698   5.830   2.612 -0.0376  0.9095 -0.5746
 2181THY    HM154521   4.714   5.926   2.561  0.3685  1.1654  0.0328
 2181THY    HM254522   4.776   5.808   2.685 -0.1154 -0.7714 -0.9544
 2181THY    HM354523   4.702   5.756   2.530 -1.6586  1.6142 -1.3510
 2181THY    CA654524   4.499   5.690   2.678 -0.3477  0.0606 -0.5112
 2181THY    HA654525   4.554   5.603   2.643 -1.0789 -1.4597  1.8604
 2182THY      O54526   7.197   3.528   1.700 -0.0172  0.0878 -0.1265
 2182THY     HO54527   7.170   3.448   1.651 -1.2575  0.1360  0.4434
 2182THY    CA154528   7.313   3.497   1.766 -0.2561  0.5372 -0.3070
 2182THY    CA254529   7.414   3.590   1.790 -0.2375 -0.3266 -0.3112
 2182THY    CP154530   7.413   3.735   1.730 -0.1580  0.2672 -0.5528
 2182THY    HP154531   7.325   3.748   1.665  0.8895  0.7178 -1.9109
 2182THY    CP254532   7.398   3.843   1.844  0.3501 -0.4072  0.4615
 2182THY    HP254533   7.301   3.846   1.896 -0.6878  0.2116 -1.4079
 2182THY    HP354534   7.466   3.823   1.927  1.3173  0.9869  0.0442
 2182THY    HP454535   7.418   3.945   1.808  0.2165  0.1645  1.9123
 2182THY    CP354536   7.525   3.752   1.629  0.5200 -0.1285  0.0912
 2182THY    HP554537   7.624   3.722   1.666  0.9301  0.5925 -0.3939
 2182THY    HP654538   7.506   3.694   1.538 -0.8391 -2.6419  1.8684
 2182THY    HP754539   7.530   3.859   1.602 -0.1235  0.5298  2.3342
 2182THY    CA354540   7.528   3.553   1.867 -0.2260 -0.0729 -0.0450
 2182THY    HA354541   7.610   3.619   1.895 -0.9971  0.8090  0.1680
 2182THY    CA454542   7.541   3.420   1.908  0.1531 -0.2425  0.3100
 2182THY    HA454543   7.634   3.381   1.948  0.4943  1.4471  1.2381
 2182THY    CA554544   7.439   3.333   1.895  0.3069 -0.1359  0.2870
 2182THY    CM154545   7.448   3.194   1.939 -0.3635  0.5402 -0.5121
 2182THY    HM154546   7.402   3.182   2.037  3.4781  0.8794  1.5213
 2182THY    HM254547   7.403   3.131   1.861  1.8125 -1.7649 -0.0321
 2182THY    HM354548   7.550   3.154   1.947 -0.2724  0.7651 -0.5264
 2182THY    CA654549   7.324   3.369   1.825  0.6902 -0.0773  0.1527
 2182THY    HA654550   7.242   3.297   1.823  0.4734  0.1394 -2.5646
 2183THY      O54551   2.339   7.791   6.171  0.1447  0.7795 -0.2396
 2183THY     HO54552   2.334   7.697   6.198 -0.4530  0.5652 -1.0604
 2183THY    CA154553   2.457   7.819   6.106 -0.2356  0.2136 -0.1377
 2183THY    CA254554   2.540   7.924   6.147 -0.0035  0.3674 -0.3396
 2183THY    CP154555   2.518   8.000   6.275 -0.3694  0.4599 -0.6296
 2183THY    HP154556   2.409   8.003   6.288 -0.4364  2.0656 -1.3678
 2183THY    CP254557   2.566   7.928   6.394 -0.3072  0.6493 -0.1183
 2183THY    HP254558   2.511   7.951   6.486  0.5172  0.9241  0.3189
 2183THY    HP354559   2.551   7.821   6.375  0.7553  0.9199 -2.9779
 2183THY    HP454560   2.674   7.944   6.402  0.2996 -1.6389 -2.4868
 2183THY    CP354561   2.573   8.145   6.273 -0.2119 -0.1340 -0.0255
 2183THY    HP554562   2.545   8.197   6.181  0.4469  1.3831  0.5961
 2183THY    HP654563   2.534   8.189   6.365 -0.1935 -2.0502  0.9620
 2183THY    HP754564   2.682   8.157   6.277  0.2116 -3.3928  1.0068
 2183THY    CA354565   2.662   7.942   6.077  0.2693  0.7358 -0.6530
 2183THY    HA354566   2.736   8.017   6.103  1.3230 -0.9973  1.6419
 2183THY    CA454567   2.688   7.871   5.960 -0.0650 -0.0299  0.7733
 2183THY    HA454568   2.766   7.904   5.892 -0.5998 -0.2732  0.0272
 2183THY    CA554569   2.607   7.762   5.920 -0.7562  0.3520 -1.1082
 2183THY    CM154570   2.635   7.661   5.805 -0.0966 -0.1957 -1.0278
 2183THY    HM154571   2.540   7.638   5.756 -0.1595 -0.5963 -0.7233
 2183THY    HM254572   2.697   7.718   5.735 -1.2358  0.7121 -1.3338
 2183THY    HM354573   2.687   7.574   5.847 -0.4890 -0.3593 -0.8776
 2183THY    CA654574   2.496   7.734   5.999  0.4061 -0.3768 -0.3411
 2183THY    HA654575   2.429   7.656   5.966 -1.4905  1.0574 -0.0868
 2184THY      O54576   4.383   7.350   9.715  0.3802 -0.9232  0.1867
 2184THY     HO54577   4.459   7.329   9.657 -0.2923 -1.3988 -0.5480
 2184THY    CA154578   4.270   7.354   9.635  0.3931 -0.0231  0.0560
 2184THY    CA254579   4.140   7.329   9.679 -0.1392 -0.3248  0.7954
 2184THY    CP154580   4.114   7.264   9.822 -0.2064 -0.8847  0.0745
 2184THY    HP154581   4.212   7.246   9.868  0.2385  0.4011 -0.3322
 2184THY    CP254582   4.051   7.360   9.916 -0.0764 -0.0721 -0.1647
 2184THY    HP254583   4.103   7.457   9.911  0.6393 -0.3403  1.4125
 2184THY    HP354584   3.949   7.369   9.879 -1.1402 -2.2916  1.9840
 2184THY    HP454585   4.056   7.322  10.019 -0.8467  0.1768 -0.0351
 2184THY    CP354586   4.044   7.130   9.805 -0.0480 -0.1537 -0.9028
 2184THY    HP554587   3.946   7.142   9.757  0.5103  1.4057 -1.7445
 2184THY    HP654588   4.107   7.057   9.753  3.5301  1.2354  1.1051
 2184THY    HP754589   4.016   7.088   9.902  0.3055  0.1815 -0.6514
 2184THY    CA354590   4.032   7.338   9.595  0.2115  0.5930 -0.7115
 2184THY    HA354591   3.932   7.334   9.639  0.2097 -1.0927 -0.8252
 2184THY    CA454592   4.061   7.376   9.463  0.6605 -0.2513 -0.5407
 2184THY    HA454593   3.978   7.395   9.396  0.5010  0.6670 -0.1020
 2184THY    CA554594   4.193   7.391   9.418  0.6663 -0.7111  0.9394
 2184THY    CM154595   4.212   7.411   9.267  0.1575 -0.5488 -0.0765
 2184THY    HM154596   4.116   7.420   9.216  0.3195 -0.8882 -0.4464
 2184THY    HM254597   4.267   7.503   9.241  1.9640 -1.1851  1.2739
 2184THY    HM354598   4.269   7.323   9.235  1.0050 -0.1451  0.2721
 2184THY    CA654599   4.301   7.374   9.505 -0.1313  0.0244 -0.5086
 2184THY    HA654600   4.404   7.374   9.470  0.2652 -2.5988  0.3944
 2185THY      O54601   3.357   1.202   8.036  0.1533  0.0735 -0.1696
 2185THY     HO54602   3.318   1.205   8.125 -1.0520 -1.4933 -0.5958
 2185THY    CA154603   3.260   1.209   7.947 -0.1591  0.2390 -0.1749
 2185THY    CA254604   3.286   1.230   7.810 -0.3078  0.5617 -0.0907
 2185THY    CP154605   3.439   1.244   7.769  0.8826 -0.1082 -0.3618
 2185THY    HP154606   3.498   1.160   7.808  0.1603 -0.3585  0.2121
 2185THY    CP254607   3.461   1.238   7.609 -0.5294 -0.3381 -0.0709
 2185THY    HP254608   3.416   1.326   7.562 -0.3505 -0.2213 -0.0221
 2185THY    HP354609   3.568   1.240   7.587 -0.7469 -0.3043 -1.1801
 2185THY    HP454610   3.424   1.142   7.572 -0.3094  0.0042 -1.2262
 2185THY    CP354611   3.491   1.385   7.819  0.4218  0.2156  0.8713
 2185THY    HP554612   3.504   1.376   7.927  0.6209 -4.6083  0.6636
 2185THY    HP654613   3.589   1.398   7.772 -0.6282  0.1069 -1.5143
 2185THY    HP754614   3.426   1.462   7.776  0.5993 -0.9403 -1.7177
 2185THY    CA354615   3.176   1.235   7.725  0.3721  0.0169  0.5783
 2185THY    HA354616   3.197   1.239   7.619  2.1464 -0.2948  0.8979
 2185THY    CA454617   3.045   1.226   7.780 -0.0100 -0.3422  0.5013
 2185THY    HA454618   2.967   1.227   7.704  0.3135  0.1307  0.1651
 2185THY    CA554619   3.020   1.226   7.911 -0.0091 -0.5435  0.5335
 2185THY    CM154620   2.878   1.209   7.961  0.3961 -0.4214 -0.4620
 2185THY    HM154621   2.819   1.140   7.900  0.3128  1.6325 -2.8194
 2185THY    HM254622   2.867   1.182   8.067 -0.8149 -2.7620 -1.1193
 2185THY    HM354623   2.826   1.302   7.934  1.0812  0.2233  0.3793
 2185THY    CA654624   3.134   1.218   8.007 -0.0355  0.3855  0.9298
 2185THY    HA654625   3.116   1.216   8.114 -0.3588  0.4429  0.8793
 2186THY      O54626   1.167   7.075   9.730 -0.2087 -0.2512  0.1698
 2186THY     HO54627   1.201   7.134   9.799 -2.5718 -1.6148  2.6828
 2186THY    CA154628   1.235   6.959   9.757  0.5523  0.1299  0.3898
 2186THY    CA254629   1.214   6.841   9.680 -0.9615  0.0472  0.4199
 2186THY    CP154630   1.145   6.851   9.545  0.1868 -0.1607 -0.0392
 2186THY    HP154631   1.132   6.959   9.527  0.4531 -0.4076 -1.9426
 2186THY    CP254632   1.220   6.796   9.423  0.6434  0.0860 -0.0607
 2186THY    HP254633   1.167   6.840   9.338 -1.1891 -1.4004  0.2780
 2186THY    HP354634   1.326   6.822   9.406 -0.0264  1.5635 -2.4640
 2186THY    HP454635   1.202   6.689   9.414 -2.7131  0.5581 -0.0534
 2186THY    CP354636   0.997   6.796   9.553  0.0761 -0.9703 -0.1874
 2186THY    HP554637   0.947   6.809   9.456  3.1117  3.9979 -1.4760
 2186THY    HP654638   1.000   6.688   9.572  1.0014 -0.5409  2.7915
 2186THY    HP754639   0.944   6.847   9.635 -0.6790 -1.8194 -0.1375
 2186THY    CA354640   1.283   6.720   9.712  0.3863 -0.6267 -0.2654
 2186THY    HA354641   1.279   6.632   9.648 -2.9083 -1.8469  1.4057
 2186THY    CA454642   1.351   6.718   9.834  0.0917  0.3652 -0.0656
 2186THY    HA454643   1.399   6.626   9.866  0.0498  0.2233 -0.4133
 2186THY    CA554644   1.359   6.833   9.923  0.3561 -0.5852  0.4647
 2186THY    CM154645   1.432   6.824  10.051 -0.6199 -0.1250  0.6123
 2186THY    HM154646   1.525   6.772  10.024  0.9741  1.7322  2.1590
 2186THY    HM254647   1.451   6.923  10.095 -1.6073 -0.0240  0.8412
 2186THY    HM354648   1.368   6.774  10.125 -1.5198 -0.4084 -0.3284
 2186THY    CA654649   1.303   6.955   9.874  0.1875  0.2364 -0.0923
 2186THY    HA654650   1.320   7.045   9.933 -0.5318  2.0468 -2.4697
 2187THY      O54651   5.099   2.704   2.073  0.4287  0.3960  0.1684
 2187THY     HO54652   5.091   2.765   2.148  1.3121  1.8671 -0.8899
 2187THY    CA154653   5.096   2.783   1.971  1.1922 -0.4908 -0.4790
 2187THY    CA254654   5.092   2.730   1.841  0.6324 -0.4899 -0.3168
 2187THY    CP154655   5.133   2.585   1.811  0.0767 -0.3866 -0.5415
 2187THY    HP154656   5.127   2.531   1.907  2.1639 -2.7587 -1.6097
 2187THY    CP254657   5.034   2.521   1.715 -0.4530  0.5677  0.2049
 2187THY    HP254658   4.932   2.522   1.754 -1.0625  3.7310 -1.1759
 2187THY    HP354659   5.031   2.577   1.621 -1.1442  0.4992  0.1807
 2187THY    HP454660   5.072   2.419   1.702 -0.9129  0.4973 -0.6349
 2187THY    CP354661   5.284   2.575   1.767 -0.6372  0.0794  0.0566
 2187THY    HP554662   5.311   2.468   1.764  0.4323  0.3238 -3.5305
 2187THY    HP654663   5.310   2.610   1.667 -0.6971 -1.1153 -0.3975
 2187THY    HP754664   5.351   2.634   1.831 -1.2327  0.7828  0.0341
 2187THY    CA354665   5.089   2.819   1.731  0.3210 -0.0390  0.1999
 2187THY    HA354666   5.098   2.771   1.634 -0.7427 -0.3546  0.2360
 2187THY    CA454667   5.076   2.954   1.754 -0.3222 -0.8927  0.0632
 2187THY    HA454668   5.065   3.016   1.666  0.2896 -1.9202 -0.7660
 2187THY    CA554669   5.084   3.006   1.886 -0.5779 -1.0985  1.0009
 2187THY    CM154670   5.063   3.158   1.921  0.5421  0.4227 -0.5478
 2187THY    HM154671   5.056   3.230   1.839  1.2791  0.2785 -0.7492
 2187THY    HM254672   4.960   3.168   1.956  0.1972 -1.0009 -1.0988
 2187THY    HM354673   5.145   3.194   1.984  1.8614  0.3451 -2.1591
 2187THY    CA654674   5.081   2.919   1.986  0.1185 -0.3920 -0.4391
 2187THY    HA654675   5.067   2.967   2.083 -0.6531  0.4219 -0.9421
 2188THY      O54676   1.579   7.876   2.578 -0.0874  0.1967 -0.3693
 2188THY     HO54677   1.574   7.806   2.644  0.8752  1.1186  0.7319
 2188THY    CA154678   1.707   7.898   2.580 -0.9791 -0.4159  0.7034
 2188THY    CA254679   1.784   7.894   2.464  0.5761  0.2675  0.0107
 2188THY    CP154680   1.716   7.867   2.328  0.9804  0.0688  0.6660
 2188THY    HP154681   1.607   7.867   2.327  0.8968  0.8929 -2.4596
 2188THY    CP254682   1.749   7.975   2.224  1.1338 -0.3561 -0.1299
 2188THY    HP254683   1.742   8.077   2.265  0.6255 -0.1900 -0.6005
 2188THY    HP354684   1.853   7.963   2.193  0.6408 -1.3971 -1.4821
 2188THY    HP454685   1.676   7.968   2.142  0.7540 -0.8408  0.2423
 2188THY    CP354686   1.749   7.726   2.271 -0.1346  0.5608 -0.7058
 2188THY    HP554687   1.684   7.694   2.188  0.3287 -1.4931 -0.3285
 2188THY    HP654688   1.854   7.706   2.246  0.2600 -1.5170  2.1428
 2188THY    HP754689   1.731   7.644   2.342 -0.1557  0.1002 -1.2378
 2188THY    CA354690   1.919   7.919   2.473  0.3013 -0.2435  0.2190
 2188THY    HA354691   1.970   7.900   2.379 -1.4248 -1.5700 -0.4982
 2188THY    CA454692   1.988   7.924   2.600  0.7685 -0.0687  0.0927
 2188THY    HA454693   2.090   7.961   2.598  0.1495  1.7218 -0.0338
 2188THY    CA554694   1.914   7.916   2.720  0.4638 -0.0402  0.1306
 2188THY    CM154695   1.995   7.933   2.848  0.3531  0.4974 -0.7761
 2188THY    HM154696   1.931   8.000   2.906  0.8896  1.0057 -0.7623
 2188THY    HM254697   2.006   7.840   2.904 -1.5120  1.3188  1.1187
 2188THY    HM354698   2.091   7.984   2.831  0.5430  0.1828 -0.6535
 2188THY    CA654699   1.774   7.913   2.708  0.1348 -0.0737  0.3605
 2188THY    HA654700   1.708   7.918   2.794  0.6154  0.4513  0.7089
 2189THY      O54701   3.906   9.237   2.173 -0.4005 -0.7504 -0.7744
 2189THY     HO54702   3.815   9.235   2.206 -0.5067 -1.6187 -1.0752
 2189THY    CA154703   3.957   9.114   2.211 -0.5484  0.2988 -0.3936
 2189THY    CA254704   4.089   9.066   2.179  0.9130  0.1994 -0.1940
 2189THY    CP154705   4.185   9.146   2.092 -0.4149 -0.1525  0.2048
 2189THY    HP154706   4.137   9.244   2.077 -1.0488  0.0114  2.8886
 2189THY    CP254707   4.312   9.174   2.170  0.1834 -0.1873  0.2646
 2189THY    HP254708   4.271   9.209   2.265 -3.6228 -3.6503  0.1873
 2189THY    HP354709   4.392   9.099   2.180 -0.7158 -0.9094  2.7135
 2189THY    HP454710   4.363   9.257   2.121  0.9616 -2.7236 -3.6835
 2189THY    CP354711   4.223   9.085   1.958 -0.2584 -0.0593 -0.4434
 2189THY    HP554712   4.134   9.066   1.897 -0.9945  1.2546  0.1765
 2189THY    HP654713   4.280   9.165   1.908  0.8454 -0.7745 -0.3514
 2189THY    HP754714   4.279   8.992   1.968 -1.5545 -0.9434 -1.1834
 2189THY    CA354715   4.131   8.939   2.228 -0.0655 -0.9842 -0.0999
 2189THY    HA354716   4.231   8.904   2.202  0.8345  1.3394  0.0339
 2189THY    CA454717   4.044   8.866   2.305 -0.1235  1.2591 -0.9581
 2189THY    HA454718   4.074   8.765   2.331 -1.1354  0.8983 -1.1625
 2189THY    CA554719   3.924   8.916   2.350  0.1527 -0.4817 -0.0570
 2189THY    CM154720   3.844   8.833   2.441 -0.7865 -0.0703 -0.0450
 2189THY    HM154721   3.814   8.739   2.392 -1.5197  0.0450  0.1773
 2189THY    HM254722   3.902   8.812   2.531 -0.7976  1.1722  0.2652
 2189THY    HM354723   3.759   8.890   2.480 -0.9915  0.7471 -1.5839
 2189THY    CA654724   3.876   9.040   2.298 -0.2517 -0.2022 -0.4908
 2189THY    HA654725   3.780   9.074   2.334  0.2656 -0.8828  1.7434
 2190THY      O54726   2.169   8.148   3.054  0.2961 -0.1875  0.2007
 2190THY     HO54727   2.201   8.056   3.056  0.0089 -0.2858  0.3399
 2190THY    CA154728   2.149   8.172   3.185 -0.3512  0.4019  0.9930
 2190THY    CA254729   2.111   8.296   3.235  0.2442 -0.2744  0.1547
 2190THY    CP154730   2.062   8.405   3.138 -0.1082  0.0226 -0.2847
 2190THY    HP154731   2.117   8.393   3.044 -0.4826 -0.6961 -0.4262
 2190THY    CP254732   1.919   8.384   3.098  0.5218 -0.2219 -0.1982
 2190THY    HP254733   1.909   8.282   3.057 -1.9683 -0.5805  1.1073
 2190THY    HP354734   1.860   8.382   3.190  0.3705  1.1426 -0.2497
 2190THY    HP454735   1.889   8.460   3.025  3.3743  0.7621 -0.4637
 2190THY    CP354736   2.077   8.547   3.192  0.4121  0.2295  0.8290
 2190THY    HP554737   2.087   8.614   3.106  0.1042 -1.6825 -0.7783
 2190THY    HP654738   1.992   8.587   3.249  0.3969 -0.2075  1.1169
 2190THY    HP754739   2.170   8.556   3.249 -0.0405 -2.0514  2.0554
 2190THY    CA354740   2.091   8.313   3.374  0.0032 -0.1296  0.3826
 2190THY    HA354741   2.071   8.407   3.426  0.5629 -0.1720  0.6796
 2190THY    CA454742   2.119   8.207   3.458  0.2109 -0.3486 -0.3561
 2190THY    HA454743   2.108   8.219   3.566 -1.5681 -1.3519 -0.3767
 2190THY    CA554744   2.162   8.084   3.405  0.2307 -0.3499 -0.1004
 2190THY    CM154745   2.199   7.967   3.493  0.1308 -0.2173  0.2248
 2190THY    HM154746   2.115   7.898   3.485 -0.7591  0.9715 -1.3753
 2190THY    HM254747   2.294   7.918   3.465 -0.5008 -1.2859 -0.0973
 2190THY    HM354748   2.209   7.999   3.597 -0.4720  0.5576  0.0535
 2190THY    CA654749   2.175   8.069   3.267 -0.3412  0.7492  0.1562
 2190THY    HA654750   2.219   7.977   3.229 -0.3753  1.2762 -1.2168
 2191THY      O54751   3.547   5.034   8.779 -0.5749 -0.0495 -0.1014
 2191THY     HO54752   3.474   5.094   8.799 -1.7349 -0.8906 -1.5679
 2191THY    CA154753   3.622   5.109   8.700  1.0122  0.0671  0.0206
 2191THY    CA254754   3.760   5.082   8.677  0.0041  0.4074 -0.1162
 2191THY    CP154755   3.823   4.962   8.742 -0.4232  0.1739  0.1490
 2191THY    HP154756   3.752   4.896   8.791  0.4746 -0.8700  0.0853
 2191THY    CP254757   3.900   4.878   8.644 -0.5286 -0.4376  0.0731
 2191THY    HP254758   3.980   4.944   8.608 -1.8750  1.0873 -0.2543
 2191THY    HP354759   3.941   4.787   8.688 -2.4318 -1.1219  0.5313
 2191THY    HP454760   3.839   4.865   8.554 -0.4859 -1.2128  0.1509
 2191THY    CP354761   3.912   5.008   8.857  0.7624  0.9092 -0.4262
 2191THY    HP554762   4.007   5.051   8.823  1.8442  1.7178  3.1545
 2191THY    HP654763   3.861   5.057   8.941 -0.2753  0.8725 -1.0294
 2191THY    HP754764   3.950   4.921   8.912 -0.8456  0.0437 -0.6355
 2191THY    CA354765   3.828   5.178   8.598  0.3035  0.2115 -0.6132
 2191THY    HA354766   3.936   5.174   8.586  0.3048 -0.1836 -0.4747
 2191THY    CA454767   3.751   5.284   8.539 -0.6868 -0.8658  0.8275
 2191THY    HA454768   3.797   5.361   8.478  0.8783 -0.9920  1.7918
 2191THY    CA554769   3.606   5.284   8.550 -0.3555 -0.5122  0.3965
 2191THY    CM154770   3.535   5.393   8.484  0.0702 -0.9483  0.2209
 2191THY    HM154771   3.429   5.367   8.475 -0.6032  1.2984  1.2168
 2191THY    HM254772   3.527   5.477   8.553  0.7781 -0.7028  0.0255
 2191THY    HM354773   3.579   5.418   8.386 -2.2566 -0.8271 -0.8575
 2191THY    CA654774   3.543   5.205   8.638  0.2285  0.6485 -1.1512
 2191THY    HA654775   3.438   5.218   8.660  0.5801  2.5366 -0.3801
 2192THY      O54776   1.769   8.643   8.847  0.5983  0.0771 -0.0412
 2192THY     HO54777   1.821   8.697   8.909 -0.0639  2.5040 -1.5073
 2192THY    CA154778   1.818   8.684   8.728 -0.2004  0.3590 -0.1648
 2192THY    CA254779   1.755   8.654   8.602 -0.2686 -0.5415 -0.7067
 2192THY    CP154780   1.622   8.582   8.592  0.1227  0.2772 -0.9443
 2192THY    HP154781   1.606   8.529   8.687 -0.0843  0.0724 -1.0932
 2192THY    CP254782   1.501   8.684   8.579  0.4037  0.3157  0.3195
 2192THY    HP254783   1.518   8.749   8.492  0.0462  1.6600  1.2221
 2192THY    HP354784   1.410   8.627   8.559  0.7499  0.0862 -0.6591
 2192THY    HP454785   1.484   8.738   8.673 -0.1117  0.8545 -0.0713
 2192THY    CP354786   1.626   8.496   8.471  0.5410 -0.1681 -0.2018
 2192THY    HP554787   1.599   8.550   8.379 -0.4604  1.8479  1.1962
 2192THY    HP654788   1.724   8.450   8.456  0.1579 -0.8631 -0.6068
 2192THY    HP754789   1.555   8.413   8.467 -1.6757  1.6526 -1.8633
 2192THY    CA354790   1.808   8.713   8.482 -0.9788  0.0031 -1.0594
 2192THY    HA354791   1.763   8.692   8.385 -1.2493  1.0861 -1.1795
 2192THY    CA454792   1.937   8.764   8.492  0.1809  0.2212 -0.4272
 2192THY    HA454793   1.991   8.801   8.405  1.4588 -2.0561 -0.6919
 2192THY    CA554794   2.007   8.782   8.616  0.6090  0.4853 -0.6593
 2192THY    CM154795   2.142   8.843   8.606  0.1821 -0.1895  0.4907
 2192THY    HM154796   2.135   8.929   8.539 -1.8420 -0.6352  0.0554
 2192THY    HM254797   2.185   8.874   8.702  2.4909  1.3469 -0.9461
 2192THY    HM354798   2.209   8.767   8.565  0.1299 -0.5669  1.0931
 2192THY    CA654799   1.946   8.741   8.734  0.3051  0.0755 -0.1340
 2192THY    HA654800   2.000   8.742   8.828  0.0257 -1.5813  0.0775
 2193THY      O54801   8.200   0.447   9.382 -0.3654 -0.0301 -0.6745
 2193THY     HO54802   8.112   0.408   9.399 -0.2797 -0.0496 -0.2627
 2193THY    CA154803   8.236   0.422   9.256  0.5118  0.4376  0.8644
 2193THY    CA254804   8.359   0.461   9.201 -0.8393  0.3689  0.1911
 2193THY    CP154805   8.471   0.524   9.291  0.0945 -0.2250  0.4385
 2193THY    HP154806   8.431   0.556   9.388  1.0812 -0.0099  0.7871
 2193THY    CP254807   8.596   0.441   9.305  0.0298  0.4849  0.8360
 2193THY    HP254808   8.638   0.430   9.204 -0.6175  0.3148  0.5801
 2193THY    HP354809   8.672   0.496   9.362 -0.0556  0.2327  1.2002
 2193THY    HP454810   8.563   0.345   9.347 -1.0072 -0.2424 -1.4762
 2193THY    CP354811   8.509   0.662   9.237 -0.0872 -0.0721  0.2240
 2193THY    HP554812   8.421   0.727   9.226 -0.3996 -0.4921  0.2153
 2193THY    HP654813   8.560   0.719   9.316 -0.4641  0.9891 -0.2647
 2193THY    HP754814   8.582   0.665   9.155  1.6806  2.2709  1.7232
 2193THY    CA354815   8.389   0.437   9.064 -0.1508 -0.5296  0.0162
 2193THY    HA354816   8.485   0.473   9.027 -0.4900  1.4118  0.9206
 2193THY    CA454817   8.294   0.368   8.986 -0.5633  0.6248  0.0098
 2193THY    HA454818   8.319   0.345   8.882  2.5415 -1.9131  1.1572
 2193THY    CA554819   8.172   0.331   9.039  0.5975  0.2627 -0.8264
 2193THY    CM154820   8.067   0.266   8.949  0.2285 -0.3354  0.4463
 2193THY    HM154821   8.086   0.162   8.922  0.5123  0.1811 -1.5088
 2193THY    HM254822   7.971   0.268   9.002 -2.5591 -1.7787 -3.9642
 2193THY    HM354823   8.048   0.330   8.862 -0.2487 -0.5819  0.3619
 2193THY    CA654824   8.141   0.359   9.177  0.5750 -0.6367  0.3047
 2193THY    HA654825   8.045   0.334   9.223  0.6385  0.4312  1.0603
 2194THY      O54826   8.546   1.847   9.880  0.2178  0.0375 -0.4049
 2194THY     HO54827   8.635   1.877   9.858 -0.2448  0.4752 -1.7779
 2194THY    CA154828   8.483   1.859   9.764  0.1093 -0.0222 -0.3476
 2194THY    CA254829   8.340   1.861   9.764  0.2012 -0.1916 -0.2806
 2194THY    CP154830   8.258   1.838   9.887  0.4454  0.6245  0.0057
 2194THY    HP154831   8.312   1.801   9.975 -2.3714 -1.6201  0.9705
 2194THY    CP254832   8.174   1.965   9.928  0.3461  0.2099  0.1964
 2194THY    HP254833   8.099   1.997   9.855  0.7392  1.0014  0.1331
 2194THY    HP354834   8.134   1.933  10.025  1.9431 -1.6300  0.2945
 2194THY    HP454835   8.241   2.048   9.952 -1.2730  1.5826  0.1607
 2194THY    CP354836   8.162   1.721   9.868  0.2467  0.2302 -0.3903
 2194THY    HP554837   8.082   1.739   9.795  0.3926  2.1100 -0.1536
 2194THY    HP654838   8.210   1.625   9.847 -1.6322 -0.3713 -2.2702
 2194THY    HP754839   8.109   1.709   9.963 -1.5041  0.8439 -1.2503
 2194THY    CA354840   8.277   1.870   9.637  0.3947  0.0060  0.4008
 2194THY    HA354841   8.170   1.857   9.628  0.3528  1.1160 -1.0027
 2194THY    CA454842   8.358   1.874   9.525 -0.4724 -0.1807  0.0873
 2194THY    HA454843   8.306   1.868   9.431 -2.4501 -1.1722  1.1810
 2194THY    CA554844   8.496   1.873   9.529  0.4271  0.5039  0.0168
 2194THY    CM154845   8.585   1.881   9.404  0.0016  0.5735  0.7705
 2194THY    HM154846   8.592   1.786   9.350  0.2558  1.1957 -0.3150
 2194THY    HM254847   8.545   1.956   9.335 -3.4101 -1.3329  0.4669
 2194THY    HM354848   8.689   1.904   9.431  1.7401 -3.4953 -1.5516
 2194THY    CA654849   8.561   1.874   9.653  0.1040 -0.1001  0.3101
 2194THY    HA654850   8.665   1.855   9.674 -0.2684 -1.8913  0.7026
 2195THY      O54851   6.311   3.996   5.130 -0.4744 -0.1444 -0.2317
 2195THY     HO54852   6.296   3.957   5.043  2.7975 -0.0867 -0.9587
 2195THY    CA154853   6.231   4.104   5.141 -0.0841 -0.1721  0.1674
 2195THY    CA254854   6.271   4.226   5.195  0.3037 -0.9078 -0.6000
 2195THY    CP154855   6.411   4.229   5.241  0.0210 -0.4414 -0.4212
 2195THY    HP154856   6.474   4.163   5.179 -2.1846 -2.7015 -0.4309
 2195THY    CP254857   6.483   4.368   5.244 -0.0338  0.6273 -0.2311
 2195THY    HP254858   6.453   4.424   5.155 -0.5018 -0.3280 -0.6775
 2195THY    HP354859   6.468   4.421   5.339  1.1747  0.5178  0.0446
 2195THY    HP454860   6.593   4.362   5.244  0.0717  2.1649 -0.8896
 2195THY    CP354861   6.413   4.179   5.387  0.7060  0.6276  0.4229
 2195THY    HP554862   6.336   4.229   5.448 -1.0060  2.1017 -2.7160
 2195THY    HP654863   6.386   4.073   5.393 -0.3605  0.7170 -1.9064
 2195THY    HP754864   6.512   4.193   5.433  0.2066  0.0490  1.7212
 2195THY    CA354865   6.178   4.336   5.198 -1.1307  0.0561 -0.0205
 2195THY    HA354866   6.202   4.432   5.243  0.2591 -0.0434 -0.5078
 2195THY    CA454867   6.050   4.318   5.142 -0.0687 -0.2066 -0.1651
 2195THY    HA454868   5.974   4.396   5.146 -1.3262 -1.4302  0.6724
 2195THY    CA554869   6.014   4.193   5.090 -0.2739 -1.0889  0.5037
 2195THY    CM154870   5.883   4.186   5.016 -0.3988  0.1900 -1.0451
 2195THY    HM154871   5.862   4.277   4.958 -0.3113 -0.7314 -2.6011
 2195THY    HM254872   5.879   4.106   4.941 -0.8197  0.2554 -1.0922
 2195THY    HM354873   5.805   4.161   5.088 -1.3205  0.2812 -1.9876
 2195THY    CA654874   6.108   4.094   5.075 -0.1798  0.9902  0.1406
 2195THY    HA654875   6.077   4.003   5.024  0.2631  0.5589  0.6384
 2196THY      O54876   4.675   6.836   7.291  0.6821  0.8039  0.0485
 2196THY     HO54877   4.769   6.811   7.284  0.5291 -0.0606  0.8786
 2196THY    CA154878   4.618   6.775   7.191  0.5503 -0.2094  0.7310
 2196THY    CA254879   4.507   6.829   7.119  0.6659 -0.5247 -0.0324
 2196THY    CP154880   4.456   6.969   7.156 -0.2318 -0.2493 -0.0496
 2196THY    HP154881   4.479   7.007   7.256  3.0202  0.4526 -0.9434
 2196THY    CP254882   4.531   7.072   7.072 -0.7395  0.3064  0.1994
 2196THY    HP254883   4.469   7.162   7.083 -3.3275 -1.0638 -1.9197
 2196THY    HP354884   4.634   7.094   7.102 -0.7428  1.8127 -0.7774
 2196THY    HP454885   4.541   7.042   6.967  4.0544 -0.1518  0.5343
 2196THY    CP354886   4.303   6.991   7.136  0.0730  0.2098 -0.1488
 2196THY    HP554887   4.281   6.990   7.029  0.6905 -1.8934 -0.3006
 2196THY    HP654888   4.254   6.903   7.180  0.3459  0.0983 -0.0630
 2196THY    HP754889   4.273   7.082   7.188  0.4921 -0.3346  1.0852
 2196THY    CA354890   4.462   6.768   7.006  1.1227  0.2128  0.3126
 2196THY    HA354891   4.394   6.814   6.934  0.2847 -1.1999  0.1661
 2196THY    CA454892   4.505   6.636   6.977 -0.4936 -0.1798  0.9059
 2196THY    HA454893   4.467   6.577   6.895  0.6320 -2.3998  1.8989
 2196THY    CA554894   4.596   6.570   7.060 -0.7378 -0.1689 -0.4654
 2196THY    CM154895   4.651   6.437   7.028 -0.1447  0.2275 -0.8708
 2196THY    HM154896   4.576   6.376   6.978 -0.0020 -1.6277  1.0240
 2196THY    HM254897   4.732   6.448   6.955 -1.2598  1.9257 -1.9204
 2196THY    HM354898   4.668   6.388   7.125 -0.4423  2.3925  0.3424
 2196THY    CA654899   4.648   6.644   7.166 -0.2596  0.0170 -0.7003
 2196THY    HA654900   4.730   6.604   7.225 -0.3412 -0.9189 -1.2166
 2197THY      O54901   3.333   5.268   1.284 -0.2743 -0.0777  0.3850
 2197THY     HO54902   3.247   5.243   1.323 -1.2704  2.8856  0.3328
 2197THY    CA154903   3.401   5.154   1.275  0.5479  0.2735  0.4973
 2197THY    CA254904   3.532   5.142   1.224 -0.1737  0.0406  0.1526
 2197THY    CP154905   3.616   5.270   1.206  0.4684  0.2493  0.0587
 2197THY    HP154906   3.597   5.344   1.285 -1.0610  0.8488 -0.8115
 2197THY    CP254907   3.762   5.245   1.235 -0.5213 -0.7178  0.4063
 2197THY    HP254908   3.810   5.186   1.156  1.0936 -1.7239  2.0981
 2197THY    HP354909   3.811   5.343   1.241  0.7015 -1.2995  0.2435
 2197THY    HP454910   3.772   5.197   1.332  1.2980  0.9835  1.1354
 2197THY    CP354911   3.607   5.335   1.063  0.4388  0.3206 -0.1747
 2197THY    HP554912   3.546   5.276   0.994 -0.8097  0.5758  0.6635
 2197THY    HP654913   3.562   5.434   1.081 -0.3522 -0.1889  0.8174
 2197THY    HP754914   3.706   5.346   1.017 -0.2674  1.4524 -1.5010
 2197THY    CA354915   3.583   5.011   1.210  0.1315  0.1895 -0.2847
 2197THY    HA354916   3.685   4.991   1.177 -0.2817 -0.9472 -0.9069
 2197THY    CA454917   3.503   4.900   1.238 -0.5103 -0.1454  0.7400
 2197THY    HA454918   3.536   4.798   1.220 -1.4868 -0.4892  0.8377
 2197THY    CA554919   3.365   4.917   1.264 -0.2188  0.6869 -0.4309
 2197THY    CM154920   3.274   4.791   1.284 -0.9064 -0.0590  0.1253
 2197THY    HM154921   3.169   4.820   1.269 -2.6421 -3.6461  3.5710
 2197THY    HM254922   3.303   4.715   1.210  0.2222  1.2185 -0.7984
 2197THY    HM354923   3.293   4.750   1.384 -2.0894  1.1822  0.8877
 2197THY    CA654924   3.316   5.046   1.274  0.0650  0.5569 -0.3523
 2197THY    HA654925   3.209   5.054   1.289 -0.2320 -3.3323  0.6106
 2198THY      O54926   3.576   1.256   0.710  0.8061 -0.4861  0.0714
 2198THY     HO54927   3.656   1.260   0.765  1.1762 -1.7659 -0.3383
 2198THY    CA154928   3.623   1.219   0.586 -0.3218  0.1609 -0.2088
 2198THY    CA254929   3.536   1.168   0.491 -0.4180 -0.7130  0.1672
 2198THY    CP154930   3.393   1.154   0.522  0.3455 -0.1767  0.9950
 2198THY    HP154931   3.381   1.142   0.630  0.5449  0.0204  1.0403
 2198THY    CP254932   3.314   1.276   0.477  0.0413 -0.1122 -0.5532
 2198THY    HP254933   3.366   1.364   0.516  0.5137  0.2909 -2.0245
 2198THY    HP354934   3.324   1.287   0.368  0.1003 -0.0399 -0.5406
 2198THY    HP454935   3.216   1.267   0.525  0.5553  1.1441  0.7965
 2198THY    CP354936   3.320   1.033   0.457 -0.2480  0.0591 -0.2982
 2198THY    HP554937   3.214   1.033   0.483  0.2215 -1.1405  1.8533
 2198THY    HP654938   3.334   1.048   0.349  5.8335 -0.3575  0.0866
 2198THY    HP754939   3.371   0.940   0.487  1.6866  0.9182 -0.7802
 2198THY    CA354940   3.588   1.128   0.364  0.6109  0.1895  1.0051
 2198THY    HA354941   3.527   1.085   0.285  2.9851  0.7247 -1.2477
 2198THY    CA454942   3.729   1.123   0.350 -0.1730  0.1005  0.7198
 2198THY    HA454943   3.765   1.090   0.253 -0.1976  1.5092  0.2073
 2198THY    CA554944   3.815   1.167   0.445 -0.0530 -0.3808 -0.0505
 2198THY    CM154945   3.962   1.157   0.426 -0.2326 -0.2009 -0.5370
 2198THY    HM154946   4.012   1.063   0.453  0.8725  0.7655  0.9504
 2198THY    HM254947   3.974   1.178   0.319 -1.2704  2.1276 -0.2681
 2198THY    HM354948   4.013   1.243   0.470  0.6227 -0.2301 -1.4535
 2198THY    CA654949   3.760   1.209   0.568 -0.3702 -0.0481 -0.3065
 2198THY    HA654950   3.842   1.245   0.630 -0.3562 -0.3954 -0.1244
 2199THY      O54951   7.770   0.010   8.936  0.1161  0.4038 -0.5618
 2199THY     HO54952   7.728   0.062   8.865 -0.6619  1.0372  0.3375
 2199THY    CA154953   7.755  -0.121   8.907  0.5288  0.7012 -0.5533
 2199THY    CA254954   7.845  -0.219   8.954 -0.0645 -0.4939 -0.5029
 2199THY    CP154955   7.974  -0.176   9.016 -0.5984 -0.0761  0.0299
 2199THY    HP154956   7.947  -0.091   9.080  1.0760 -0.1343  0.8688
 2199THY    CP254957   8.038  -0.265   9.123 -0.2507 -0.1207  1.0379
 2199THY    HP254958   8.122  -0.208   9.164 -0.7581  0.6720  0.9904
 2199THY    HP354959   7.971  -0.305   9.200  3.5215 -0.6022  4.3865
 2199THY    HP454960   8.082  -0.358   9.084 -1.8359 -0.2583 -0.5380
 2199THY    CP354961   8.075  -0.139   8.902  0.2179 -0.2011 -0.7907
 2199THY    HP554962   8.017  -0.061   8.850 -1.3127  1.5351  3.1083
 2199THY    HP654963   8.162  -0.093   8.950  1.4046 -1.5586 -1.5668
 2199THY    HP754964   8.109  -0.221   8.838  1.8013 -1.5921  1.6821
 2199THY    CA354965   7.820  -0.351   8.916  0.1523 -0.0455 -0.1426
 2199THY    HA354966   7.879  -0.432   8.959 -0.2929  1.0996  2.8432
 2199THY    CA454967   7.704  -0.383   8.844  0.8408 -0.2350 -0.2761
 2199THY    HA454968   7.692  -0.488   8.817 -1.6368  0.1342 -0.8581
 2199THY    CA554969   7.606  -0.287   8.822  0.5391 -0.1454  0.0938
 2199THY    CM154970   7.480  -0.331   8.747 -0.6007 -0.4911  0.1834
 2199THY    HM154971   7.485  -0.272   8.655  2.7786  3.0088  2.3032
 2199THY    HM254972   7.479  -0.440   8.736 -1.3681 -0.8065  2.7247
 2199THY    HM354973   7.393  -0.300   8.805  1.2634  0.5366  2.6348
 2199THY    CA654974   7.632  -0.153   8.851 -0.0485 -0.0580 -0.0044
 2199THY    HA654975   7.559  -0.077   8.828  1.1928  1.3726  0.6510
 2200THY      O54976   2.433   6.573   4.613  0.0739  0.0228 -0.1838
 2200THY     HO54977   2.352   6.604   4.569 -0.6562 -0.4312  0.8200
 2200THY    CA154978   2.423   6.634   4.739  0.8727 -0.4970  0.9658
 2200THY    CA254979   2.512   6.621   4.848  0.3669 -0.2949 -0.1618
 2200THY    CP154980   2.622   6.518   4.830  0.0585  0.1744 -0.8558
 2200THY    HP154981   2.596   6.455   4.744  0.1207 -1.6739  0.4353
 2200THY    CP254982   2.759   6.586   4.810  0.0852 -0.2031 -0.4233
 2200THY    HP254983   2.754   6.642   4.716  0.3825 -1.5220 -1.2516
 2200THY    HP354984   2.785   6.637   4.903 -0.5074  1.4025 -1.1062
 2200THY    HP454985   2.848   6.527   4.784  0.7389  0.6192 -0.0712
 2200THY    CP354986   2.630   6.424   4.953 -0.0091  0.5350  0.4901
 2200THY    HP554987   2.698   6.340   4.937  1.3381  1.5434  0.7870
 2200THY    HP654988   2.653   6.474   5.048 -1.8663 -0.3358  1.4539
 2200THY    HP754989   2.528   6.390   4.973 -0.7779  2.2257 -0.3290
 2200THY    CA354990   2.487   6.702   4.955 -0.0600 -0.4374  0.6812
 2200THY    HA354991   2.549   6.685   5.043 -0.1876 -3.6764  0.2726
 2200THY    CA454992   2.384   6.791   4.957  0.6124 -0.2643 -0.0251
 2200THY    HA454993   2.370   6.850   5.047  2.5868  0.3109 -0.0483
 2200THY    CA554994   2.302   6.813   4.843 -0.5378 -0.0148 -0.0132
 2200THY    CM154995   2.224   6.952   4.835  0.0482 -0.5799  0.8600
 2200THY    HM154996   2.190   6.975   4.936  0.9224 -0.3936  1.1171
 2200THY    HM254997   2.272   7.041   4.794 -2.2727  0.3116 -0.1015
 2200THY    HM354998   2.141   6.934   4.765  1.2903 -2.0559 -0.3313
 2200THY    CA654999   2.322   6.728   4.740  0.1189 -0.4569  0.6840
 2200THY    HA655000   2.258   6.735   4.653 -0.2382  0.0151  0.9777
 2201THY      O55001   7.841   5.914   2.888  0.6281  0.3272 -0.4535
 2201THY     HO55002   7.841   6.009   2.910 -3.8306  0.0160  2.0296
 2201THY    CA155003   7.794   5.853   3.000 -0.0522  0.1895  0.5634
 2201THY    CA255004   7.810   5.712   3.018  0.1791 -0.1073 -0.5438
 2201THY    CP155005   7.898   5.621   2.928 -0.1463 -0.7489 -0.2567
 2201THY    HP155006   7.975   5.684   2.882 -1.4819  1.5452  0.4867
 2201THY    CP255007   7.978   5.527   3.014  0.2995  0.1344  0.0922
 2201THY    HP255008   7.922   5.438   3.045 -0.3209  0.9998  1.5774
 2201THY    HP355009   8.060   5.479   2.960  0.3819 -0.5164  0.7799
 2201THY    HP455010   8.023   5.573   3.103 -2.2984  2.3369  0.3851
 2201THY    CP355011   7.817   5.560   2.821 -0.0862 -0.4612 -0.1367
 2201THY    HP555012   7.760   5.636   2.767  0.9793  2.0497  2.0474
 2201THY    HP655013   7.886   5.508   2.752 -1.0317 -2.0471  0.0640
 2201THY    HP755014   7.753   5.479   2.859  0.7105 -1.1485 -0.2138
 2201THY    CA355015   7.749   5.662   3.136 -0.5483  0.2468 -0.3432
 2201THY    HA355016   7.753   5.558   3.167  3.1558  0.2896 -0.2588
 2201THY    CA455017   7.664   5.737   3.216  0.1412 -0.2781  0.0951
 2201THY    HA455018   7.620   5.691   3.304  0.2963 -0.5588  0.0278
 2201THY    CA555019   7.646   5.868   3.189  0.9308  0.1936  0.3606
 2201THY    CM155020   7.543   5.946   3.268 -0.1757 -0.6720 -0.0574
 2201THY    HM155021   7.550   5.921   3.374 -0.3151 -0.1213  0.0818
 2201THY    HM255022   7.552   6.054   3.253 -0.6548 -0.5367  0.5978
 2201THY    HM355023   7.441   5.928   3.232 -0.4284 -2.6558  1.4316
 2201THY    CA655024   7.705   5.924   3.078  0.4104 -0.4673 -0.5993
 2201THY    HA655025   7.686   6.030   3.060 -1.0714 -0.9410 -2.0187
 2202THY      O55026   5.823   9.372   6.174 -0.0586 -0.1212  0.1567
 2202THY     HO55027   5.820   9.296   6.235 -0.8738 -0.4664 -0.2915
 2202THY    CA155028   5.935   9.356   6.101  0.1173  0.0154  0.5254
 2202THY    CA255029   5.985   9.454   6.020 -0.2742  0.2749 -0.3098
 2202THY    CP155030   5.900   9.569   5.990  0.1934  0.3525  0.7480
 2202THY    HP155031   5.807   9.576   6.047 -0.8835  1.3771 -1.0715
 2202THY    CP255032   5.972   9.695   6.028  0.4290  0.2959  0.2762
 2202THY    HP255033   5.976   9.707   6.137 -0.2321 -1.6094  0.5547
 2202THY    HP355034   6.076   9.703   5.997  0.4701  1.1096  0.6027
 2202THY    HP455035   5.911   9.773   5.981 -0.1955 -0.1221  0.3729
 2202THY    CP355036   5.850   9.568   5.842  0.2828 -0.0731 -0.2291
 2202THY    HP555037   5.833   9.462   5.819  1.1480 -0.6493  1.6133
 2202THY    HP655038   5.749   9.611   5.843  0.5736  0.6356 -0.4255
 2202THY    HP755039   5.918   9.615   5.770 -0.3396 -0.5764 -1.1675
 2202THY    CA355040   6.111   9.433   5.957 -0.7922 -0.1742  0.2101
 2202THY    HA355041   6.161   9.513   5.904 -0.3451 -0.6281 -0.0526
 2202THY    CA455042   6.172   9.311   5.967 -1.1440 -0.4534  0.4955
 2202THY    HA455043   6.269   9.297   5.920 -0.2936  1.9046  1.4396
 2202THY    CA555044   6.118   9.213   6.054 -0.6775 -0.2126 -0.5037
 2202THY    CM155045   6.206   9.091   6.099 -0.1088  0.5550  0.0065
 2202THY    HM155046   6.295   9.077   6.037  0.9540  3.0321  0.8547
 2202THY    HM255047   6.238   9.094   6.204 -0.0866 -0.9284  0.0599
 2202THY    HM355048   6.155   8.995   6.088  0.4834  0.2401 -0.0431
 2202THY    CA655049   6.001   9.240   6.120  0.7826  0.1812  0.2154
 2202THY    HA655050   5.961   9.166   6.189 -1.8790  0.8963 -0.4657
 2203THY      O55051   8.764   4.762   7.915 -0.0938  0.2811 -0.0122
 2203THY     HO55052   8.673   4.795   7.903 -0.6363 -1.0896  0.1414
 2203THY    CA155053   8.824   4.872   7.954  0.2903  0.1058 -0.0773
 2203THY    CA255054   8.962   4.870   7.995  0.5439 -0.3904 -1.3634
 2203THY    CP155055   9.049   4.743   7.988  0.6873  0.1458  0.0464
 2203THY    HP155056   8.985   4.676   7.928  0.1859  0.9445 -0.3298
 2203THY    CP255057   9.175   4.765   7.916  0.8511  0.3180  0.0133
 2203THY    HP255058   9.156   4.814   7.819 -0.2893  0.8056  0.4647
 2203THY    HP355059   9.255   4.817   7.969  1.4870 -1.7211  1.1665
 2203THY    HP455060   9.234   4.673   7.903  1.1385  0.1101  2.3785
 2203THY    CP355061   9.056   4.670   8.125 -0.4935  0.1291 -0.0579
 2203THY    HP555062   9.089   4.565   8.117  0.4946  0.2007  2.2953
 2203THY    HP655063   9.117   4.733   8.191 -1.4501  0.3435  0.6420
 2203THY    HP755064   8.961   4.676   8.178 -0.1660 -2.5685  1.0217
 2203THY    CA355065   9.013   4.992   8.043 -0.3799 -0.6116  0.0620
 2203THY    HA355066   9.117   4.987   8.075 -0.4100 -1.9518  0.0227
 2203THY    CA455067   8.935   5.106   8.047  0.1604 -0.6158 -0.1668
 2203THY    HA455068   8.975   5.199   8.086  0.3812  0.7233 -3.2961
 2203THY    CA555069   8.805   5.101   8.007  0.3526 -0.3362  0.2181
 2203THY    CM155070   8.721   5.223   8.000 -0.1674 -0.8038 -0.0870
 2203THY    HM155071   8.630   5.202   8.058 -0.0395 -0.6821  0.1574
 2203THY    HM255072   8.773   5.309   8.043 -0.1824 -1.0617  0.4570
 2203THY    HM355073   8.687   5.254   7.901  0.2753 -2.5809 -0.8498
 2203THY    CA655074   8.751   4.983   7.967 -0.1669 -0.0207 -0.3031
 2203THY    HA655075   8.646   4.983   7.939  0.6470 -0.4985 -3.8524
 2204THY      O55076   6.773   3.561   3.384 -0.2824 -0.3010 -0.7152
 2204THY     HO55077   6.850   3.535   3.330  0.6712  1.3278 -0.2094
 2204THY    CA155078   6.791   3.506   3.511 -0.6847 -0.2332 -0.4969
 2204THY    CA255079   6.794   3.586   3.624 -0.2203 -0.0250  0.4697
 2204THY    CP155080   6.781   3.736   3.607  0.2604 -0.2153 -0.2957
 2204THY    HP155081   6.775   3.768   3.502  2.3116  1.0357 -0.0960
 2204THY    CP255082   6.664   3.802   3.680  0.1551 -0.7697 -0.7547
 2204THY    HP255083   6.648   3.754   3.777 -4.0253  0.3146 -0.7455
 2204THY    HP355084   6.682   3.904   3.715 -1.3397 -1.2466  1.6062
 2204THY    HP455085   6.571   3.794   3.622 -0.0332 -3.0162 -0.2347
 2204THY    CP355086   6.905   3.805   3.668  0.0316  0.5098 -0.2531
 2204THY    HP555087   6.994   3.767   3.618 -0.1470 -3.6408  2.0848
 2204THY    HP655088   6.908   3.913   3.650 -1.5662  1.1904  2.7949
 2204THY    HP755089   6.907   3.776   3.774 -1.9152  3.1957  0.6253
 2204THY    CA355090   6.793   3.516   3.748  0.2632  0.5873  0.5074
 2204THY    HA355091   6.794   3.569   3.843  0.5880 -0.0309  0.8547
 2204THY    CA455092   6.791   3.375   3.754  0.1572  0.3473 -0.7560
 2204THY    HA455093   6.795   3.330   3.853  2.9568  2.5988  0.3010
 2204THY    CA555094   6.798   3.302   3.642  0.0790 -0.2262 -0.1897
 2204THY    CM155095   6.824   3.154   3.644  0.8773 -0.3481 -0.3775
 2204THY    HM155096   6.789   3.091   3.561 -0.4545  0.0456 -0.1333
 2204THY    HM255097   6.931   3.133   3.659  1.4439  1.0386 -2.1624
 2204THY    HM355098   6.786   3.106   3.735 -1.0767  0.3363 -0.7960
 2204THY    CA655099   6.800   3.370   3.521 -0.1752 -0.0687  0.2482
 2204THY    HA655100   6.785   3.308   3.433 -0.8692 -0.1364  0.4053
 2205THY      O55101   0.390   6.744   8.095  0.2817  0.1753  1.0461
 2205THY     HO55102   0.302   6.747   8.137 -1.7158  4.0968 -2.5809
 2205THY    CA155103   0.410   6.870   8.045  0.4930  0.7979  0.8367
 2205THY    CA255104   0.470   6.892   7.920 -0.5666  0.2833  0.3677
 2205THY    CP155105   0.532   6.778   7.839 -0.1551  0.3726  0.1424
 2205THY    HP155106   0.574   6.704   7.908 -3.2470 -1.7110  0.0365
 2205THY    CP255107   0.420   6.704   7.761 -0.5034  0.4268  0.3162
 2205THY    HP255108   0.326   6.698   7.817 -0.8891 -0.9435 -0.4205
 2205THY    HP355109   0.404   6.759   7.668 -1.3134  0.2756  0.3564
 2205THY    HP455110   0.458   6.603   7.739 -1.9562 -0.5502  1.9750
 2205THY    CP355111   0.651   6.809   7.744  0.0630  0.0496 -0.5827
 2205THY    HP555112   0.737   6.842   7.804  0.7027 -1.3585 -0.6742
 2205THY    HP655113   0.669   6.718   7.685  0.0523 -1.5823  1.7722
 2205THY    HP755114   0.623   6.882   7.667 -1.5165 -0.4089 -0.4716
 2205THY    CA355115   0.481   7.021   7.868  0.2486 -0.4344 -0.0911
 2205THY    HA355116   0.537   7.042   7.777 -0.7920 -1.8835 -1.1081
 2205THY    CA455117   0.421   7.128   7.940 -0.1886  1.3695  0.6216
 2205THY    HA455118   0.431   7.231   7.908  0.3141  1.2995  0.5532
 2205THY    CA555119   0.353   7.105   8.061  0.0240  0.4808 -0.9876
 2205THY    CM155120   0.292   7.221   8.135  0.5509 -0.0781 -0.6282
 2205THY    HM155121   0.324   7.320   8.102 -3.8024  0.9189 -2.5303
 2205THY    HM255122   0.184   7.227   8.121  0.6292 -0.0412 -1.2431
 2205THY    HM355123   0.317   7.220   8.242  2.8891  3.2058 -1.0011
 2205THY    CA655124   0.348   6.973   8.121 -0.6840 -0.0252  0.5856
 2205THY    HA655125   0.300   6.960   8.217 -0.0712 -1.5878  0.7160
 2206THY      O55126   5.584   7.617   0.035 -0.2278 -0.0343  0.2075
 2206THY     HO55127   5.654   7.557   0.065  0.6540 -1.2588 -3.7008
 2206THY    CA155128   5.467   7.549   0.032  0.8152  0.3013  0.1098
 2206THY    CA255129   5.352   7.609  -0.030 -0.6284  0.2878  0.0283
 2206THY    CP155130   5.365   7.756  -0.082  0.1963  0.5040 -0.2242
 2206THY    HP155131   5.470   7.787  -0.089  0.9781 -1.9407 -0.2978
 2206THY    CP255132   5.312   7.770  -0.217  0.3551  0.0827 -0.2287
 2206THY    HP255133   5.344   7.863  -0.266 -0.7573  0.7281  0.2228
 2206THY    HP355134   5.335   7.690  -0.288 -0.1384 -0.0262 -0.2700
 2206THY    HP455135   5.203   7.776  -0.207  0.3138 -2.6049  2.1087
 2206THY    CP355136   5.299   7.859   0.009 -0.4631 -0.1749 -0.1097
 2206THY    HP555137   5.190   7.863   0.019 -0.4129  0.3044  0.2844
 2206THY    HP655138   5.354   7.866   0.103  0.2389  0.1944 -0.5431
 2206THY    HP755139   5.321   7.956  -0.037  1.5463 -0.4931  0.1054
 2206THY    CA355140   5.236   7.531  -0.038 -0.4254 -0.6207  0.2047
 2206THY    HA355141   5.141   7.563  -0.081 -1.1438  2.0912  3.3923
 2206THY    CA455142   5.237   7.404   0.022  0.7573 -0.2939 -0.6299
 2206THY    HA455143   5.150   7.342   0.006 -1.3872  2.8779 -2.4964
 2206THY    CA555144   5.345   7.354   0.093  0.4248 -0.3683 -0.0383
 2206THY    CM155145   5.343   7.215   0.132  0.1266  0.3951 -0.0383
 2206THY    HM155146   5.242   7.187   0.161  0.5705 -3.2667 -1.5139
 2206THY    HM255147   5.381   7.147   0.055 -1.7853 -2.6570  1.5010
 2206THY    HM355148   5.416   7.210   0.215  2.4699  2.7432 -1.7866
 2206THY    CA655149   5.464   7.423   0.089  0.1293 -0.5800  0.4251
 2206THY    HA655150   5.545   7.388   0.153  0.7197 -0.0312 -0.0092
 2207THY      O55151   5.609   2.541   6.807  0.3411  0.2385 -0.0160
 2207THY     HO55152   5.558   2.544   6.890 -1.1661 -0.6860 -0.8587
 2207THY    CA155153   5.722   2.473   6.831 -0.0617  0.8933 -0.1213
 2207THY    CA255154   5.842   2.509   6.768  0.4530  0.3608  0.3187
 2207THY    CP155155   5.843   2.636   6.673 -0.0572 -0.5109 -0.3057
 2207THY    HP155156   5.767   2.711   6.697 -0.2082  0.0454 -2.3369
 2207THY    CP255157   5.975   2.725   6.684  0.6800  1.1601 -0.7388
 2207THY    HP255158   5.976   2.754   6.789 -0.8700 -0.0287 -0.3573
 2207THY    HP355159   6.065   2.663   6.673 -0.5622 -1.0810  0.9215
 2207THY    HP455160   5.986   2.798   6.603 -0.4318  0.5020 -1.5164
 2207THY    CP355161   5.825   2.597   6.532 -0.2142 -0.3931  0.3030
 2207THY    HP555162   5.913   2.538   6.501  0.2554  0.0186  0.8319
 2207THY    HP655163   5.736   2.538   6.509 -0.8007  0.3612  0.6135
 2207THY    HP755164   5.821   2.687   6.469 -1.0343  0.5653  1.6685
 2207THY    CA355165   5.952   2.434   6.806 -0.3909  0.5640  0.1595
 2207THY    HA355166   6.048   2.462   6.765  0.4956 -2.5180 -0.0914
 2207THY    CA455167   5.941   2.324   6.887  0.9897  0.4228  0.1837
 2207THY    HA455168   6.026   2.268   6.924  0.0847  0.0798  1.8525
 2207THY    CA555169   5.817   2.297   6.945 -0.0567  0.3172 -0.0721
 2207THY    CM155170   5.806   2.189   7.048 -0.5634 -0.3512 -0.0878
 2207THY    HM155171   5.737   2.122   6.996 -1.1754 -0.3428  0.6975
 2207THY    HM255172   5.896   2.131   7.072 -1.1859 -1.6239 -0.7360
 2207THY    HM355173   5.774   2.239   7.140  0.9578 -1.2623  0.9818
 2207THY    CA655174   5.704   2.368   6.917 -0.6222 -0.6158 -0.0847
 2207THY    HA655175   5.609   2.332   6.954 -2.4154  0.7635 -2.9917
 2208THY      O55176   5.593   3.859   6.504 -0.0566  0.0982 -0.0884
 2208THY     HO55177   5.680   3.819   6.489 -0.5073 -1.1375  0.4328
 2208THY    CA155178   5.605   3.932   6.616 -0.9178 -0.1777 -0.8190
 2208THY    CA255179   5.491   3.993   6.682 -0.9369  0.1410  0.4909
 2208THY    CP155180   5.348   3.959   6.647 -0.2363  0.6117 -0.2455
 2208THY    HP155181   5.351   3.859   6.601 -0.1584  1.3949 -1.9914
 2208THY    CP255182   5.245   3.945   6.765 -0.0807  0.6739  0.0156
 2208THY    HP255183   5.219   4.042   6.810 -0.8944 -0.4012  1.9895
 2208THY    HP355184   5.154   3.899   6.727 -0.5440 -1.9041  3.6763
 2208THY    HP455185   5.283   3.870   6.835 -1.3678 -0.8018 -0.8151
 2208THY    CP355186   5.290   4.067   6.558 -0.0480  0.0703  0.4922
 2208THY    HP555187   5.186   4.046   6.531  0.0391 -0.2214  0.3784
 2208THY    HP655188   5.290   4.167   6.603 -1.8205  0.5085 -0.3850
 2208THY    HP755189   5.349   4.065   6.465 -1.0630  1.9196 -0.2664
 2208THY    CA355190   5.518   4.078   6.795 -0.2334  0.1884  0.1404
 2208THY    HA355191   5.435   4.123   6.848 -1.6766 -0.8657 -1.1061
 2208THY    CA455192   5.645   4.085   6.850  0.2094 -1.0882  0.1000
 2208THY    HA455193   5.655   4.153   6.934  0.8263  0.1122 -0.9112
 2208THY    CA555194   5.754   4.028   6.783 -0.2823 -0.6671  0.2221
 2208THY    CM155195   5.889   4.023   6.843  0.0469 -0.3314  0.0883
 2208THY    HM155196   5.964   4.047   6.767  1.6337 -1.5540  1.1924
 2208THY    HM255197   5.896   4.101   6.919 -2.0533 -3.0017  3.3885
 2208THY    HM355198   5.916   3.922   6.878  0.7119 -0.9198 -1.9686
 2208THY    CA655199   5.736   3.953   6.664  0.5330 -0.2021 -0.0245
 2208THY    HA655200   5.818   3.911   6.607 -1.5236 -1.3003 -2.3651
 2209THY      O55201   8.107   7.642   7.960 -0.6427  0.7141 -0.1855
 2209THY     HO55202   8.165   7.719   7.974  0.3475  0.1647 -1.0765
 2209THY    CA155203   8.155   7.543   8.040 -0.0105  0.4219  0.3633
 2209THY    CA255204   8.131   7.407   8.017 -0.5814 -0.7764  0.1425
 2209THY    CP155205   8.054   7.370   7.896 -0.1406 -0.1077 -0.2261
 2209THY    HP155206   8.077   7.445   7.819 -3.1161  0.4630 -0.6537
 2209THY    CP255207   8.112   7.238   7.836  0.6796  0.2347  0.0838
 2209THY    HP255208   8.220   7.233   7.853  0.6176 -1.4221  0.1197
 2209THY    HP355209   8.062   7.153   7.884 -0.4702 -0.4156 -2.1594
 2209THY    HP455210   8.101   7.235   7.727 -0.8205  0.2141  0.2239
 2209THY    CP355211   7.900   7.361   7.910  0.0719  0.8302 -0.0636
 2209THY    HP555212   7.870   7.312   8.003 -0.8052  2.2406  0.4256
 2209THY    HP655213   7.849   7.459   7.905 -1.8496 -0.1391 -0.5033
 2209THY    HP755214   7.865   7.300   7.826  0.8446 -0.5364  0.5741
 2209THY    CA355215   8.185   7.313   8.115  0.5807 -0.2378 -0.5237
 2209THY    HA355216   8.175   7.205   8.113  1.0751 -0.3842  1.6726
 2209THY    CA455217   8.238   7.358   8.233  0.4552 -0.5900  0.1275
 2209THY    HA455218   8.272   7.293   8.313  0.5584  2.5018  2.8120
 2209THY    CA555219   8.266   7.501   8.249 -0.9236 -0.2716  0.0225
 2209THY    CM155220   8.335   7.535   8.381 -0.1550 -0.5996  0.0235
 2209THY    HM155221   8.264   7.577   8.452 -0.8045  0.2803 -1.1095
 2209THY    HM255222   8.383   7.447   8.427  1.8678  0.6792  0.4968
 2209THY    HM355223   8.408   7.614   8.361 -0.2357 -0.7068 -0.7191
 2209THY    CA655224   8.228   7.589   8.152  0.3120  0.0436  0.2256
 2209THY    HA655225   8.235   7.696   8.171  1.1641  0.1186 -0.5046
 2210THY      O55226   3.160   7.571   4.894  0.4671 -0.4115  0.1896
 2210THY     HO55227   3.130   7.493   4.845  2.1794 -1.1348  0.2099
 2210THY    CA155228   3.291   7.545   4.912  0.8538 -0.4640 -0.1544
 2210THY    CA255229   3.399   7.624   4.873  0.5200  0.2762  0.5420
 2210THY    CP155230   3.382   7.752   4.796 -0.1859  0.4456 -0.1414
 2210THY    HP155231   3.477   7.793   4.761 -0.3901  0.4852 -0.6520
 2210THY    CP255232   3.297   7.735   4.671 -0.0713  0.4811 -0.1195
 2210THY    HP255233   3.326   7.654   4.603 -1.4976 -0.6700  0.5832
 2210THY    HP355234   3.192   7.738   4.703  0.3415  2.0287  1.1822
 2210THY    HP455235   3.309   7.819   4.602  1.6636 -0.6504 -1.2859
 2210THY    CP355236   3.324   7.863   4.893 -0.6460 -0.3010  0.0065
 2210THY    HP555237   3.403   7.886   4.966 -0.8330 -0.3644  0.2300
 2210THY    HP655238   3.303   7.959   4.844  3.2614  0.7237 -0.0324
 2210THY    HP755239   3.232   7.818   4.931 -0.3431 -0.9845 -0.0544
 2210THY    CA355240   3.525   7.581   4.908 -0.8130  0.4238  0.1164
 2210THY    HA355241   3.616   7.634   4.882 -0.0711 -0.2384  1.2836
 2210THY    CA455242   3.545   7.455   4.968 -0.2560  0.2982  0.7624
 2210THY    HA455243   3.644   7.429   5.004  0.0708 -0.4246 -0.5878
 2210THY    CA555244   3.442   7.368   4.985 -0.5236 -0.5654 -0.3111
 2210THY    CM155245   3.465   7.228   5.057 -0.9726 -0.8088 -0.7408
 2210THY    HM155246   3.562   7.184   5.029 -0.3079  0.1935 -0.0371
 2210THY    HM255247   3.466   7.251   5.164 -2.0818  0.8716 -1.0565
 2210THY    HM355248   3.386   7.153   5.042 -1.1615 -0.8932  0.5764
 2210THY    CA655249   3.312   7.414   4.950 -0.2782  0.3227 -0.2347
 2210THY    HA655250   3.226   7.352   4.974 -2.0617  1.8651 -2.1790
 2211THY      O55251   4.332   1.690   2.295 -0.4891 -0.0992  0.1661
 2211THY     HO55252   4.266   1.706   2.364  0.8291  1.1290  1.2123
 2211THY    CA155253   4.449   1.758   2.323 -0.1934 -0.2547  0.4551
 2211THY    CA255254   4.567   1.738   2.245  0.3262 -0.1088  0.8048
 2211THY    CP155255   4.561   1.642   2.124  0.6676 -0.0364 -0.3885
 2211THY    HP155256   4.465   1.589   2.125  0.7930 -0.2805  1.2085
 2211THY    CP255257   4.575   1.726   1.997 -0.2180  0.2398  0.0911
 2211THY    HP255258   4.506   1.811   2.000  0.0923  0.4995  3.1999
 2211THY    HP355259   4.675   1.770   1.988  0.3906 -0.3443  2.8491
 2211THY    HP455260   4.557   1.658   1.913  0.0588 -1.8963  1.6592
 2211THY    CP355261   4.668   1.532   2.131  0.5771 -0.3445 -0.8971
 2211THY    HP555262   4.657   1.479   2.226 -2.3884 -0.8677 -1.4475
 2211THY    HP655263   4.659   1.461   2.048  1.1174 -1.1241 -0.3131
 2211THY    HP755264   4.765   1.583   2.128 -0.9184  2.7945 -0.2431
 2211THY    CA355265   4.675   1.815   2.278 -0.3682 -0.3164  0.4011
 2211THY    HA355266   4.763   1.813   2.214 -0.4459  0.0300  0.2828
 2211THY    CA455267   4.677   1.881   2.405 -0.6581 -0.7132 -0.0383
 2211THY    HA455268   4.772   1.917   2.442 -1.1600  0.4027  0.1786
 2211THY    CA555269   4.567   1.873   2.491 -0.5636 -0.4485  0.0330
 2211THY    CM155270   4.571   1.929   2.632 -0.5009 -0.1965  0.1605
 2211THY    HM155271   4.492   2.002   2.653 -1.0090 -0.5576 -0.4518
 2211THY    HM255272   4.564   1.854   2.711 -3.8796 -1.3520 -1.0669
 2211THY    HM355273   4.663   1.985   2.649 -0.3097 -0.1471 -0.9691
 2211THY    CA655274   4.451   1.822   2.442 -0.1628 -0.1216  0.1013
 2211THY    HA655275   4.368   1.811   2.512 -1.2791 -3.0024 -1.5268
 2212THY      O55276   4.012   2.560   4.377 -0.3826  0.3803  0.7223
 2212THY     HO55277   4.052   2.484   4.422 -0.8431  0.4789  1.3121
 2212THY    CA155278   3.911   2.500   4.305 -0.5473 -0.1323 -1.6255
 2212THY    CA255279   3.815   2.581   4.237 -0.0942 -0.3142 -0.2625
 2212THY    CP155280   3.818   2.735   4.247 -0.3566  0.7208 -0.2875
 2212THY    HP155281   3.911   2.770   4.294 -1.3362  0.5969  1.8296
 2212THY    CP255282   3.814   2.790   4.107  0.4400 -0.1471 -0.4189
 2212THY    HP255283   3.840   2.897   4.112  2.7844 -0.6981  2.1863
 2212THY    HP355284   3.887   2.760   4.031  1.5478  3.1396 -0.8137
 2212THY    HP455285   3.707   2.787   4.084 -0.0539  0.8257  1.5349
 2212THY    CP355286   3.709   2.787   4.329  0.0713  0.4739  0.2041
 2212THY    HP555287   3.715   2.754   4.434 -0.8735  2.4230  0.9208
 2212THY    HP655288   3.730   2.894   4.342  1.0497  0.1361  1.6148
 2212THY    HP755289   3.611   2.776   4.281  1.3541  0.1217 -2.5038
 2212THY    CA355290   3.714   2.521   4.162 -0.4882  0.8991  0.0535
 2212THY    HA355291   3.630   2.578   4.123  0.1654  4.2400  2.9470
 2212THY    CA455292   3.724   2.382   4.142  0.0331  0.1892 -1.0250
 2212THY    HA455293   3.653   2.332   4.077  1.3437 -2.4732 -0.5674
 2212THY    CA555294   3.820   2.304   4.211 -0.9599 -0.8295  0.2114
 2212THY    CM155295   3.846   2.159   4.185 -0.1281  0.8970 -0.4233
 2212THY    HM155296   3.789   2.121   4.100 -1.1798  1.7313 -0.1212
 2212THY    HM255297   3.952   2.139   4.166  0.3315  2.7137  0.0420
 2212THY    HM355298   3.823   2.095   4.271 -0.3406 -1.2464 -2.0096
 2212THY    CA655299   3.914   2.365   4.298 -0.4121 -0.2467 -0.5357
 2212THY    HA655300   3.984   2.310   4.360 -1.7326 -0.4771  0.8243
 2213THY      O55301   7.295   4.792   5.361 -0.4389 -0.2414  0.0402
 2213THY     HO55302   7.267   4.797   5.268  0.7651 -0.8418 -0.3734
 2213THY    CA155303   7.186   4.837   5.432 -0.2610  0.1013 -0.4409
 2213THY    CA255304   7.154   4.766   5.551 -0.2984  0.4601 -0.2814
 2213THY    CP155305   7.216   4.624   5.577  0.1329  0.6524 -0.5485
 2213THY    HP155306   7.235   4.574   5.482  2.5666  1.1098 -0.3831
 2213THY    CP255307   7.356   4.633   5.647  0.9519 -0.3616  0.0243
 2213THY    HP255308   7.412   4.539   5.636  1.1114 -0.5907  2.3133
 2213THY    HP355309   7.418   4.705   5.593  0.0391  0.6766  0.3406
 2213THY    HP455310   7.354   4.679   5.747 -1.1269  0.0746 -0.1925
 2213THY    CP355311   7.128   4.527   5.666  0.0606 -0.3758 -0.2633
 2213THY    HP555312   7.027   4.525   5.624 -0.3514  2.6813  0.3897
 2213THY    HP655313   7.174   4.429   5.650 -2.1517 -1.6334  0.5655
 2213THY    HP755314   7.131   4.551   5.773  0.7817 -0.9600 -0.1414
 2213THY    CA355315   7.050   4.815   5.637  0.1639 -0.4467  0.4327
 2213THY    HA355316   7.019   4.753   5.721  2.2108  0.5316  2.0116
 2213THY    CA455317   6.993   4.939   5.609 -0.3950  1.2787  0.0422
 2213THY    HA455318   6.915   4.986   5.668  1.1887  1.9328  1.7399
 2213THY    CA555319   7.030   5.008   5.493 -0.2687  0.3035 -0.6858
 2213THY    CM155320   6.972   5.137   5.463  0.4596 -0.0381  0.3910
 2213THY    HM155321   7.022   5.205   5.392 -0.4472  0.7784  0.5183
 2213THY    HM255322   6.869   5.124   5.428 -0.7426  1.0595  3.2295
 2213THY    HM355323   6.960   5.202   5.550  2.2344  2.1236 -0.8520
 2213THY    CA655324   7.130   4.957   5.407  0.0289  0.1415 -0.3787
 2213THY    HA655325   7.166   5.029   5.335  0.8378  0.4831  0.3490
 2214THY      O55326   2.585   5.898   0.224 -0.9897  0.4634 -0.0436
 2214THY     HO55327   2.540   5.868   0.143  1.2613 -3.3663 -0.1233
 2214THY    CA155328   2.623   6.019   0.194 -0.1599  0.9490 -0.0833
 2214THY    CA255329   2.759   6.061   0.212  0.1402  0.1728 -0.0666
 2214THY    CP155330   2.853   5.961   0.270 -0.0787  0.0606 -1.1718
 2214THY    HP155331   2.814   5.913   0.360  0.8986 -1.0495 -1.3242
 2214THY    CP255332   2.885   5.849   0.171 -0.1636  1.0663  0.1391
 2214THY    HP255333   2.803   5.800   0.117 -1.2608  3.4126 -0.4862
 2214THY    HP355334   2.958   5.889   0.099  0.7437 -0.7778 -0.0314
 2214THY    HP455335   2.932   5.764   0.220 -1.8400 -0.9225 -1.4997
 2214THY    CP355336   2.984   6.021   0.333 -0.0463 -0.3735 -0.3298
 2214THY    HP555337   3.035   5.942   0.389 -2.7727 -0.6077  2.0559
 2214THY    HP655338   3.050   6.072   0.262  0.0775  1.4992  1.0824
 2214THY    HP755339   2.962   6.087   0.417  2.1283 -2.1417  1.7751
 2214THY    CA355340   2.796   6.184   0.164 -0.0081  0.1994  0.1611
 2214THY    HA355341   2.899   6.216   0.182  0.7856 -2.4079  0.5993
 2214THY    CA455342   2.706   6.272   0.105  0.8879  0.2613 -0.2137
 2214THY    HA455343   2.742   6.364   0.060  1.6840  0.6598  1.1968
 2214THY    CA555344   2.566   6.230   0.091  0.2863 -0.7874 -0.4724
 2214THY    CM155345   2.466   6.335   0.060  0.9241 -0.0873 -0.4027
 2214THY    HM155346   2.463   6.348  -0.049  0.3654  0.8421 -0.2836
 2214THY    HM255347   2.368   6.303   0.096  0.6982  2.4951  1.5817
 2214THY    HM355348   2.497   6.423   0.117 -0.4912 -1.4263  2.6251
 2214THY    CA655349   2.530   6.102   0.141 -0.2122 -0.7479  0.6722
 2214THY    HA655350   2.424   6.075   0.142 -0.2397 -1.2853 -2.9843
 2215THY      O55351   2.181   8.204   9.859  0.7009  0.3243  0.0363
 2215THY     HO55352   2.202   8.291   9.821 -0.5194  0.3931 -0.5508
 2215THY    CA155353   2.050   8.210   9.870  0.8676 -0.2512 -0.1763
 2215THY    CA255354   1.968   8.116   9.937 -0.2835  0.5044 -0.1196
 2215THY    CP155355   2.050   8.003  10.007 -0.3749 -0.0096 -0.5175
 2215THY    HP155356   2.144   7.985   9.954  0.6814  2.2122  0.4614
 2215THY    CP255357   2.095   8.063  10.139  0.2221 -0.4049  0.2481
 2215THY    HP255358   2.122   7.981  10.207 -0.7434  0.1519  1.3435
 2215THY    HP355359   2.183   8.129  10.137  0.3431 -0.5733 -1.0577
 2215THY    HP455360   2.015   8.116  10.192  0.7264 -1.8259  2.5903
 2215THY    CP355361   1.976   7.876  10.032  0.3656  1.3467  0.5736
 2215THY    HP555362   1.934   7.841   9.937 -1.5777  2.2305  1.0698
 2215THY    HP655363   2.039   7.787  10.048 -1.7655 -0.6423 -1.3251
 2215THY    HP755364   1.899   7.885  10.109 -0.0738 -0.4999  0.3989
 2215THY    CA355365   1.825   8.119   9.929 -0.3417  0.1457  0.0561
 2215THY    HA355366   1.764   8.035   9.961 -0.2662 -1.3321 -3.2152
 2215THY    CA455367   1.768   8.225   9.861 -0.3879  0.0624  0.1672
 2215THY    HA455368   1.660   8.223   9.853 -0.3514 -0.8685 -0.1816
 2215THY    CA555369   1.848   8.319   9.798  0.1282 -0.6825  0.6312
 2215THY    CM155370   1.791   8.425   9.716  0.1956  0.1040  0.4066
 2215THY    HM155371   1.868   8.469   9.651  0.3449 -0.6425  0.0650
 2215THY    HM255372   1.711   8.376   9.661 -0.2682  1.5823 -0.2698
 2215THY    HM355373   1.742   8.498   9.782  2.3069  1.3662  0.6780
 2215THY    CA655374   1.988   8.313   9.805 -0.1303 -0.9329 -0.2617
 2215THY    HA655375   2.048   8.398   9.773 -1.4209 -0.1292 -0.6044
 2216THY      O55376   3.078   1.415   5.096  0.3025 -0.8231 -0.7506
 2216THY     HO55377   3.073   1.320   5.076  2.4381 -1.0853 -0.3234
 2216THY    CA155378   3.188   1.420   5.163  0.6263 -0.0660 -0.6856
 2216THY    CA255379   3.259   1.542   5.194 -0.1575 -0.4514 -0.1419
 2216THY    CP155380   3.207   1.679   5.161 -0.4880  0.1976  0.1645
 2216THY    HP155381   3.149   1.677   5.068  0.1572  2.1186 -0.3140
 2216THY    CP255382   3.126   1.731   5.278 -0.4783  0.5236 -0.1560
 2216THY    HP255383   3.099   1.832   5.247  2.1772  1.7890  1.3629
 2216THY    HP355384   3.026   1.685   5.283 -1.0995  1.7063 -1.1696
 2216THY    HP455385   3.175   1.730   5.376 -0.7282  2.8873  0.0365
 2216THY    CP355386   3.310   1.795   5.131  0.9256  1.0372 -0.6944
 2216THY    HP555387   3.384   1.747   5.065  1.8787 -2.9720  2.8508
 2216THY    HP655388   3.257   1.875   5.078  1.2909 -0.9002 -4.3464
 2216THY    HP755389   3.363   1.827   5.221  0.9000 -0.3978 -0.1453
 2216THY    CA355390   3.386   1.537   5.251 -0.5267  0.4103  0.2007
 2216THY    HA355391   3.436   1.630   5.277 -1.4892  0.7299  0.9586
 2216THY    CA455392   3.453   1.416   5.271 -0.7918 -0.7475  0.6700
 2216THY    HA455393   3.554   1.414   5.311 -0.9294 -1.9734  1.0073
 2216THY    CA555394   3.378   1.296   5.243 -0.3197  0.0474  0.1221
 2216THY    CM155395   3.438   1.158   5.260  1.0692 -0.5207  0.1876
 2216THY    HM155396   3.545   1.164   5.283  0.8106  0.3134  1.2839
 2216THY    HM255397   3.391   1.105   5.343  0.1678 -0.6030 -0.3601
 2216THY    HM355398   3.432   1.102   5.166  1.2704  1.1180 -0.8509
 2216THY    CA655399   3.245   1.298   5.192  0.2772  0.0616 -0.2725
 2216THY    HA655400   3.196   1.204   5.167 -1.3066  1.0591 -1.0708
 2217THY      O55401   0.902   2.721   7.535 -0.5064  0.2655  0.0277
 2217THY     HO55402   0.805   2.726   7.543 -0.4369 -0.4698  2.1348
 2217THY    CA155403   0.925   2.616   7.447 -0.1717 -0.8836 -0.4562
 2217THY    CA255404   1.047   2.545   7.444  0.0447  0.2415 -0.1506
 2217THY    CP155405   1.170   2.614   7.489 -0.2189  0.0492 -0.2804
 2217THY    HP155406   1.158   2.722   7.477  0.6399  0.0989 -0.8432
 2217THY    CP255407   1.202   2.565   7.628  0.3041 -0.2299 -0.2322
 2217THY    HP255408   1.109   2.552   7.684  0.1759 -0.9495 -0.5989
 2217THY    HP355409   1.254   2.469   7.639 -0.7280 -0.8485 -0.6042
 2217THY    HP455410   1.262   2.639   7.682  0.4216 -1.5701  1.5761
 2217THY    CP355411   1.294   2.590   7.406 -0.1637 -0.6329 -0.5197
 2217THY    HP555412   1.367   2.655   7.454 -1.6777 -0.4737  1.7050
 2217THY    HP655413   1.329   2.487   7.414 -2.8138 -1.4594  2.1645
 2217THY    HP755414   1.281   2.633   7.305  2.0648  1.1071 -0.1549
 2217THY    CA355415   1.057   2.426   7.366 -0.0621  0.6996 -0.7739
 2217THY    HA355416   1.148   2.370   7.349  0.6294  1.5838 -0.0421
 2217THY    CA455417   0.943   2.386   7.296 -0.0637 -0.2828 -0.3168
 2217THY    HA455418   0.941   2.290   7.244 -2.4813 -1.6910  2.1265
 2217THY    CA555419   0.822   2.449   7.312  0.0117  0.2367 -0.4977
 2217THY    CM155420   0.705   2.407   7.236  0.7489  0.0521 -0.1688
 2217THY    HM155421   0.621   2.410   7.307  0.3766 -0.3934 -0.5825
 2217THY    HM255422   0.687   2.464   7.144  0.1843 -1.0315 -0.7449
 2217THY    HM355423   0.719   2.304   7.200  1.0645  0.2344 -0.5727
 2217THY    CA655424   0.810   2.573   7.379  0.0749 -0.6616  0.1735
 2217THY    HA655425   0.718   2.631   7.384 -0.6198 -1.7537  0.3202
 2218THY      O55426   3.929   4.084   1.885 -0.4083 -0.3529 -0.5597
 2218THY     HO55427   3.865   4.011   1.894 -0.4858 -0.1483  0.8655
 2218THY    CA155428   3.908   4.168   1.779  0.1078 -0.5526 -0.6960
 2218THY    CA255429   3.993   4.275   1.745 -0.5901 -0.1268  0.3513
 2218THY    CP155430   4.097   4.322   1.849  0.0028 -0.4808 -0.6005
 2218THY    HP155431   4.125   4.247   1.924 -1.4235  0.5822  1.1002
 2218THY    CP255432   4.232   4.361   1.788  0.2359  0.1354 -0.1196
 2218THY    HP255433   4.258   4.282   1.716 -1.1689 -2.4503  2.0207
 2218THY    HP355434   4.219   4.459   1.741 -1.9113 -0.2831 -0.5399
 2218THY    HP455435   4.311   4.368   1.863 -0.1185 -2.7535  0.6457
 2218THY    CP355436   4.048   4.437   1.943  0.6783  0.5700  0.4907
 2218THY    HP555437   4.030   4.530   1.889  2.2473  1.3549  1.2591
 2218THY    HP655438   3.971   4.408   2.015 -1.1115  0.8791 -1.2147
 2218THY    HP755439   4.135   4.452   2.008 -0.3746 -2.6960  2.9751
 2218THY    CA355440   3.978   4.325   1.612 -0.2132  0.0757  0.5988
 2218THY    HA355441   4.042   4.405   1.578 -0.9871  1.3604  2.0284
 2218THY    CA455442   3.880   4.274   1.521 -0.4006 -0.4200  0.0714
 2218THY    HA455443   3.874   4.313   1.420  0.3011 -2.4255 -0.7813
 2218THY    CA555444   3.795   4.169   1.559  0.6724 -0.3104 -0.7234
 2218THY    CM155445   3.694   4.117   1.462  0.6208 -0.3064 -0.4567
 2218THY    HM155446   3.591   4.122   1.499  1.3757 -1.0471  1.8877
 2218THY    HM255447   3.699   4.168   1.365  0.3791 -1.4805 -1.1125
 2218THY    HM355448   3.711   4.013   1.432 -0.4867 -0.7736  0.4922
 2218THY    CA655449   3.814   4.122   1.692 -0.2733 -0.4083  0.3138
 2218THY    HA655450   3.766   4.027   1.715  0.7204 -1.7593 -2.6458
 2219THY      O55451   4.696   1.058   6.928 -0.8384  0.0833 -0.1702
 2219THY     HO55452   4.644   0.976   6.941 -0.6366 -0.4349 -2.2911
 2219THY    CA155453   4.617   1.133   6.847 -0.1444 -0.3865  1.3376
 2219THY    CA255454   4.644   1.270   6.811 -0.4939 -0.5129 -0.3249
 2219THY    CP155455   4.775   1.332   6.864  0.2236  0.1435  0.4200
 2219THY    HP155456   4.827   1.261   6.929  0.7002  2.4367  2.7049
 2219THY    CP255457   4.857   1.351   6.733  0.2549  0.0206 -0.6243
 2219THY    HP255458   4.955   1.387   6.767  0.4565 -1.8285  0.9421
 2219THY    HP355459   4.865   1.253   6.686 -0.1446 -0.9781  1.2626
 2219THY    HP455460   4.803   1.422   6.669  1.2337  0.4458 -0.9976
 2219THY    CP355461   4.762   1.466   6.939  0.2203  0.6084  0.2945
 2219THY    HP555462   4.738   1.435   7.041  3.5952  2.3294  1.7649
 2219THY    HP655463   4.853   1.527   6.945 -0.3515  1.3839  1.4001
 2219THY    HP755464   4.682   1.532   6.903 -0.1170 -1.1634 -2.4622
 2219THY    CA355465   4.558   1.338   6.727 -0.4442 -0.2565 -0.4103
 2219THY    HA355466   4.592   1.439   6.704 -0.8115 -0.3329 -1.3227
 2219THY    CA455467   4.439   1.289   6.682  0.0310  0.0197 -1.0465
 2219THY    HA455468   4.369   1.338   6.616 -2.5279 -0.6953  0.9870
 2219THY    CA555469   4.405   1.154   6.722 -0.7255  0.0029 -0.0316
 2219THY    CM155470   4.287   1.093   6.665  0.0151  0.5317 -0.0753
 2219THY    HM155471   4.215   1.090   6.748 -0.2288 -1.2135 -0.2916
 2219THY    HM255472   4.262   1.156   6.580 -2.1355 -0.2212 -0.0624
 2219THY    HM355473   4.331   1.000   6.627 -0.2927  0.3903 -0.0870
 2219THY    CA655474   4.502   1.082   6.797 -0.4012 -0.4760  0.3978
 2219THY    HA655475   4.478   0.978   6.816  1.2618 -1.1155 -0.7140
 2220THY      O55476   4.529   7.548   4.154 -0.1471 -0.3320  0.3369
 2220THY     HO55477   4.460   7.519   4.216  0.3528 -2.1583  0.0727
 2220THY    CA155478   4.648   7.543   4.216 -0.2286  0.5283 -0.3677
 2220THY    CA255479   4.768   7.498   4.155  0.7216  0.4126  0.3578
 2220THY    CP155480   4.768   7.471   4.002 -0.4752  0.0215 -0.5624
 2220THY    HP155481   4.668   7.435   3.974 -1.3445  1.4360  0.5863
 2220THY    CP255482   4.803   7.605   3.931 -0.5032 -0.7286 -0.0533
 2220THY    HP255483   4.898   7.643   3.972 -0.3499 -0.4682 -0.6444
 2220THY    HP355484   4.811   7.588   3.823 -1.2287 -0.7416 -0.1054
 2220THY    HP455485   4.727   7.682   3.945 -0.8846 -1.3386  1.3922
 2220THY    CP355486   4.869   7.362   3.966 -0.6125  0.2127 -0.1281
 2220THY    HP555487   4.975   7.382   3.949  0.2811 -2.7813  1.2463
 2220THY    HP655488   4.846   7.274   4.027 -0.9343  1.3453  1.4405
 2220THY    HP755489   4.846   7.323   3.866 -3.0951  2.1536 -0.4303
 2220THY    CA355490   4.880   7.479   4.233  0.3688 -0.7994  0.7746
 2220THY    HA355491   4.972   7.455   4.181  0.4233 -1.8255  1.3126
 2220THY    CA455492   4.878   7.512   4.371  0.6809 -0.2951  0.4969
 2220THY    HA455493   4.971   7.504   4.427  1.5018 -1.4122 -0.9414
 2220THY    CA555494   4.754   7.552   4.432 -1.0144 -0.2856  0.8428
 2220THY    CM155495   4.746   7.606   4.567  0.7311  0.3185 -0.2968
 2220THY    HM155496   4.803   7.549   4.641  0.5525 -0.9816 -1.1315
 2220THY    HM255497   4.778   7.711   4.569 -1.0331  0.9192 -1.5270
 2220THY    HM355498   4.643   7.605   4.606  0.2611  0.0360 -1.4880
 2220THY    CA655499   4.641   7.562   4.353  0.0326 -0.5219 -0.0293
 2220THY    HA655500   4.549   7.608   4.388  0.1239 -0.6438  0.3805
 2221THY      O55501   3.712   9.942   1.774 -0.7541  0.1101 -0.2153
 2221THY     HO55502   3.786   9.881   1.757 -1.3498 -0.7825  0.3224
 2221THY    CA155503   3.602   9.882   1.733  0.3010  0.8448 -0.6232
 2221THY    CA255504   3.472   9.927   1.768  0.5885 -0.8997  0.0268
 2221THY    CP155505   3.445  10.032   1.874 -0.4767 -0.4369  0.7626
 2221THY    HP155506   3.541  10.080   1.894 -0.2803 -0.3175 -0.3838
 2221THY    CP255507   3.348  10.145   1.825  0.8766 -0.3956 -0.0561
 2221THY    HP255508   3.381  10.203   1.738  0.4087  1.6038  1.0381
 2221THY    HP355509   3.258  10.090   1.795  1.2811 -2.7816  2.6857
 2221THY    HP455510   3.318  10.212   1.906  2.0320  0.3588 -0.2367
 2221THY    CP355511   3.387   9.973   1.994  0.2608  0.0324 -0.0037
 2221THY    HP555512   3.295   9.916   1.980 -1.2454  2.2880  0.1904
 2221THY    HP655513   3.463   9.910   2.042  0.0204  0.4355  0.9159
 2221THY    HP755514   3.359  10.044   2.072  0.5268 -0.6555  0.7362
 2221THY    CA355515   3.360   9.847   1.719  0.1999 -0.3557  0.9423
 2221THY    HA355516   3.260   9.862   1.759  0.1209 -1.1466  1.0753
 2221THY    CA455517   3.387   9.732   1.631  0.8177  0.1594  0.3464
 2221THY    HA455518   3.310   9.668   1.589  3.1212 -0.4907 -3.4031
 2221THY    CA555519   3.522   9.689   1.609  0.0545 -0.8462  0.1813
 2221THY    CM155520   3.553   9.572   1.519 -0.0342  0.8165 -0.1706
 2221THY    HM155521   3.484   9.536   1.441  1.6162  0.7162 -1.6649
 2221THY    HM255522   3.646   9.583   1.463 -1.4091  1.1331 -2.5272
 2221THY    HM355523   3.565   9.484   1.584 -1.8169  0.1194 -0.7212
 2221THY    CA655524   3.627   9.765   1.655  0.7872  0.0793  0.0025
 2221THY    HA655525   3.724   9.723   1.630  0.3127 -2.7363  2.3211
 2222THY      O55526   6.818   6.848   5.541 -0.1724 -0.1489 -0.5328
 2222THY     HO55527   6.773   6.917   5.490 -1.0261 -0.7445 -0.5916
 2222THY    CA155528   6.941   6.831   5.494 -0.0139  1.0544 -0.1497
 2222THY    CA255529   7.041   6.754   5.551  0.5721  0.3586 -0.7557
 2222THY    CP155530   7.027   6.676   5.686  0.0450  0.3665 -0.6080
 2222THY    HP155531   6.935   6.713   5.733 -0.9337 -2.0645 -0.4443
 2222THY    CP255532   7.025   6.513   5.674 -0.7499  0.0244 -0.6804
 2222THY    HP255533   7.130   6.482   5.667 -0.5186 -0.1713  2.2386
 2222THY    HP355534   6.979   6.470   5.764 -0.0582  1.5778  0.4635
 2222THY    HP455535   6.967   6.487   5.585 -1.8835 -0.4208  0.1507
 2222THY    CP355536   7.133   6.726   5.787 -0.2920  0.3339  0.3970
 2222THY    HP555537   7.140   6.834   5.806  1.8801  0.1982  0.6806
 2222THY    HP655538   7.117   6.683   5.887  1.3962 -0.4448  0.3627
 2222THY    HP755539   7.233   6.700   5.750 -0.4031  0.5700 -0.0692
 2222THY    CA355540   7.173   6.749   5.491  0.2120  0.0774 -0.8270
 2222THY    HA355541   7.248   6.677   5.519  0.9917  1.5176  0.9990
 2222THY    CA455542   7.208   6.836   5.384  0.0004  0.3756 -0.7276
 2222THY    HA455543   7.306   6.840   5.338  0.7063 -0.0804  0.7055
 2222THY    CA555544   7.103   6.924   5.340 -0.5973  0.8775  0.0088
 2222THY    CM155545   7.129   7.035   5.228 -0.1829 -0.5187 -0.3540
 2222THY    HM155546   7.227   7.020   5.182  1.5614 -0.6762  3.0309
 2222THY    HM255547   7.052   7.032   5.151 -1.2963 -0.9447  0.7303
 2222THY    HM355548   7.122   7.135   5.271  1.8831 -0.6173  0.3070
 2222THY    CA655549   6.976   6.913   5.389  0.6165  0.8859 -0.9033
 2222THY    HA655550   6.896   6.973   5.347 -2.8784 -2.2041  0.7109
 2223THY      O55551   3.915   7.010   5.714 -0.2572  0.5889  0.4268
 2223THY     HO55552   3.852   6.938   5.732 -0.4303  0.8673  0.9647
 2223THY    CA155553   3.864   7.090   5.613 -0.6128 -0.0799  0.6157
 2223THY    CA255554   3.940   7.184   5.534  0.1968 -0.4193  0.4837
 2223THY    CP155555   4.080   7.230   5.574  0.1061 -0.5445 -0.2641
 2223THY    HP155556   4.111   7.161   5.653 -2.2370  0.0550  1.2865
 2223THY    CP255557   4.187   7.230   5.461 -0.1027  0.1503 -0.3038
 2223THY    HP255558   4.166   7.304   5.383 -2.2459  1.5745  1.5021
 2223THY    HP355559   4.282   7.261   5.505  0.5897  0.9230 -2.2375
 2223THY    HP455560   4.202   7.133   5.412 -0.5952  0.2746 -0.7085
 2223THY    CP355561   4.087   7.366   5.639 -0.0362 -0.1548  0.2095
 2223THY    HP555562   4.186   7.388   5.680  0.9237 -0.6816 -1.7366
 2223THY    HP655563   4.067   7.445   5.566 -0.3014 -1.3673 -1.0772
 2223THY    HP755564   4.016   7.373   5.723  0.3260 -0.7128  0.5673
 2223THY    CA355565   3.874   7.245   5.426  0.3860 -0.1016 -0.5163
 2223THY    HA355566   3.932   7.307   5.358  0.9669 -1.5596 -1.4122
 2223THY    CA455567   3.744   7.205   5.393 -0.5116 -0.9120  0.3787
 2223THY    HA455568   3.692   7.246   5.307 -0.5343  1.2675  1.3519
 2223THY    CA555569   3.678   7.110   5.464  1.1503  0.1087 -0.8353
 2223THY    CM155570   3.545   7.064   5.408 -0.3636  0.2481  0.1402
 2223THY    HM155571   3.501   6.969   5.440 -1.1592  0.8213  0.7966
 2223THY    HM255572   3.477   7.148   5.426  1.4137  1.6518  0.6187
 2223THY    HM355573   3.555   7.044   5.300 -0.4145  1.1445 -0.0412
 2223THY    CA655574   3.737   7.048   5.569 -0.8042  0.0403  0.4125
 2223THY    HA655575   3.666   6.982   5.619 -0.1402 -1.3337 -0.4031
 2224THY      O55576   6.495   3.274   4.435 -0.2783 -0.5638  0.2002
 2224THY     HO55577   6.493   3.190   4.484  1.7046  0.0831  1.5270
 2224THY    CA155578   6.554   3.259   4.315  0.5886  0.4818  0.2807
 2224THY    CA255579   6.544   3.351   4.206 -0.3162 -0.2525 -0.2020
 2224THY    CP155580   6.467   3.477   4.232  0.0455  0.2170  0.4560
 2224THY    HP155581   6.430   3.489   4.334  0.0617 -2.9372  0.9342
 2224THY    CP255582   6.561   3.599   4.204 -0.3151  0.8482  0.5417
 2224THY    HP255583   6.634   3.602   4.285 -1.6167  0.5435  1.7733
 2224THY    HP355584   6.613   3.594   4.107 -1.0602 -1.0792  0.1896
 2224THY    HP455585   6.505   3.692   4.216 -3.3243 -0.4974 -1.5434
 2224THY    CP355586   6.346   3.483   4.132  0.3176  0.2593  0.0926
 2224THY    HP555587   6.387   3.481   4.030  1.8597  0.9851  0.6811
 2224THY    HP655588   6.275   3.399   4.128  2.2544 -1.4775  0.5104
 2224THY    HP755589   6.302   3.580   4.155  1.6970  0.5974  1.4850
 2224THY    CA355590   6.597   3.324   4.080 -0.4859  0.2559  0.1737
 2224THY    HA355591   6.585   3.387   3.992  1.3151 -0.4759 -0.6497
 2224THY    CA455592   6.667   3.208   4.061 -0.2497 -0.5512  0.2501
 2224THY    HA455593   6.703   3.185   3.961 -3.0446 -0.3317 -0.9107
 2224THY    CA555594   6.692   3.121   4.172  0.5602 -0.4355 -0.8993
 2224THY    CM155595   6.788   3.013   4.153 -0.4702 -0.3328  0.5095
 2224THY    HM155596   6.880   3.041   4.205 -0.1798  1.0565 -0.6811
 2224THY    HM255597   6.755   2.915   4.190  1.2577 -1.0425  0.2648
 2224THY    HM355598   6.813   3.004   4.047  0.0664  1.1326  0.4867
 2224THY    CA655599   6.630   3.144   4.300  1.0131  0.3526 -0.1589
 2224THY    HA655600   6.652   3.095   4.394  1.3494 -1.4262 -1.1269
 2225THY      O55601   2.383   8.806   1.810 -0.4055 -0.2112 -0.2984
 2225THY     HO55602   2.456   8.781   1.751  0.3083  0.6641  0.1920
 2225THY    CA155603   2.419   8.930   1.867  0.8015  0.5393 -0.3581
 2225THY    CA255604   2.338   8.992   1.960 -0.7267 -0.1026  0.5338
 2225THY    CP155605   2.218   8.915   2.007 -0.1379  0.0591  0.0655
 2225THY    HP155606   2.188   8.825   1.952 -2.0755  1.0118 -0.5288
 2225THY    CP255607   2.236   8.880   2.153  0.0427  0.1740  0.6390
 2225THY    HP255608   2.195   8.962   2.213 -1.6396 -0.2299  0.0767
 2225THY    HP355609   2.162   8.801   2.165 -1.1577  1.3125  0.9788
 2225THY    HP455610   2.339   8.853   2.180  1.7267  1.1757 -3.9036
 2225THY    CP355611   2.095   8.996   1.988  0.4574 -0.2752 -0.2617
 2225THY    HP555612   2.092   9.081   2.057  2.1305  0.1129 -0.6288
 2225THY    HP655613   2.095   9.032   1.884 -0.7512  2.0071  0.4573
 2225THY    HP755614   2.003   8.937   1.997 -0.9115  1.8913  1.0491
 2225THY    CA355615   2.388   9.111   2.032 -0.7889 -0.2265  0.3290
 2225THY    HA355616   2.338   9.146   2.122 -0.0309  1.7976  0.0227
 2225THY    CA455617   2.510   9.167   1.993 -0.2221  0.2735  0.0170
 2225THY    HA455618   2.554   9.251   2.046  0.0148  0.2893 -0.2065
 2225THY    CA555619   2.588   9.100   1.894 -0.1921  0.4053  0.0753
 2225THY    CM155620   2.711   9.153   1.840  0.0999 -0.2100  0.5163
 2225THY    HM155621   2.783   9.072   1.823 -2.1446 -1.7429 -2.6549
 2225THY    HM255622   2.698   9.221   1.755  2.1223  0.5298  0.7284
 2225THY    HM355623   2.754   9.228   1.908 -2.4471 -0.1060  2.1275
 2225THY    CA655624   2.544   8.986   1.834  0.0312 -1.1842 -0.0807
 2225THY    HA655625   2.616   8.941   1.765 -0.0363 -1.5212  0.0680
 2226THY      O55626   9.678   1.429   6.711  0.4075 -0.1027 -0.0450
 2226THY     HO55627   9.707   1.376   6.635 -3.4942 -0.8830 -1.2234
 2226THY    CA155628   9.661   1.555   6.662 -0.4456 -0.1767 -0.8180
 2226THY    CA255629   9.657   1.653   6.759  0.3274 -0.5306  0.2481
 2226THY    CP155630   9.655   1.621   6.906  0.1322  0.1407 -0.1463
 2226THY    HP155631   9.730   1.545   6.931  1.3106  0.1426 -3.2458
 2226THY    CP255632   9.695   1.745   6.990  0.5493  0.8418 -0.3555
 2226THY    HP255633   9.628   1.832   6.988  0.0658  0.4799 -0.1710
 2226THY    HP355634   9.699   1.697   7.089  0.9126 -1.8254 -1.5826
 2226THY    HP455635   9.796   1.785   6.977  1.3161 -0.7688  0.3448
 2226THY    CP355636   9.521   1.577   6.950  0.2322  0.5516 -0.1033
 2226THY    HP555637   9.435   1.644   6.938 -1.4227 -1.5546 -0.8630
 2226THY    HP655638   9.491   1.498   6.879  0.0368 -1.7018  2.3170
 2226THY    HP755639   9.530   1.538   7.052 -0.4345  1.3582  0.2683
 2226THY    CA355640   9.654   1.787   6.708  0.0899 -0.3420 -0.5489
 2226THY    HA355641   9.641   1.872   6.775  0.0860  0.2016 -1.2210
 2226THY    CA455642   9.665   1.808   6.567  0.5377  0.5405 -0.2346
 2226THY    HA455643   9.649   1.908   6.528  0.1648 -0.2694 -2.2980
 2226THY    CA555644   9.680   1.703   6.479  0.2443  0.3221  0.1156
 2226THY    CM155645   9.718   1.737   6.328  0.3970  0.2589 -0.1985
 2226THY    HM155646   9.785   1.822   6.316 -0.2033  1.2230  2.5145
 2226THY    HM255647   9.771   1.653   6.281 -1.2044 -1.0177  0.1735
 2226THY    HM355648   9.623   1.753   6.275  0.0196 -0.4543  0.2378
 2226THY    CA655649   9.685   1.574   6.527  0.1674 -0.2106 -0.1026
 2226THY    HA655650   9.702   1.493   6.457 -0.6538 -1.1724  0.7773
 2227THY      O55651   3.244   1.710   2.958  0.0756  0.3714 -0.0608
 2227THY     HO55652   3.177   1.734   2.891  0.1904  1.2710  0.1312
 2227THY    CA155653   3.241   1.575   2.973  0.3428  0.7412  0.3946
 2227THY    CA255654   3.343   1.493   2.917 -0.0829 -0.4022 -0.3275
 2227THY    CP155655   3.459   1.566   2.844  0.9040 -0.2710 -0.9982
 2227THY    HP155656   3.441   1.671   2.817 -0.2724 -0.2105 -0.0378
 2227THY    CP255657   3.582   1.572   2.939 -0.3596  0.2452  0.9161
 2227THY    HP255658   3.653   1.640   2.890 -2.0689  0.8246 -0.9152
 2227THY    HP355659   3.558   1.602   3.041 -1.1971  1.1647  0.4729
 2227THY    HP455660   3.626   1.472   2.946 -0.1643  0.4841  4.4874
 2227THY    CP355661   3.505   1.494   2.717 -0.6782 -0.2034  0.4684
 2227THY    HP555662   3.561   1.402   2.736 -0.5375  0.0557  1.3398
 2227THY    HP655663   3.424   1.471   2.647  1.8161 -2.1638 -2.0054
 2227THY    HP755664   3.576   1.548   2.653 -0.5001 -2.0046 -0.9390
 2227THY    CA355665   3.340   1.355   2.939 -0.9684  0.3827 -0.1960
 2227THY    HA355666   3.420   1.289   2.905 -0.9839  0.0156  0.4588
 2227THY    CA455667   3.223   1.297   3.005 -1.1028 -0.1312  0.1634
 2227THY    HA455668   3.223   1.189   3.018  1.1527 -0.3745 -1.1628
 2227THY    CA555669   3.126   1.382   3.055  0.3406  1.0948  0.0251
 2227THY    CM155670   3.009   1.320   3.121 -0.2613  0.2921 -0.1079
 2227THY    HM155671   2.934   1.276   3.054  0.0356  0.5521 -0.6156
 2227THY    HM255672   3.040   1.245   3.194 -0.5515 -1.0414 -1.3259
 2227THY    HM355673   2.967   1.397   3.188  2.4675 -0.0783  2.1926
 2227THY    CA655674   3.126   1.519   3.039 -0.3721 -0.4670  0.1178
 2227THY    HA655675   3.051   1.586   3.080  1.3476  1.2333  0.6644
 2228THY      O55676   3.099   4.286   6.691 -0.7066 -0.1289 -0.1887
 2228THY     HO55677   3.180   4.233   6.702 -0.5837  0.2041  0.6712
 2228THY    CA155678   3.112   4.377   6.794  0.0280  0.5875  0.2064
 2228THY    CA255679   3.075   4.518   6.779 -0.3082  0.9502 -0.1246
 2228THY    CP155680   3.008   4.577   6.658 -0.1009  0.2247  0.2037
 2228THY    HP155681   2.986   4.498   6.586 -0.2009 -1.0716  1.6085
 2228THY    CP255682   2.868   4.633   6.703 -0.2552  0.9450 -0.4804
 2228THY    HP255683   2.802   4.558   6.749  0.9730  1.0267  1.5273
 2228THY    HP355684   2.875   4.718   6.772 -1.0457  1.6808 -1.2809
 2228THY    HP455685   2.819   4.665   6.610  2.2897 -0.7791 -2.5485
 2228THY    CP355686   3.084   4.686   6.592 -0.4048 -0.4323  0.3475
 2228THY    HP555687   3.079   4.772   6.660  4.2012  1.2732 -1.0931
 2228THY    HP655688   3.184   4.645   6.572 -0.2527  0.4375 -0.7352
 2228THY    HP755689   3.046   4.710   6.493  1.6717  1.0295 -0.1585
 2228THY    CA355690   3.094   4.597   6.896 -0.0106  0.1261 -0.1242
 2228THY    HA355691   3.068   4.703   6.898  2.1143  0.7976 -2.5220
 2228THY    CA455692   3.166   4.548   7.005 -0.3318  0.4391 -0.7051
 2228THY    HA455693   3.188   4.610   7.092  0.8622  1.0287 -1.3960
 2228THY    CA555694   3.211   4.411   7.013 -0.3347 -0.3171  0.7770
 2228THY    CM155695   3.288   4.359   7.126 -0.1291  0.3100 -0.4799
 2228THY    HM155696   3.231   4.281   7.180 -0.2388  0.8848  0.2475
 2228THY    HM255697   3.391   4.331   7.101  0.4586  1.4728  0.5520
 2228THY    HM355698   3.299   4.441   7.198  1.4833  0.1950 -0.5686
 2228THY    CA655699   3.184   4.326   6.907  0.0567 -0.5864 -0.1976
 2228THY    HA655700   3.216   4.223   6.916  0.6802 -0.2973  1.2367
 2229THY      O55701   7.252   5.872   7.703  0.0015 -0.0637 -0.1027
 2229THY     HO55702   7.160   5.856   7.731  0.0674  1.6764  1.3214
 2229THY    CA155703   7.321   5.755   7.719 -0.3104  0.5198  0.5829
 2229THY    CA255704   7.465   5.754   7.735 -0.0620  0.5076  0.0059
 2229THY    CP155705   7.540   5.889   7.727  0.4356  0.6251 -0.0176
 2229THY    HP155706   7.485   5.958   7.663  0.9558  0.4077 -0.7182
 2229THY    CP255707   7.546   5.939   7.871 -0.4718  0.8034 -0.7160
 2229THY    HP255708   7.568   6.047   7.874  0.2659  0.6272  1.4803
 2229THY    HP355709   7.450   5.923   7.921  0.7199 -1.3866  1.0323
 2229THY    HP455710   7.616   5.883   7.933 -2.2412 -0.8171 -0.0728
 2229THY    CP355711   7.681   5.895   7.666  0.0750  0.4778 -0.9050
 2229THY    HP555712   7.734   5.810   7.709 -1.9785  0.5355  2.0536
 2229THY    HP655713   7.678   5.876   7.558 -1.7417 -0.1808 -0.7722
 2229THY    HP755714   7.727   5.989   7.700 -1.9463  1.8242 -1.6956
 2229THY    CA355715   7.530   5.631   7.776 -0.0602  0.1705 -0.3995
 2229THY    HA355716   7.638   5.626   7.781  0.1032  1.9754 -1.3173
 2229THY    CA455717   7.461   5.512   7.787  0.0045 -0.7359  0.0876
 2229THY    HA455718   7.518   5.424   7.814  4.5119  1.6928 -0.5499
 2229THY    CA555719   7.325   5.517   7.755  0.5373  0.2392 -0.5772
 2229THY    CM155720   7.247   5.388   7.775  0.4045 -0.1932  1.2781
 2229THY    HM155721   7.308   5.315   7.829  0.8376 -0.2289  0.7448
 2229THY    HM255722   7.149   5.404   7.822  0.1710 -0.1783  0.7851
 2229THY    HM355723   7.233   5.342   7.677  0.3211  0.6674  0.8706
 2229THY    CA655724   7.258   5.635   7.731 -0.0183  0.2069 -0.2085
 2229THY    HA655725   7.150   5.624   7.738  0.2634 -2.8852  0.7478
 2230THY      O55726   0.626   5.026   0.861  0.5324  0.1553  0.2875
 2230THY     HO55727   0.661   4.986   0.943 -0.3505 -0.9288  0.1548
 2230THY    CA155728   0.535   5.127   0.884  0.0486  0.8591  0.9653
 2230THY    CA255729   0.459   5.180   0.784  0.5082 -0.1904 -0.3153
 2230THY    CP155730   0.462   5.118   0.643 -0.4866  0.1793 -0.0076
 2230THY    HP155731   0.491   5.013   0.652 -1.1077  0.1673  2.5116
 2230THY    CP255732   0.318   5.122   0.574 -0.3335 -0.1460  1.0167
 2230THY    HP255733   0.338   5.095   0.470 -1.0260  3.1498 -0.0737
 2230THY    HP355734   0.230   5.070   0.615 -1.2041  0.3500 -0.1894
 2230THY    HP455735   0.294   5.229   0.570 -0.5895 -0.2442 -1.1319
 2230THY    CP355736   0.548   5.207   0.551 -1.2635  0.3850  0.1369
 2230THY    HP555737   0.555   5.159   0.453 -1.6456  0.6925 -0.0407
 2230THY    HP655738   0.508   5.306   0.529 -0.0680  0.4989 -1.6984
 2230THY    HP755739   0.649   5.216   0.594 -0.8937  1.5024 -0.9141
 2230THY    CA355740   0.393   5.306   0.803 -1.1140  0.3747  0.4601
 2230THY    HA355741   0.335   5.354   0.725 -1.6999 -2.7545 -1.1623
 2230THY    CA455742   0.395   5.362   0.936  0.0470  0.3888  0.6543
 2230THY    HA455743   0.350   5.459   0.958 -0.2591  0.5729 -0.6849
 2230THY    CA555744   0.472   5.300   1.034 -0.9736  0.1546 -0.1851
 2230THY    CM155745   0.495   5.359   1.171 -0.1445  0.0049  0.2547
 2230THY    HM155746   0.403   5.361   1.231  0.9436  1.4084  1.9793
 2230THY    HM255747   0.578   5.316   1.228 -0.0935 -0.8700 -0.4563
 2230THY    HM355748   0.516   5.467   1.163  0.2329  0.0649  1.6994
 2230THY    CA655749   0.535   5.180   1.011 -0.1473 -0.8393 -0.0662
 2230THY    HA655750   0.607   5.138   1.081 -0.5571 -0.1842  0.7587
 2231THY      O55751   6.619   9.702   9.815  0.4724  0.1597  0.1999
 2231THY     HO55752   6.676   9.663   9.746 -0.9316  0.7025 -1.3252
 2231THY    CA155753   6.542   9.593   9.852 -0.6314 -0.3062 -0.0258
 2231THY    CA255754   6.437   9.594   9.943  0.2198  0.1185  0.4742
 2231THY    CP155755   6.421   9.716  10.033 -0.0134  0.3147 -0.3259
 2231THY    HP155756   6.420   9.796   9.958  0.7129 -0.9575 -1.7724
 2231THY    CP255757   6.293   9.722  10.126 -0.5637  0.7517 -0.0906
 2231THY    HP255758   6.289   9.646  10.206  1.0483 -1.1742 -1.7249
 2231THY    HP355759   6.287   9.817  10.179 -2.1636  0.6120  0.0444
 2231THY    HP455760   6.199   9.697  10.076 -0.4820  0.5617 -0.1509
 2231THY    CP355761   6.543   9.736  10.126 -0.3057  0.2019 -0.5848
 2231THY    HP555762   6.545   9.657  10.202 -1.0596 -1.3249 -2.1000
 2231THY    HP655763   6.637   9.733  10.070  1.1386  0.8056  1.6716
 2231THY    HP755764   6.536   9.832  10.179  2.2481 -1.3719  3.0445
 2231THY    CA355765   6.359   9.485   9.964 -0.1448  0.9522 -0.3992
 2231THY    HA355766   6.276   9.476  10.033 -1.3047  2.5611 -1.5199
 2231THY    CA455767   6.380   9.369   9.886 -0.6217 -0.1195 -1.3548
 2231THY    HA455768   6.309   9.288   9.898 -1.3162  0.2194 -2.9413
 2231THY    CA555769   6.481   9.365   9.792 -0.2112  0.2375  0.2197
 2231THY    CM155770   6.496   9.246   9.704  0.7126  0.6969  0.3097
 2231THY    HM155771   6.426   9.167   9.734  1.0268  1.0139  1.9960
 2231THY    HM255772   6.486   9.271   9.598  0.1647 -1.1055 -0.0940
 2231THY    HM355773   6.592   9.196   9.723  0.6320  0.3692 -0.1420
 2231THY    CA655774   6.571   9.475   9.784  0.1184 -0.0839  0.4351
 2231THY    HA655775   6.659   9.464   9.721 -0.3164 -1.3375  0.0171
 2232THY      O55776   1.917   2.388   6.603  0.2605  0.1321  0.3973
 2232THY     HO55777   1.894   2.435   6.685  0.5769 -0.8156  1.0479
 2232THY    CA155778   1.985   2.288   6.654 -0.8017 -0.2261  0.4575
 2232THY    CA255779   1.972   2.152   6.604 -0.5312  0.1428  0.0288
 2232THY    CP155780   1.875   2.122   6.486 -0.3028  0.1989 -0.1089
 2232THY    HP155781   1.811   2.209   6.466 -0.8098 -0.1689 -0.1021
 2232THY    CP255782   1.932   2.081   6.353  0.1436  0.3096  0.2484
 2232THY    HP255783   1.990   1.989   6.366 -0.2637 -0.2564 -1.6583
 2232THY    HP355784   1.855   2.055   6.280 -2.0932  0.3901  2.4176
 2232THY    HP455785   1.998   2.162   6.319  0.0512  0.5136  0.5410
 2232THY    CP355786   1.774   2.020   6.535 -0.8676 -0.3738  0.1241
 2232THY    HP555787   1.679   2.029   6.480 -0.2782  0.5350 -0.7938
 2232THY    HP655788   1.805   1.916   6.522 -1.9432 -0.9701  2.0063
 2232THY    HP755789   1.751   2.032   6.641  1.1530  0.2780  0.5231
 2232THY    CA355790   2.044   2.042   6.669  0.3626 -0.7800  0.4236
 2232THY    HA355791   2.036   1.936   6.647 -0.4786 -0.6948  0.2989
 2232THY    CA455792   2.116   2.081   6.786  0.2737  0.0228 -0.5919
 2232THY    HA455793   2.171   2.001   6.833  1.2890  0.9488 -0.1733
 2232THY    CA555794   2.135   2.212   6.824 -0.0668 -0.5914 -0.2836
 2232THY    CM155795   2.214   2.242   6.941  0.0243 -0.0272  0.3904
 2232THY    HM155796   2.190   2.176   7.026  2.8164 -0.5199  0.8711
 2232THY    HM255797   2.321   2.226   6.924  0.1549  1.3889 -0.2753
 2232THY    HM355798   2.202   2.344   6.978  4.8066  0.3333  1.5164
 2232THY    CA655799   2.071   2.314   6.756  0.6407  0.6896  0.3681
 2232THY    HA655800   2.082   2.414   6.796 -2.2320  0.6806  1.3809
 2233THY      O55801   0.491   4.109   4.150  0.1334 -0.1326  0.1931
 2233THY     HO55802   0.429   4.077   4.082  1.0497 -1.0070 -0.2730
 2233THY    CA155803   0.473   4.019   4.257 -0.3354  0.2729  1.1232
 2233THY    CA255804   0.561   4.026   4.369 -0.3625 -0.7068  0.3824
 2233THY    CP155805   0.654   4.147   4.383  0.7151 -0.4932 -0.0310
 2233THY    HP155806   0.589   4.228   4.347  2.1493 -0.0977 -1.8258
 2233THY    CP255807   0.693   4.182   4.526 -0.1099 -0.7973 -0.5268
 2233THY    HP255808   0.783   4.131   4.562  0.0151 -0.3994 -0.2708
 2233THY    HP355809   0.710   4.288   4.547 -0.1207  0.4123 -5.5266
 2233THY    HP455810   0.608   4.148   4.586  1.2244 -1.4608  1.0677
 2233THY    CP355811   0.794   4.136   4.301  0.8390  0.4841  0.0721
 2233THY    HP555812   0.768   4.121   4.196  1.4082  0.7799 -0.1120
 2233THY    HP655813   0.844   4.234   4.305  1.6760  0.0658 -0.0916
 2233THY    HP755814   0.844   4.048   4.342 -0.9394 -0.5450  0.1460
 2233THY    CA355815   0.553   3.923   4.466 -0.5262  0.1637  0.1264
 2233THY    HA355816   0.631   3.924   4.542 -1.1957 -4.4737  1.1603
 2233THY    CA455817   0.455   3.823   4.450 -0.3422 -0.0036 -0.1857
 2233THY    HA455818   0.462   3.743   4.523 -0.1309  0.4017  0.2398
 2233THY    CA555819   0.355   3.836   4.356 -0.6852  0.1859  0.6971
 2233THY    CM155820   0.253   3.736   4.341 -0.8698  0.7339 -0.1449
 2233THY    HM155821   0.285   3.669   4.261  0.0620  1.9179 -0.7852
 2233THY    HM255822   0.237   3.668   4.426 -0.5544 -0.7313 -1.2031
 2233THY    HM355823   0.156   3.781   4.315 -1.8025 -0.9823  0.1776
 2233THY    CA655824   0.366   3.929   4.257  0.1667 -0.3171  0.0200
 2233THY    HA655825   0.300   3.929   4.170 -0.0692  0.0842  0.1962
 2234THY      O55826   1.708   7.793   8.053 -0.3727  0.4677  0.3166
 2234THY     HO55827   1.798   7.809   8.020  0.0927  2.1132  2.1974
 2234THY    CA155828   1.672   7.899   8.132  0.0506 -0.7122  0.5823
 2234THY    CA255829   1.557   7.896   8.216  0.2337 -0.2156  0.3907
 2234THY    CP155830   1.465   7.771   8.195  0.1147  0.3044  0.2415
 2234THY    HP155831   1.527   7.688   8.160 -2.2236 -0.6191 -2.0413
 2234THY    CP255832   1.395   7.721   8.327 -0.0774  0.3054 -0.0928
 2234THY    HP255833   1.323   7.642   8.307 -2.0730  2.3835 -1.6430
 2234THY    HP355834   1.471   7.676   8.393 -2.8221 -1.6528  1.9852
 2234THY    HP455835   1.345   7.806   8.375  1.6944  0.2228  2.0709
 2234THY    CP355836   1.358   7.809   8.093  0.0449 -0.2554 -0.3401
 2234THY    HP555837   1.295   7.726   8.057 -2.3999 -0.5300  3.8936
 2234THY    HP655838   1.295   7.880   8.148 -1.3964 -2.8371  1.6236
 2234THY    HP755839   1.415   7.861   8.015 -0.7747 -0.3130 -0.9898
 2234THY    CA355840   1.526   8.002   8.307  1.0571  0.0369 -0.3559
 2234THY    HA355841   1.436   8.000   8.368  0.9515 -0.0119 -0.5120
 2234THY    CA455842   1.613   8.104   8.318 -0.2438 -0.9840  0.2072
 2234THY    HA455843   1.599   8.177   8.398  1.7097 -0.0825 -0.2170
 2234THY    CA555844   1.739   8.103   8.250  0.0898  0.5462 -0.8770
 2234THY    CM155845   1.853   8.201   8.276  0.6834 -0.0396  0.4756
 2234THY    HM155846   1.844   8.261   8.184 -2.1535 -1.7075 -0.4658
 2234THY    HM255847   1.834   8.263   8.364  0.8652  0.5875  0.0787
 2234THY    HM355848   1.946   8.146   8.294  1.6490  1.8165  1.4048
 2234THY    CA655849   1.764   8.003   8.153  0.0509  0.5919  0.3414
 2234THY    HA655850   1.865   8.006   8.111  0.4350  0.8698  1.2599
 2235THY      O55851   2.587   8.562   6.141  0.3614 -0.1901 -0.3704
 2235THY     HO55852   2.678   8.564   6.107  0.3671  1.6828 -0.3445
 2235THY    CA155853   2.588   8.594   6.271 -0.0828 -0.5675 -0.6399
 2235THY    CA255854   2.468   8.622   6.340 -0.0908  0.1426 -0.9368
 2235THY    CP155855   2.334   8.599   6.268  0.3597 -0.1401  0.4166
 2235THY    HP155856   2.349   8.516   6.198  0.4790  1.0395 -1.0084
 2235THY    CP255857   2.214   8.561   6.355  0.0643 -0.2897  0.0512
 2235THY    HP255858   2.246   8.502   6.441 -0.7747 -1.7175 -0.5856
 2235THY    HP355859   2.163   8.649   6.397  1.4310  0.3911  0.3575
 2235THY    HP455860   2.149   8.490   6.302 -0.9110  2.0227 -2.0568
 2235THY    CP355861   2.292   8.709   6.169 -0.1722 -0.2796 -0.4038
 2235THY    HP555862   2.262   8.808   6.205  1.4741  0.5080 -1.1021
 2235THY    HP655863   2.376   8.736   6.104 -0.8243  1.8780 -0.4283
 2235THY    HP755864   2.210   8.667   6.111 -2.2199  1.4329  1.0754
 2235THY    CA355865   2.478   8.679   6.470  0.0852 -0.5592 -0.2831
 2235THY    HA355866   2.389   8.714   6.522 -0.0230 -0.3839 -0.5846
 2235THY    CA455867   2.603   8.694   6.534  0.5021 -0.0933  0.2623
 2235THY    HA455868   2.606   8.740   6.633 -0.1921 -0.2699  0.3728
 2235THY    CA555869   2.717   8.647   6.465  0.8611 -0.1367 -1.0056
 2235THY    CM155870   2.849   8.667   6.529  0.0407 -0.5570  0.2622
 2235THY    HM155871   2.927   8.600   6.490  2.5750  0.4703  3.1018
 2235THY    HM255872   2.881   8.767   6.495 -3.2245  0.7151  0.6159
 2235THY    HM355873   2.855   8.666   6.638  1.8013 -0.9576  0.1976
 2235THY    CA655874   2.713   8.600   6.338 -0.4478  0.1056  0.2596
 2235THY    HA655875   2.807   8.567   6.296 -0.8656 -1.7641  0.6628
 2236THY      O55876   8.578   9.282   7.713  0.1395  0.2044  0.0038
 2236THY     HO55877   8.635   9.287   7.634 -1.2470 -1.1906 -1.1285
 2236THY    CA155878   8.462   9.231   7.664  0.0644 -0.4194 -0.3181
 2236THY    CA255879   8.363   9.181   7.750  0.0692  0.4126  0.2045
 2236THY    CP155880   8.396   9.178   7.901 -0.5717 -0.4459  0.4066
 2236THY    HP155881   8.498   9.212   7.925  0.5691 -1.7751 -2.1797
 2236THY    CP255882   8.290   9.265   7.977  0.1050 -0.4023  0.1905
 2236THY    HP255883   8.274   9.361   7.926  0.4925 -0.0148  0.7802
 2236THY    HP355884   8.193   9.213   7.978 -0.4137  0.5394  0.4491
 2236THY    HP455885   8.326   9.288   8.078 -0.9326  1.3039  0.2151
 2236THY    CP355886   8.382   9.040   7.961  0.1007  0.2152  0.2388
 2236THY    HP555887   8.460   8.979   7.912  1.0111 -0.0407  1.9249
 2236THY    HP655888   8.410   9.032   8.066  3.4854  0.5906 -0.5000
 2236THY    HP755889   8.288   8.988   7.942  0.2310  0.6345 -1.8967
 2236THY    CA355890   8.235   9.146   7.699  0.0717 -0.0946  0.2040
 2236THY    HA355891   8.156   9.111   7.765 -1.7632  0.2755 -1.7012
 2236THY    CA455892   8.224   9.151   7.553 -0.4218  0.1077 -0.1330
 2236THY    HA455893   8.149   9.089   7.504 -0.6035  1.2579 -1.3516
 2236THY    CA555894   8.316   9.210   7.473 -0.3688 -0.4829 -0.2670
 2236THY    CM155895   8.296   9.243   7.328 -0.2432 -0.5427  0.1829
 2236THY    HM155896   8.318   9.348   7.308 -0.6293 -0.1191  1.8114
 2236THY    HM255897   8.377   9.196   7.270  0.5115 -0.6615  1.2912
 2236THY    HM355898   8.203   9.212   7.281 -0.5479  2.1729 -1.1760
 2236THY    CA655899   8.435   9.257   7.531  0.2928  0.2882  0.1992
 2236THY    HA655900   8.511   9.321   7.487  0.3833  2.4843  3.1935
 2237THY      O55901   7.095   7.062   6.989  0.4497  0.5422  0.0735
 2237THY     HO55902   7.181   7.051   7.033 -0.7764 -1.0918  2.2547
 2237THY    CA155903   7.033   7.171   7.042 -0.0286  0.1131  0.1036
 2237THY    CA255904   6.891   7.182   7.053 -0.9621  0.0760  0.0171
 2237THY    CP155905   6.805   7.069   6.992 -0.1915  0.1131 -0.1436
 2237THY    HP155906   6.853   7.012   6.912 -1.3771 -0.6886 -0.3070
 2237THY    CP255907   6.751   6.974   7.103 -0.8135 -0.2450  1.0110
 2237THY    HP255908   6.831   6.900   7.114  0.5828  0.6841 -1.8747
 2237THY    HP355909   6.744   7.034   7.194  1.2668 -0.4683  1.3707
 2237THY    HP455910   6.658   6.921   7.082 -1.0861  0.7685 -0.4999
 2237THY    CP355911   6.681   7.125   6.911 -0.1531 -0.6538 -0.3201
 2237THY    HP555912   6.637   7.047   6.848  0.5821 -0.7012 -0.7948
 2237THY    HP655913   6.608   7.158   6.985  0.3875 -0.1870  0.0172
 2237THY    HP755914   6.715   7.210   6.850  0.6526 -0.9980 -0.3707
 2237THY    CA355915   6.837   7.306   7.101  0.2286  0.0843 -0.5026
 2237THY    HA355916   6.729   7.319   7.107  0.4061  1.0680  0.9403
 2237THY    CA455917   6.922   7.411   7.143 -0.3006  0.5494 -0.6849
 2237THY    HA455918   6.885   7.503   7.186  1.7910  0.5605  1.3390
 2237THY    CA555919   7.060   7.396   7.128 -0.7431  0.2449 -0.5737
 2237THY    CM155920   7.151   7.507   7.163 -0.3365 -0.4709  0.2316
 2237THY    HM155921   7.136   7.547   7.264  0.4157  1.8955 -0.5512
 2237THY    HM255922   7.258   7.494   7.145  0.1728  1.3531  1.6580
 2237THY    HM355923   7.137   7.584   7.087  3.3637  0.4535  0.3475
 2237THY    CA655924   7.113   7.283   7.076  0.5111  0.4595  0.0242
 2237THY    HA655925   7.221   7.283   7.063  0.7813 -1.5665  1.6952
 2238THY      O55926   7.561   0.026   9.782 -0.0931  0.2151 -0.1834
 2238THY     HO55927   7.524   0.084   9.850  0.1208 -1.4416  1.4209
 2238THY    CA155928   7.695   0.017   9.797  0.6276 -0.7160 -0.1319
 2238THY    CA255929   7.762  -0.104   9.792 -0.4146 -0.1917 -0.5844
 2238THY    CP155930   7.689  -0.239   9.756 -0.3060  0.1255  0.8577
 2238THY    HP155931   7.594  -0.229   9.703  0.1707  4.0586  0.5223
 2238THY    CP255932   7.766  -0.312   9.647  0.8922  0.7471 -0.3071
 2238THY    HP255933   7.797  -0.241   9.569  0.0900 -0.3265 -1.6524
 2238THY    HP355934   7.848  -0.362   9.700 -0.2695  0.4849  1.2920
 2238THY    HP455935   7.704  -0.390   9.603  2.2703  1.1269 -3.1573
 2238THY    CP355936   7.665  -0.324   9.886  1.1627 -0.4207  0.3409
 2238THY    HP555937   7.612  -0.264   9.961 -4.0614 -1.8755 -1.7378
 2238THY    HP655938   7.592  -0.398   9.853  0.5212  0.2815  0.1752
 2238THY    HP755939   7.759  -0.375   9.913  0.4444 -0.5776  2.7645
 2238THY    CA355940   7.900  -0.118   9.825 -0.8001 -0.1231 -0.1273
 2238THY    HA355941   7.962  -0.207   9.818  1.1107  1.1008  0.4904
 2238THY    CA455942   7.970   0.003   9.857  0.1206 -0.3346  0.0538
 2238THY    HA455943   8.076   0.001   9.881  0.4782  3.5864 -0.6306
 2238THY    CA555944   7.902   0.129   9.841  0.6837 -0.3100  0.0538
 2238THY    CM155945   7.968   0.258   9.862 -0.3847  0.1156 -0.4448
 2238THY    HM155946   7.978   0.289   9.966 -0.8533  1.9008 -0.8910
 2238THY    HM255947   8.066   0.255   9.814 -0.6323 -0.2355 -0.9475
 2238THY    HM355948   7.907   0.329   9.805 -0.2088  0.4250 -0.2535
 2238THY    CA655949   7.767   0.133   9.812  0.9516 -0.0066 -0.0809
 2238THY    HA655950   7.702   0.220   9.815 -1.1717 -1.4565 -1.1456
 2239THY      O55951   0.440   3.098   3.132 -0.1398  0.5219 -0.2379
 2239THY     HO55952   0.468   3.161   3.200  1.0667 -0.8386  0.5788
 2239THY    CA155953   0.519   3.130   3.021 -0.3873 -0.4899  0.0959
 2239THY    CA255954   0.497   3.065   2.892  0.0821 -0.1494 -1.4503
 2239THY    CP155955   0.393   2.953   2.874  0.7347  0.2899 -0.7050
 2239THY    HP155956   0.347   2.935   2.972  2.5260 -0.4630  0.0342
 2239THY    CP255957   0.278   2.984   2.780 -0.1891  0.2278  1.0081
 2239THY    HP255958   0.208   3.065   2.806 -0.5118  0.5093 -0.6006
 2239THY    HP355959   0.309   3.000   2.676  0.5574 -1.7863  0.8853
 2239THY    HP455960   0.200   2.908   2.785 -1.8279  1.6936 -0.6167
 2239THY    CP355961   0.448   2.810   2.866  0.2702 -0.1340  0.2382
 2239THY    HP555962   0.383   2.723   2.878 -1.8380  1.1889 -0.8893
 2239THY    HP655963   0.492   2.796   2.766  0.0385 -1.2966  0.2822
 2239THY    HP755964   0.534   2.798   2.932  0.6418  0.9182 -0.0281
 2239THY    CA355965   0.583   3.094   2.789  0.6115 -0.6755  0.2657
 2239THY    HA355966   0.578   3.052   2.689  0.3916 -1.5884  0.6450
 2239THY    CA455967   0.692   3.181   2.812  0.1151  0.1473 -0.1739
 2239THY    HA455968   0.770   3.179   2.738 -0.0229 -0.5933 -0.2984
 2239THY    CA555969   0.703   3.244   2.937 -0.5135 -0.9579 -0.0820
 2239THY    CM155970   0.819   3.341   2.951  0.3278  0.7929  0.3190
 2239THY    HM155971   0.775   3.441   2.962 -0.1355  0.7905 -1.2083
 2239THY    HM255972   0.874   3.322   3.043 -2.2116 -0.4600  1.6666
 2239THY    HM355973   0.884   3.343   2.862  0.9611 -2.3385  0.6244
 2239THY    CA655974   0.622   3.221   3.042  0.2359 -0.3541 -0.0468
 2239THY    HA655975   0.636   3.284   3.129  2.7923 -1.6225  0.5543
 2240THY      O55976   2.810   8.504   5.989 -0.3055  0.2274  0.2923
 2240THY     HO55977   2.772   8.478   5.903 -1.6649  1.1628  0.5907
 2240THY    CA155978   2.935   8.443   5.995  0.6995 -0.2866 -0.4936
 2240THY    CA255979   3.047   8.521   6.023  0.0948  0.1985 -1.4091
 2240THY    CP155980   3.045   8.673   6.050 -0.9935  0.3198 -0.3161
 2240THY    HP155981   2.942   8.710   6.057 -1.2283 -0.1845 -1.0300
 2240THY    CP255982   3.099   8.698   6.192  0.2397  0.4262 -0.0670
 2240THY    HP255983   3.068   8.803   6.205 -1.0528  0.8691 -4.8449
 2240THY    HP355984   3.049   8.623   6.254 -0.3164 -1.5807 -2.7533
 2240THY    HP455985   3.207   8.677   6.195  0.0886 -0.4531 -0.5821
 2240THY    CP355986   3.128   8.759   5.946  0.5714 -0.0149 -0.7999
 2240THY    HP555987   3.107   8.866   5.962 -0.9003 -0.5359  1.1151
 2240THY    HP655988   3.234   8.737   5.963  1.0554  2.0279 -0.8487
 2240THY    HP755989   3.102   8.721   5.847  0.3532  0.9939 -1.1476
 2240THY    CA355990   3.168   8.450   6.034 -0.3519 -0.7762 -0.0936
 2240THY    HA355991   3.258   8.498   6.072 -0.5660 -1.3630  1.1877
 2240THY    CA455992   3.170   8.310   6.020  0.2220 -0.3080  0.3977
 2240THY    HA455993   3.263   8.255   6.029 -0.4368 -1.6273 -0.4865
 2240THY    CA555994   3.051   8.234   5.996 -0.7682 -0.5627  0.0423
 2240THY    CM155995   3.059   8.087   5.968  0.2959 -0.1413  0.4819
 2240THY    HM155996   3.160   8.050   5.948  0.0482 -0.8532  0.5302
 2240THY    HM255997   3.036   8.035   6.061  0.8359  1.0001  1.2821
 2240THY    HM355998   3.002   8.043   5.886  1.2262 -0.3565 -0.0670
 2240THY    CA655999   2.931   8.300   5.981 -0.7490 -0.5312  0.2591
 2240THY    HA656000   2.841   8.242   5.960 -0.1169 -1.2778 -0.4419
 2241THY      O56001   8.072   3.101   2.192 -0.4585 -0.1575 -0.2061
 2241THY     HO56002   8.012   3.083   2.268 -0.8527  2.4600  0.2054
 2241THY    CA156003   8.201   3.079   2.231  0.0639  0.2395 -0.6634
 2241THY    CA256004   8.300   3.042   2.133  0.8596 -0.4716 -0.2293
 2241THY    CP156005   8.260   3.036   1.977  0.3112 -0.2624 -0.6386
 2241THY    HP156006   8.165   3.088   1.957 -0.6575 -1.1566  1.2964
 2241THY    CP256007   8.362   3.112   1.906  0.4000  0.2001  0.4953
 2241THY    HP256008   8.343   3.101   1.798 -4.5882 -2.4472  1.3574
 2241THY    HP356009   8.352   3.218   1.933  0.5747  0.5622 -0.7789
 2241THY    HP456010   8.464   3.076   1.925  0.6420  1.0786  0.9598
 2241THY    CP356011   8.238   2.894   1.926  0.5560  0.4289 -0.2747
 2241THY    HP556012   8.222   2.895   1.817  1.1696  0.6545 -0.3645
 2241THY    HP656013   8.326   2.829   1.932  0.3849  0.2178 -0.0744
 2241THY    HP756014   8.149   2.855   1.975 -0.5647  0.1053 -2.4341
 2241THY    CA356015   8.428   3.005   2.177 -0.5803 -0.0081 -0.2287
 2241THY    HA356016   8.500   2.967   2.106  0.3724  0.1820  0.6172
 2241THY    CA456017   8.461   3.004   2.313  0.1039 -0.2060  0.0347
 2241THY    HA456018   8.558   2.967   2.345 -0.1590 -1.3425 -0.4467
 2241THY    CA556019   8.367   3.040   2.403  0.0302  0.0684 -0.2606
 2241THY    CM156020   8.395   3.039   2.551 -0.6620  0.6936 -0.2184
 2241THY    HM156021   8.500   3.037   2.581 -0.7612 -1.7958  0.1486
 2241THY    HM256022   8.351   3.130   2.594 -1.6559  0.6295 -1.0538
 2241THY    HM356023   8.342   2.956   2.598  0.2996 -0.5946 -1.3436
 2241THY    CA656024   8.237   3.071   2.364  0.3826 -0.0199  0.2964
 2241THY    HA656025   8.157   3.091   2.436  0.5379  0.8739  0.2329
 2242THY      O56026   2.152   2.815   3.135 -1.2639 -0.3805  0.5336
 2242THY     HO56027   2.167   2.909   3.154  1.8126 -0.0212 -2.5420
 2242THY    CA156028   2.276   2.757   3.162 -0.5696  0.2000 -0.0560
 2242THY    CA256029   2.306   2.626   3.153  0.5205  0.0904 -0.2165
 2242THY    CP156030   2.202   2.525   3.107  0.1862 -0.2535  0.0515
 2242THY    HP156031   2.112   2.573   3.065 -0.2912 -3.2760 -2.8085
 2242THY    CP256032   2.247   2.441   2.992  0.1775  0.2330 -0.3289
 2242THY    HP256033   2.265   2.494   2.898 -2.0862 -0.4911 -1.2291
 2242THY    HP356034   2.342   2.392   3.017  0.3645  1.4318  1.5205
 2242THY    HP456035   2.170   2.372   2.955 -0.9291  1.3270 -0.1224
 2242THY    CP356036   2.161   2.437   3.227 -0.4654 -0.3792  0.4193
 2242THY    HP556037   2.252   2.402   3.276 -0.7436 -0.3627  0.9557
 2242THY    HP656038   2.106   2.498   3.299 -1.8236  0.0158 -0.8965
 2242THY    HP756039   2.095   2.351   3.209  1.6321 -2.0549  0.3891
 2242THY    CA356040   2.433   2.581   3.197 -0.5042 -0.5966 -0.3283
 2242THY    HA356041   2.466   2.478   3.187  1.4599 -0.2148  1.3754
 2242THY    CA456042   2.526   2.675   3.237 -0.2393 -0.3969  0.0024
 2242THY    HA456043   2.627   2.642   3.257 -0.2275  0.4497  1.4989
 2242THY    CA556044   2.500   2.812   3.249 -0.5467  0.4438  0.0837
 2242THY    CM156045   2.605   2.903   3.283 -0.3843 -0.2302  0.1609
 2242THY    HM156046   2.675   2.862   3.356  0.3804  0.6840 -0.0263
 2242THY    HM256047   2.655   2.912   3.185  0.1116 -2.7816  0.1090
 2242THY    HM356048   2.574   3.001   3.320  1.5584  0.2073  0.7795
 2242THY    CA656049   2.370   2.852   3.213 -0.0627 -0.7969  0.6094
 2242THY    HA656050   2.338   2.956   3.218 -1.9645 -1.3334  0.6304
 2243THY      O56051   4.596   3.982   1.249 -0.0459 -0.1580 -0.2665
 2243THY     HO56052   4.592   4.076   1.225 -0.3235  0.7231  2.7354
 2243THY    CA156053   4.720   3.971   1.299 -0.0301  0.0695  0.3824
 2243THY    CA256054   4.798   3.862   1.263  0.1776  0.4061 -0.3449
 2243THY    CP156055   4.746   3.753   1.169 -0.6383  0.3222 -0.4998
 2243THY    HP156056   4.637   3.759   1.167 -0.8421 -1.3148  1.5186
 2243THY    CP256057   4.804   3.760   1.025 -0.3122 -0.0045  0.1548
 2243THY    HP256058   4.913   3.761   1.038 -0.0759 -3.7838 -0.3972
 2243THY    HP356059   4.775   3.681   0.954 -1.8763 -0.9135  1.7320
 2243THY    HP456060   4.773   3.857   0.985  2.3814  1.9829  2.5046
 2243THY    CP356061   4.770   3.609   1.221  0.3933  0.0860 -0.1569
 2243THY    HP556062   4.732   3.587   1.322  0.2793 -3.1126 -0.7790
 2243THY    HP656063   4.731   3.528   1.159 -3.1830  0.3079  1.5398
 2243THY    HP756064   4.878   3.591   1.214  0.1745 -2.4149  1.3940
 2243THY    CA356065   4.926   3.852   1.313  0.8623 -0.1322  1.0320
 2243THY    HA356066   4.986   3.767   1.283 -0.3524 -0.5010 -0.4783
 2243THY    CA456067   4.974   3.954   1.399  0.4117  0.3220  0.2438
 2243THY    HA456068   5.073   3.941   1.442 -0.4013 -2.9699  1.4785
 2243THY    CA556069   4.893   4.062   1.435  0.4664 -0.4171  0.4317
 2243THY    CM156070   4.932   4.174   1.535 -0.1403  0.2091 -0.4095
 2243THY    HM156071   5.039   4.193   1.547 -0.1612  0.4621 -0.6268
 2243THY    HM256072   4.879   4.268   1.516 -1.7673 -0.8596 -1.5032
 2243THY    HM356073   4.886   4.144   1.631 -3.4240  2.7882 -0.9848
 2243THY    CA656074   4.768   4.075   1.378  0.5600 -0.2327 -0.3300
 2243THY    HA656075   4.698   4.150   1.413  0.8021  0.9490 -2.2422
 2244THY      O56076   6.214   9.281   1.771  0.3211 -0.6666  0.7661
 2244THY     HO56077   6.246   9.318   1.855 -0.5870  1.5411  0.2071
 2244THY    CA156078   6.245   9.366   1.670  0.1469  0.2947 -0.1364
 2244THY    CA256079   6.152   9.383   1.566  0.2547  0.1345  0.2186
 2244THY    CP156080   6.011   9.325   1.570 -0.0200  0.2234  0.3244
 2244THY    HP156081   5.991   9.287   1.671 -2.4135  0.4834  0.0280
 2244THY    CP256082   5.906   9.434   1.542 -0.1775 -0.4280 -0.0498
 2244THY    HP256083   5.905   9.456   1.434  1.3342 -0.9702 -0.1912
 2244THY    HP356084   5.809   9.386   1.562 -0.1096 -0.5690 -0.0594
 2244THY    HP456085   5.929   9.515   1.612 -1.3611  1.8712 -2.1548
 2244THY    CP356086   5.995   9.208   1.469  0.0106 -0.5667 -0.0633
 2244THY    HP556087   6.083   9.143   1.479  0.6073  0.4543  1.7626
 2244THY    HP656088   5.905   9.149   1.491  0.5373 -1.3521  0.0438
 2244THY    HP756089   6.002   9.249   1.367  0.5778 -1.4868 -0.4116
 2244THY    CA356090   6.197   9.453   1.453  0.8015 -0.5010 -0.4921
 2244THY    HA356091   6.129   9.456   1.367  0.2462  2.8281 -0.0827
 2244THY    CA456092   6.328   9.513   1.452  0.0755  0.1135 -0.1190
 2244THY    HA456093   6.365   9.562   1.362  0.0946 -0.1446 -0.2545
 2244THY    CA556094   6.406   9.501   1.561 -0.4556 -0.1521 -0.0338
 2244THY    CM156095   6.543   9.560   1.557 -0.5848 -0.5150 -0.8414
 2244THY    HM156096   6.625   9.488   1.567  3.2627  2.9937 -3.6324
 2244THY    HM256097   6.579   9.602   1.462 -0.1117  1.0863 -0.0019
 2244THY    HM356098   6.546   9.630   1.641 -0.3706 -0.7845 -0.6263
 2244THY    CA656099   6.368   9.422   1.667 -0.7519 -0.3172  0.2948
 2244THY    HA656100   6.439   9.404   1.748  0.5227  0.4418 -0.6140
 2245THY      O56101   7.516   0.032   5.217 -0.2308  0.1509 -0.8787
 2245THY     HO56102   7.596   0.078   5.188  0.5846 -0.6741 -0.0194
 2245THY    CA156103   7.410   0.082   5.148 -0.5486  0.1169 -1.0056
 2245THY    CA256104   7.274   0.061   5.185  0.3687  0.3772 -0.1893
 2245THY    CP156105   7.232  -0.044   5.291 -0.7477 -0.3456 -0.2362
 2245THY    HP156106   7.320  -0.105   5.316  0.2390  0.2694 -2.0252
 2245THY    CP256107   7.190   0.033   5.419  0.3956  0.7444  0.5144
 2245THY    HP256108   7.265   0.110   5.439  0.3357  1.1465 -0.7324
 2245THY    HP356109   7.102   0.093   5.391 -0.3174 -0.6338 -0.2871
 2245THY    HP456110   7.167  -0.043   5.495 -1.5511  1.6102  0.8557
 2245THY    CP356111   7.130  -0.143   5.244 -0.2809 -0.3683  0.6121
 2245THY    HP556112   7.105  -0.212   5.325 -1.5723 -0.1061  0.4607
 2245THY    HP656113   7.032  -0.103   5.213  0.5334  0.6145 -0.8127
 2245THY    HP756114   7.163  -0.202   5.158 -1.0150 -0.0214  0.0769
 2245THY    CA356115   7.171   0.135   5.118  0.5364  0.2355  0.0304
 2245THY    HA356116   7.067   0.106   5.133  1.2021 -1.8617  1.0148
 2245THY    CA456117   7.218   0.237   5.037 -0.2847 -0.5171  0.0597
 2245THY    HA456118   7.152   0.301   4.980  2.1134  0.3674 -1.8919
 2245THY    CA556119   7.350   0.266   5.016 -0.2704 -0.1323  0.8159
 2245THY    CM156120   7.389   0.389   4.933 -0.1333  0.1870 -0.1977
 2245THY    HM156121   7.311   0.459   4.901  1.3645  0.9233 -2.3819
 2245THY    HM256122   7.459   0.449   4.993  0.0479  1.0226 -1.2216
 2245THY    HM356123   7.435   0.356   4.840  1.6205  0.9684  0.3547
 2245THY    CA656124   7.454   0.183   5.059 -0.3714  0.5825  0.0032
 2245THY    HA656125   7.557   0.205   5.032 -0.6209 -0.3164 -1.8625
 2246THY      O56126   0.278   1.313   7.941  0.2093  0.1529  0.0821
 2246THY     HO56127   0.276   1.374   7.865  0.4890 -0.3435 -0.3327
 2246THY    CA156128   0.165   1.349   8.008  0.4222  0.3847 -0.5555
 2246THY    CA256129   0.122   1.300   8.135  0.3028  0.5496  0.5346
 2246THY    CP156130   0.201   1.195   8.207  0.8958  0.0104  0.5799
 2246THY    HP156131   0.298   1.171   8.161  2.8469  4.0797  2.0091
 2246THY    CP256132   0.255   1.264   8.340  0.8037  0.2075  0.3230
 2246THY    HP256133   0.334   1.205   8.387  0.0132 -1.5299 -0.4540
 2246THY    HP356134   0.266   1.373   8.328 -3.7539  0.7508 -0.5201
 2246THY    HP456135   0.170   1.261   8.409 -0.7033  1.8796 -1.3625
 2246THY    CP356136   0.123   1.069   8.241  0.0675  0.4530 -0.8590
 2246THY    HP556137   0.056   1.094   8.324  1.5723 -1.0472  0.8731
 2246THY    HP656138   0.066   1.040   8.152  1.4883  1.8746 -2.2999
 2246THY    HP756139   0.187   0.982   8.254 -1.3216 -0.8852 -2.4516
 2246THY    CA356140  -0.006   1.339   8.182  0.3485 -0.2033 -0.4572
 2246THY    HA356141  -0.050   1.290   8.268  1.7863 -1.1674 -0.2298
 2246THY    CA456142  -0.076   1.439   8.114 -0.1220 -0.0575 -0.8795
 2246THY    HA456143  -0.171   1.468   8.158  0.2297 -1.2738  0.7453
 2246THY    CA556144  -0.031   1.498   7.997 -0.4227 -0.2503 -0.5875
 2246THY    CM156145  -0.119   1.605   7.933  0.1069  0.1379 -0.1146
 2246THY    HM156146  -0.121   1.699   7.989  0.0696  0.1623 -0.1563
 2246THY    HM256147  -0.095   1.636   7.831 -0.1810 -0.0830 -0.2501
 2246THY    HM356148  -0.223   1.571   7.938 -0.4220  1.1541 -2.7121
 2246THY    CA656149   0.090   1.453   7.943 -1.0615  0.1484 -0.7202
 2246THY    HA656150   0.130   1.491   7.850  1.0262 -0.4269 -0.1073
 2247THY      O56151   9.443   9.228   5.703 -0.2716 -0.1363  0.2412
 2247THY     HO56152   9.537   9.207   5.720 -0.0030  1.1605  0.3984
 2247THY    CA156153   9.371   9.138   5.774  0.1064  0.7827  0.7358
 2247THY    CA256154   9.236   9.154   5.799  0.5869 -0.4812 -0.0043
 2247THY    CP156155   9.165   9.274   5.738 -0.3491  0.2449 -0.0421
 2247THY    HP156156   9.205   9.315   5.644 -1.5913 -0.4596 -0.9007
 2247THY    CP256157   9.022   9.229   5.691  0.2203  0.0074  0.1003
 2247THY    HP256158   8.954   9.221   5.776 -0.6396  1.0331 -0.4643
 2247THY    HP356159   8.985   9.316   5.635 -0.0085 -1.0817 -1.5164
 2247THY    HP456160   9.015   9.139   5.629 -1.6863  0.2523 -0.0969
 2247THY    CP356161   9.156   9.382   5.846  0.4240  0.2771  0.0069
 2247THY    HP556162   9.095   9.343   5.928 -0.2155  1.5689  0.1548
 2247THY    HP656163   9.250   9.408   5.895  1.6499  1.6196 -2.8357
 2247THY    HP756164   9.106   9.472   5.810 -3.1666 -0.7419  2.0308
 2247THY    CA356165   9.169   9.070   5.892  0.7984  0.3980  0.2377
 2247THY    HA356166   9.064   9.084   5.919  0.9527  1.9369  0.1226
 2247THY    CA456167   9.243   8.971   5.952 -0.3713 -0.8241 -0.7162
 2247THY    HA456168   9.192   8.908   6.024  0.9660  0.1339  1.1356
 2247THY    CA556169   9.378   8.953   5.924  0.0408  0.8567 -0.1205
 2247THY    CM156170   9.442   8.833   5.974 -0.6486 -0.0166 -0.1093
 2247THY    HM156171   9.386   8.758   6.031  0.4304 -0.3682  0.5198
 2247THY    HM256172   9.509   8.786   5.902  1.9446 -0.7444  2.5730
 2247THY    HM356173   9.519   8.860   6.048 -0.2962 -1.3801  0.0337
 2247THY    CA656174   9.442   9.034   5.833 -0.3973 -0.5399  0.4866
 2247THY    HA656175   9.543   9.012   5.800  0.0331  1.8465  0.0317
 2248THY      O56176   1.309   5.246   8.064  0.2983  1.2725  0.0083
 2248THY     HO56177   1.218   5.266   8.039  0.6793  2.8161 -0.2777
 2248THY    CA156178   1.325   5.262   8.196  0.4312 -0.5310 -0.3271
 2248THY    CA256179   1.450   5.252   8.248  0.0993 -0.0729 -0.0620
 2248THY    CP156180   1.575   5.220   8.162 -0.5935  0.7733  0.5087
 2248THY    HP156181   1.570   5.270   8.065 -0.0607  1.8635  1.0216
 2248THY    CP256182   1.697   5.288   8.221 -0.6924 -0.1587 -0.0638
 2248THY    HP256183   1.780   5.276   8.151  1.4476  3.4314  1.5639
 2248THY    HP356184   1.681   5.394   8.244 -1.2813 -0.5576  1.4887
 2248THY    HP456185   1.722   5.245   8.319 -1.8784  1.4793  1.0186
 2248THY    CP356186   1.594   5.071   8.141 -0.5076 -0.3800  0.5070
 2248THY    HP556187   1.671   5.060   8.065 -0.5736 -0.0171  0.3829
 2248THY    HP656188   1.640   5.015   8.223 -0.6298 -1.3942 -0.1028
 2248THY    HP756189   1.493   5.036   8.115 -0.3884  0.0910 -0.6553
 2248THY    CA356190   1.456   5.274   8.390 -0.6590 -0.2444  0.2500
 2248THY    HA356191   1.552   5.266   8.441  0.1829  2.2689 -0.8040
 2248THY    CA456192   1.336   5.310   8.464 -0.1674 -0.2605  0.0532
 2248THY    HA456193   1.354   5.326   8.570  2.1068  2.1270 -0.5919
 2248THY    CA556194   1.212   5.322   8.407 -0.1374  0.0298  0.1941
 2248THY    CM156195   1.084   5.357   8.482  0.1373 -0.4794  0.5443
 2248THY    HM156196   1.088   5.461   8.515  0.8261 -0.4096  0.2650
 2248THY    HM256197   0.992   5.350   8.423  1.1487  0.6632 -1.3086
 2248THY    HM356198   1.074   5.287   8.565  1.1665 -0.7588  0.4484
 2248THY    CA656199   1.216   5.302   8.265  0.2713 -0.5901 -0.2575
 2248THY    HA656200   1.120   5.307   8.215  0.4863  1.2377 -0.5690
 2249THY      O56201   7.769   1.801   1.553 -0.1844 -0.5571 -0.6018
 2249THY     HO56202   7.677   1.828   1.569  0.2761  2.1897 -1.8915
 2249THY    CA156203   7.832   1.813   1.677  0.2742  0.2363 -0.3508
 2249THY    CA256204   7.956   1.769   1.708 -0.4962 -0.0320 -0.7055
 2249THY    CP156205   8.051   1.717   1.604 -0.0856  0.2886  0.7128
 2249THY    HP156206   8.016   1.754   1.507  3.0894 -1.3746 -1.2236
 2249THY    CP256207   8.187   1.770   1.620  0.1514  0.9298  0.0899
 2249THY    HP256208   8.244   1.745   1.530  1.6720 -0.4859  1.3844
 2249THY    HP356209   8.184   1.879   1.626  0.7547  1.0133 -0.9338
 2249THY    HP456210   8.233   1.719   1.705 -2.8015 -0.7906  0.8096
 2249THY    CP356211   8.053   1.562   1.611  0.0829  0.1123  0.0642
 2249THY    HP556212   7.956   1.523   1.643  1.2216 -0.3754  3.3702
 2249THY    HP656213   8.078   1.524   1.511  0.7162  0.4379  0.0907
 2249THY    HP756214   8.131   1.515   1.672 -0.1495 -4.8189 -2.8942
 2249THY    CA356215   7.996   1.783   1.842  0.1235  0.3069 -0.7298
 2249THY    HA356216   8.096   1.752   1.871  0.4043  1.6844 -0.1318
 2249THY    CA456217   7.915   1.850   1.937  0.3983 -0.3377 -0.2464
 2249THY    HA456218   7.943   1.865   2.041 -1.9439  1.8705  0.1470
 2249THY    CA556219   7.793   1.900   1.896  0.3252  1.0525  0.1569
 2249THY    CM156220   7.704   1.963   2.003  0.2480 -0.3082  0.1112
 2249THY    HM156221   7.700   2.073   2.001 -1.2475 -0.3265 -2.8252
 2249THY    HM256222   7.602   1.928   1.985  0.6459 -1.1783 -0.4801
 2249THY    HM356223   7.736   1.919   2.098  0.4445 -2.0956 -0.7517
 2249THY    CA656224   7.749   1.874   1.768 -0.4729 -0.0952 -0.1217
 2249THY    HA656225   7.647   1.906   1.748 -0.0286  2.1947  1.0152
 2250THY      O56226   5.516   1.761   2.611 -0.3526  0.6722  0.6040
 2250THY     HO56227   5.488   1.854   2.608  0.2018  0.8246 -0.8532
 2250THY    CA156228   5.640   1.737   2.550 -0.4146 -0.3264  0.4920
 2250THY    CA256229   5.692   1.610   2.541 -0.4416  1.1846  0.4366
 2250THY    CP156230   5.611   1.488   2.603  0.8773 -0.6797  0.4794
 2250THY    HP156231   5.504   1.508   2.592  1.2300  0.9976 -0.0678
 2250THY    CP256232   5.629   1.359   2.532 -0.1821  0.0306  0.2667
 2250THY    HP256233   5.721   1.307   2.562  1.5632  2.0973 -1.1260
 2250THY    HP356234   5.544   1.291   2.526 -0.3527  0.2598  0.0602
 2250THY    HP456235   5.647   1.377   2.425  1.0731 -0.2291  0.4108
 2250THY    CP356236   5.624   1.473   2.754 -0.3889  0.3188 -0.6723
 2250THY    HP556237   5.729   1.448   2.776 -0.1773  1.3426 -0.4793
 2250THY    HP656238   5.596   1.565   2.806 -0.4312  0.4341 -0.8954
 2250THY    HP756239   5.559   1.397   2.797 -1.2946  1.2059 -0.4524
 2250THY    CA356240   5.809   1.584   2.455  0.3472 -0.1460 -0.5653
 2250THY    HA356241   5.848   1.483   2.440 -0.6757 -1.1247  2.5255
 2250THY    CA456242   5.874   1.695   2.407 -0.0379 -0.6487  0.2905
 2250THY    HA456243   5.961   1.684   2.343  1.6303  0.2715  2.2601
 2250THY    CA556244   5.823   1.827   2.419 -0.5990  0.3598 -0.0447
 2250THY    CM156245   5.903   1.949   2.363  0.7511 -0.0128 -0.3709
 2250THY    HM156246   5.928   2.025   2.437 -2.1200  1.1491 -0.4847
 2250THY    HM256247   6.002   1.915   2.328  0.2705  1.5949 -3.5934
 2250THY    HM356248   5.859   2.006   2.281  1.1607 -0.0858 -0.6475
 2250THY    CA656249   5.707   1.843   2.493  0.5977  0.2690 -0.3576
 2250THY    HA656250   5.662   1.941   2.499  1.3702  0.5158  2.2718
 2251THY      O56251   6.920   9.080   7.872  0.1924  0.3140 -0.1613
 2251THY     HO56252   6.824   9.088   7.886  0.0952 -0.4120 -0.3943
 2251THY    CA156253   6.923   9.102   7.738  0.3133 -0.7705  0.1769
 2251THY    CA256254   7.025   9.164   7.668 -0.1500  0.7636 -0.2289
 2251THY    CP156255   7.167   9.170   7.739  0.6892  0.1186  0.4980
 2251THY    HP156256   7.154   9.129   7.840 -0.4248 -0.0554  0.2962
 2251THY    CP256257   7.264   9.072   7.665  0.2432 -0.7336  0.8973
 2251THY    HP256258   7.226   8.970   7.674  1.9556 -1.5481 -0.4102
 2251THY    HP356259   7.264   9.105   7.560 -0.3630  0.6389  1.2982
 2251THY    HP456260   7.366   9.074   7.704  0.9293 -0.8580 -0.7816
 2251THY    CP356261   7.224   9.314   7.745 -0.1294  0.2054 -0.0054
 2251THY    HP556262   7.249   9.354   7.646 -1.4379  0.2530 -0.3293
 2251THY    HP656263   7.163   9.387   7.799 -1.6205 -1.5660  0.7890
 2251THY    HP756264   7.316   9.315   7.805  0.6881  2.1734 -1.2111
 2251THY    CA356265   7.009   9.202   7.533 -0.0087 -0.1174 -0.3848
 2251THY    HA356266   7.092   9.243   7.478 -1.8222 -1.5156 -4.5279
 2251THY    CA456267   6.885   9.194   7.474 -0.1112  0.0193 -0.1693
 2251THY    HA456268   6.872   9.222   7.370  2.8495 -1.5078 -1.0777
 2251THY    CA556269   6.776   9.141   7.546 -0.1472  0.3388  0.5004
 2251THY    CM156270   6.649   9.104   7.478 -0.8880 -0.6239 -0.6504
 2251THY    HM156271   6.565   9.121   7.547 -1.4359  0.1032 -1.4642
 2251THY    HM256272   6.640   9.169   7.390 -0.5696  0.1415 -0.1368
 2251THY    HM356273   6.652   8.999   7.449 -1.3754 -0.7043 -0.4213
 2251THY    CA656274   6.798   9.093   7.675 -0.4885  0.0599 -0.1287
 2251THY    HA656275   6.716   9.045   7.728 -1.1376 -0.1579 -1.3115
 2252THY      O56276   2.957   8.143   9.397  0.1078  0.2493 -0.4471
 2252THY     HO56277   3.006   8.202   9.337  2.6287 -2.2363 -1.0048
 2252THY    CA156278   2.879   8.218   9.481 -0.3878  0.4838 -0.0451
 2252THY    CA256279   2.837   8.180   9.607  0.8139  0.3330 -0.6428
 2252THY    CP156280   2.875   8.046   9.659  0.2036  0.3350  0.4379
 2252THY    HP156281   2.955   8.001   9.599 -0.0933  0.1452  0.1871
 2252THY    CP256282   2.946   8.041   9.798  0.5735  0.2218  0.5626
 2252THY    HP256283   2.876   8.013   9.878  0.1559  1.6876  0.7428
 2252THY    HP356284   3.028   7.970   9.813  0.5149  0.1779  0.6851
 2252THY    HP456285   2.974   8.140   9.835 -0.1355  0.7875 -0.3692
 2252THY    CP356286   2.754   7.955   9.654  0.1535  0.1167  0.1179
 2252THY    HP556287   2.674   7.997   9.716 -0.9531 -0.5932 -0.7896
 2252THY    HP656288   2.714   7.929   9.556 -1.2908  3.1477 -0.2081
 2252THY    HP756289   2.776   7.862   9.708 -1.7351 -1.6345 -1.9413
 2252THY    CA356290   2.756   8.272   9.680  0.4273  0.0299 -0.0425
 2252THY    HA356291   2.711   8.253   9.777  1.7162 -2.0387  0.2098
 2252THY    CA456292   2.726   8.402   9.634 -0.5874  0.2715  0.2340
 2252THY    HA456293   2.675   8.469   9.703 -1.6385  1.1643 -1.3352
 2252THY    CA556294   2.770   8.436   9.507  0.2884  0.3970 -0.0367
 2252THY    CM156295   2.740   8.568   9.444  0.7488 -0.5390  0.2376
 2252THY    HM156296   2.803   8.648   9.484  0.7792 -0.5154  0.1423
 2252THY    HM256297   2.734   8.562   9.335 -1.8898  0.5538  0.2358
 2252THY    HM356298   2.642   8.607   9.476  0.1500 -1.1161 -0.8477
 2252THY    CA656299   2.856   8.352   9.433  0.4240 -0.4052 -0.1990
 2252THY    HA656300   2.884   8.375   9.330  1.4580  0.7819  0.3141
 2253THY      O56301   1.949   9.781   9.515 -0.0412  0.4393  0.7756
 2253THY     HO56302   1.978   9.817   9.429 -0.5509 -1.5687 -0.3136
 2253THY    CA156303   1.865   9.867   9.567  0.3295 -0.3471  0.7755
 2253THY    CA256304   1.784   9.830   9.676 -0.4906  0.4351  0.2830
 2253THY    CP156305   1.811   9.700   9.748 -0.4212  0.7897 -0.0432
 2253THY    HP156306   1.839   9.615   9.684 -2.8335 -1.5403  1.7602
 2253THY    CP256307   1.921   9.713   9.851  0.2081 -0.6750 -0.4890
 2253THY    HP256308   2.018   9.716   9.801  0.4854 -3.1719 -0.2012
 2253THY    HP356309   1.903   9.818   9.877 -0.4818 -0.3902 -2.0262
 2253THY    HP456310   1.918   9.645   9.937  0.7027 -0.6714 -0.4666
 2253THY    CP356311   1.693   9.635   9.815 -0.1173  0.8025 -0.5110
 2253THY    HP556312   1.690   9.662   9.922 -1.2567  2.3512 -0.8960
 2253THY    HP656313   1.593   9.670   9.785 -0.8273 -0.6649  0.0568
 2253THY    HP756314   1.692   9.526   9.804  1.6722  0.8336 -1.2026
 2253THY    CA356315   1.686   9.923   9.720  0.0839 -0.0575  0.2458
 2253THY    HA356316   1.619   9.908   9.804 -1.4630 -1.4052 -1.1672
 2253THY    CA456317   1.666  10.046   9.654 -0.7071  0.6908 -0.5126
 2253THY    HA456318   1.598  10.118   9.697 -0.3565 -0.7445  2.7966
 2253THY    CA556319   1.742  10.074   9.539  0.0504  0.3029 -0.7050
 2253THY    CM156320   1.713  10.206   9.475 -0.2585 -0.3044  0.0615
 2253THY    HM156321   1.761  10.288   9.529 -1.2060  1.0897 -1.1660
 2253THY    HM256322   1.750  10.201   9.372  1.9210 -1.5666  0.8342
 2253THY    HM356323   1.604  10.216   9.476 -0.1993  0.4641  1.7201
 2253THY    CA656324   1.836   9.982   9.488 -0.2884  0.4894 -0.6325
 2253THY    HA656325   1.894  10.007   9.400 -1.1829 -2.3693 -2.1839
 2254THY      O56326   2.339   8.062   4.539 -0.1552 -0.7657  0.5523
 2254THY     HO56327   2.408   8.057   4.608  0.8668  1.0306 -0.2739
 2254THY    CA156328   2.280   7.946   4.522 -0.6196  1.3681  0.6132
 2254THY    CA256329   2.185   7.918   4.418  0.1846  0.1439  0.1273
 2254THY    CP156330   2.130   8.030   4.322  0.1604  0.1020 -0.3779
 2254THY    HP156331   2.190   8.121   4.334  1.4745 -0.3535 -2.7926
 2254THY    CP256332   2.144   7.986   4.176  0.5589 -0.2007 -0.5486
 2254THY    HP256333   2.136   8.076   4.115 -2.3473 -1.4348 -2.2028
 2254THY    HP356334   2.235   7.927   4.162 -0.1159 -1.5254  0.3995
 2254THY    HP456335   2.063   7.921   4.138 -0.1227  0.8757 -0.9855
 2254THY    CP356336   1.980   8.062   4.350 -0.3724 -0.1160 -0.2389
 2254THY    HP556337   1.962   8.099   4.452 -0.0518  2.1718 -0.9410
 2254THY    HP656338   1.947   8.140   4.279  2.0983 -0.1760 -1.5775
 2254THY    HP756339   1.919   7.973   4.329 -1.6774  1.2862 -2.9516
 2254THY    CA356340   2.152   7.781   4.399  0.4208 -0.1177  0.0526
 2254THY    HA356341   2.095   7.742   4.315  1.2008 -2.7450  0.6463
 2254THY    CA456342   2.196   7.687   4.487  0.4116  0.5189 -0.0025
 2254THY    HA456343   2.150   7.589   4.484 -0.8557  1.0297  1.3781
 2254THY    CA556344   2.286   7.717   4.593 -0.0176  0.6156  0.0027
 2254THY    CM156345   2.338   7.617   4.693  0.6344  0.1620  0.8849
 2254THY    HM156346   2.430   7.654   4.739  0.1152  1.6738  0.7810
 2254THY    HM256347   2.270   7.589   4.775  0.0293 -0.8734  0.0473
 2254THY    HM356348   2.367   7.529   4.635  1.0980  1.5345 -1.0515
 2254THY    CA656349   2.332   7.848   4.601 -0.3002 -0.1016  0.1830
 2254THY    HA656350   2.400   7.868   4.684 -0.7898 -1.6138  0.9884
 2255THY      O56351   8.332   5.268   0.714  0.5799  0.1525  0.1004
 2255THY     HO56352   8.245   5.250   0.754  0.1686  2.8322  0.6122
 2255THY    CA156353   8.411   5.298   0.823  0.3856 -0.2953  0.0458
 2255THY    CA256354   8.535   5.355   0.816  0.1979  0.6961 -0.4659
 2255THY    CP156355   8.598   5.396   0.686  0.0029 -0.2533  0.4866
 2255THY    HP156356   8.525   5.442   0.618 -0.1202 -1.6564 -0.3635
 2255THY    CP256357   8.715   5.496   0.696 -0.2641 -0.2175  0.4205
 2255THY    HP256358   8.807   5.456   0.740 -0.5203  0.2483  1.3995
 2255THY    HP356359   8.738   5.546   0.601 -0.2345 -0.4464  0.3078
 2255THY    HP456360   8.675   5.580   0.755 -1.4488 -0.8473  0.5429
 2255THY    CP356361   8.660   5.266   0.620  0.4974  0.0127 -1.0433
 2255THY    HP556362   8.741   5.225   0.682 -1.2384 -0.9029  0.7280
 2255THY    HP656363   8.575   5.199   0.606 -0.2824  0.6650  0.3071
 2255THY    HP756364   8.705   5.290   0.523 -0.4187 -0.8504 -1.6964
 2255THY    CA356365   8.611   5.367   0.939 -0.1655  0.6613 -0.3491
 2255THY    HA356366   8.711   5.408   0.937  0.6106 -1.1715 -0.9533
 2255THY    CA456367   8.552   5.325   1.062  0.1109  0.2761  0.7524
 2255THY    HA456368   8.591   5.350   1.160 -0.4684  0.0689  1.0437
 2255THY    CA556369   8.423   5.275   1.059 -0.9814  0.1274  0.1816
 2255THY    CM156370   8.355   5.237   1.189 -0.2336 -0.2280 -0.2237
 2255THY    HM156371   8.432   5.209   1.262 -1.8388 -0.0515  1.6207
 2255THY    HM256372   8.303   5.323   1.233  0.3707  0.4778 -0.8685
 2255THY    HM356373   8.284   5.154   1.190 -0.9607  0.2729  3.5335
 2255THY    CA656374   8.352   5.265   0.942 -0.5283  0.1303 -0.2365
 2255THY    HA656375   8.254   5.220   0.940 -0.6043  0.3068 -0.4620
 2256THY      O56376   6.530   7.989   7.581  0.5563 -0.2542 -0.2607
 2256THY     HO56377   6.598   7.976   7.649  1.3742 -1.8441 -1.3200
 2256THY    CA156378   6.474   7.866   7.558  0.4711 -0.1785 -0.3684
 2256THY    CA256379   6.399   7.853   7.444 -0.1787  0.7776 -0.1226
 2256THY    CP156380   6.388   7.974   7.343  0.3342  0.1161 -0.1289
 2256THY    HP156381   6.476   8.039   7.351 -0.7365  1.4422  1.6926
 2256THY    CP256382   6.346   7.931   7.201  0.1368 -0.4549  0.5225
 2256THY    HP256383   6.245   7.890   7.210  0.2537 -0.6555  0.9437
 2256THY    HP356384   6.345   8.026   7.145 -0.0215 -0.1378  1.0594
 2256THY    HP456385   6.419   7.871   7.146  2.5031  0.7238  2.1981
 2256THY    CP356386   6.274   8.064   7.403 -0.6021 -0.3981  0.4575
 2256THY    HP556387   6.283   8.091   7.510  0.4131  2.0362 -0.1595
 2256THY    HP656388   6.281   8.160   7.350 -2.1990 -0.2685  0.4455
 2256THY    HP756389   6.169   8.035   7.392 -0.5655  0.1125 -1.4450
 2256THY    CA356390   6.352   7.729   7.411 -0.1696 -0.4619 -0.0348
 2256THY    HA356391   6.290   7.717   7.322  0.0295 -1.5848 -0.0407
 2256THY    CA456392   6.364   7.621   7.509 -0.8387  0.2040  0.7484
 2256THY    HA456393   6.320   7.525   7.486  0.3088 -0.0644 -0.4826
 2256THY    CA556394   6.428   7.643   7.632 -0.0909 -0.0899  0.5103
 2256THY    CM156395   6.456   7.530   7.723 -0.2240 -0.1669 -0.2641
 2256THY    HM156396   6.438   7.546   7.830 -1.2205 -2.0781 -0.1170
 2256THY    HM256397   6.389   7.449   7.692 -1.1366  0.0459  1.0930
 2256THY    HM356398   6.559   7.497   7.707 -0.4707 -1.0314 -0.1225
 2256THY    CA656399   6.488   7.766   7.653  0.2288 -0.1222  0.6910
 2256THY    HA656400   6.547   7.789   7.741  0.9633  3.2175 -0.5089
 2257THY      O56401   2.723   1.907   1.081  0.0105 -0.5395 -0.9481
 2257THY     HO56402   2.687   1.849   1.011  0.6475 -1.4569 -0.5436
 2257THY    CA156403   2.613   1.942   1.154 -0.4946  0.0484 -0.1863
 2257THY    CA256404   2.612   1.928   1.292  0.2066 -0.1196 -0.1704
 2257THY    CP156405   2.737   1.883   1.366  0.0307  0.2732  0.6155
 2257THY    HP156406   2.812   1.842   1.297 -0.2817  1.0599 -0.2142
 2257THY    CP256407   2.812   1.996   1.441  0.4154 -0.8207 -0.6678
 2257THY    HP256408   2.917   1.975   1.462  0.4371  0.3865  0.5418
 2257THY    HP356409   2.804   2.089   1.382  1.9278 -0.0341  0.3169
 2257THY    HP456410   2.753   2.021   1.530  0.2069  1.2291 -1.3152
 2257THY    CP356411   2.709   1.766   1.464 -0.2831  0.1005 -0.7323
 2257THY    HP556412   2.803   1.711   1.480 -1.6197 -1.7687  1.1510
 2257THY    HP656413   2.660   1.777   1.561  1.0691 -3.4557  0.5362
 2257THY    HP756414   2.633   1.706   1.412 -0.2819  1.1581 -2.0277
 2257THY    CA356415   2.492   1.969   1.359 -0.1722  0.1904 -0.2927
 2257THY    HA356416   2.494   1.965   1.468  5.2556 -0.0543 -0.0904
 2257THY    CA456417   2.371   2.006   1.284 -0.2951  0.6964 -0.2192
 2257THY    HA456418   2.280   2.033   1.337 -0.6210 -1.2856  0.3162
 2257THY    CA556419   2.381   2.011   1.142 -0.2425 -0.2318 -0.0780
 2257THY    CM156420   2.255   2.037   1.073  0.2895 -0.8160  0.2757
 2257THY    HM156421   2.178   2.078   1.139 -0.8396 -0.6556 -1.0857
 2257THY    HM256422   2.265   2.114   0.996 -0.2564 -0.4527  0.5600
 2257THY    HM356423   2.213   1.943   1.035 -0.6883 -1.2887  2.3702
 2257THY    CA656424   2.499   1.972   1.077  0.0772 -0.4208  0.3306
 2257THY    HA656425   2.500   1.966   0.969  0.7334 -1.6274  0.3818
 2258THY      O56426   1.387   4.901   8.642 -0.0928 -0.3374 -0.2343
 2258THY     HO56427   1.293   4.878   8.628  0.1403  0.0372 -2.8730
 2258THY    CA156428   1.406   4.999   8.733  0.3540  0.7089 -0.5022
 2258THY    CA256429   1.537   5.044   8.774  0.0729 -0.3136 -0.6474
 2258THY    CP156430   1.662   4.977   8.728  0.6461 -0.9489 -0.3081
 2258THY    HP156431   1.631   4.873   8.712 -0.9159 -0.7992  1.3725
 2258THY    CP256432   1.737   5.059   8.613  0.1778 -0.1477 -0.0747
 2258THY    HP256433   1.840   5.026   8.597 -0.2666 -0.8983 -1.5869
 2258THY    HP356434   1.694   5.057   8.512  1.5332  1.7454 -0.7567
 2258THY    HP456435   1.735   5.167   8.634  0.2872  0.0468 -1.0167
 2258THY    CP356436   1.758   4.971   8.850 -0.2909  0.2926  0.2010
 2258THY    HP556437   1.725   4.898   8.925  0.1117 -2.0541 -1.7485
 2258THY    HP656438   1.852   4.934   8.807 -0.0890 -0.0369  0.9205
 2258THY    HP756439   1.783   5.066   8.898 -0.1748  0.1976  0.3302
 2258THY    CA356440   1.549   5.160   8.851  0.3782 -0.1888  0.1503
 2258THY    HA356441   1.639   5.217   8.873 -0.9409  2.1296 -0.0633
 2258THY    CA456442   1.431   5.217   8.905  0.0665 -0.1581  0.1260
 2258THY    HA456443   1.434   5.305   8.968  1.9922  0.0401 -0.1951
 2258THY    CA556444   1.303   5.178   8.861 -0.1686 -0.5298  0.0738
 2258THY    CM156445   1.181   5.251   8.902  0.2144  0.2274 -0.2201
 2258THY    HM156446   1.088   5.195   8.888  0.4786 -0.4457  0.5939
 2258THY    HM256447   1.184   5.277   9.008 -1.3395 -1.5273  0.2995
 2258THY    HM356448   1.159   5.342   8.845 -2.9336 -0.4580 -0.2730
 2258THY    CA656449   1.295   5.064   8.779 -0.1961  0.0238 -0.3132
 2258THY    HA656450   1.198   5.035   8.741  0.3966 -0.2808 -1.6674
 2259THY      O56451   0.666   8.043   7.717 -0.4548 -0.5590  0.4482
 2259THY     HO56452   0.639   8.069   7.627 -1.0207 -1.1397  0.4513
 2259THY    CA156453   0.740   8.145   7.776 -0.6912  0.4326  0.1938
 2259THY    CA256454   0.816   8.131   7.890  0.2359 -0.3066 -0.1434
 2259THY    CP156455   0.809   7.997   7.966  0.2393 -0.3621  0.2816
 2259THY    HP156456   0.749   7.921   7.915  1.0218 -0.3068 -0.7679
 2259THY    CP256457   0.951   7.934   7.973  0.3833 -0.5113 -0.9395
 2259THY    HP256458   0.995   7.945   7.873  0.2329 -1.6598 -1.1468
 2259THY    HP356459   1.015   7.986   8.045  1.8774 -1.3518 -1.6222
 2259THY    HP456460   0.945   7.832   8.012 -1.0691  0.3792  1.3651
 2259THY    CP356461   0.755   8.006   8.111 -0.3778 -0.3480 -0.5339
 2259THY    HP556462   0.824   8.071   8.166  0.2334 -0.1356 -1.5282
 2259THY    HP656463   0.650   8.038   8.112 -0.5506 -0.9135 -0.5328
 2259THY    HP756464   0.754   7.902   8.146 -0.2499 -0.2954 -0.3703
 2259THY    CA356465   0.882   8.245   7.942 -0.2012 -0.1334 -0.1062
 2259THY    HA356466   0.951   8.247   8.025  0.5564 -0.5363 -0.7173
 2259THY    CA456467   0.873   8.365   7.878 -0.0229 -0.5139 -0.4127
 2259THY    HA456468   0.927   8.447   7.924 -0.0600  0.0191 -1.3020
 2259THY    CA556469   0.809   8.374   7.752  0.0490 -0.4679 -0.0602
 2259THY    CM156470   0.798   8.500   7.681 -0.4020 -0.1816  0.0715
 2259THY    HM156471   0.710   8.507   7.616 -0.8247 -0.1196  0.6361
 2259THY    HM256472   0.802   8.591   7.742  1.2210  1.1037 -1.8277
 2259THY    HM356473   0.887   8.494   7.618 -0.9247 -1.0190 -0.6263
 2259THY    CA656474   0.741   8.259   7.704  0.2106 -0.0599  0.2599
 2259THY    HA656475   0.693   8.268   7.608  0.2562 -0.9087  0.1497
 2260THY      O56476   9.351   9.379   8.341  0.1638  0.3902  0.3649
 2260THY     HO56477   9.326   9.474   8.338 -0.8980  0.1757  1.4937
 2260THY    CA156478   9.281   9.300   8.263 -0.6464 -1.2496 -0.0293
 2260THY    CA256479   9.247   9.168   8.304  0.0007 -0.3081  0.5601
 2260THY    CP156480   9.286   9.121   8.441 -0.8673 -0.1862 -0.5100
 2260THY    HP156481   9.339   9.199   8.497 -1.6335  0.1097 -0.1903
 2260THY    CP256482   9.163   9.075   8.524 -0.2623  0.5223 -0.3694
 2260THY    HP256483   9.081   9.148   8.514 -0.3654  0.9093  2.5652
 2260THY    HP356484   9.128   8.976   8.493 -0.0565 -0.1720  1.5316
 2260THY    HP456485   9.191   9.073   8.630 -0.3518  1.9697 -0.2873
 2260THY    CP356486   9.385   9.004   8.427  0.2375 -0.2636  0.7231
 2260THY    HP556487   9.368   8.949   8.334 -0.9095  2.0203 -0.4977
 2260THY    HP656488   9.485   9.049   8.421 -0.1028  0.3768 -0.6213
 2260THY    HP756489   9.387   8.940   8.516 -1.1407 -1.4319 -0.0460
 2260THY    CA356490   9.157   9.097   8.220 -0.4884  0.2204  0.7049
 2260THY    HA356491   9.120   9.000   8.252  0.1490  0.0101  0.8093
 2260THY    CA456492   9.115   9.154   8.100  0.7241  0.0821 -0.1009
 2260THY    HA456493   9.048   9.099   8.034  1.3804  0.5418 -1.1726
 2260THY    CA556494   9.146   9.290   8.068 -0.2571  1.2090  0.9949
 2260THY    CM156495   9.090   9.365   7.948 -0.3369 -0.1628 -0.7571
 2260THY    HM156496   9.055   9.297   7.869 -0.2710  0.4822 -1.3513
 2260THY    HM256497   9.021   9.439   7.990  0.7914 -0.2011  1.2776
 2260THY    HM356498   9.166   9.421   7.893  0.1313 -0.7113 -0.6753
 2260THY    CA656499   9.232   9.358   8.149  0.1768  0.5671  0.2477
 2260THY    HA656500   9.270   9.456   8.123 -0.5686  1.0130  0.7953
 2261THY      O56501   7.202   2.232   5.307  0.6362 -0.0273  0.4657
 2261THY     HO56502   7.282   2.258   5.259  0.8639 -0.5872  0.5346
 2261THY    CA156503   7.178   2.102   5.280  0.3367 -0.2014  0.1504
 2261THY    CA256504   7.107   2.015   5.368  0.0498  0.0904  0.2430
 2261THY    CP156505   7.059   2.066   5.511 -0.3755  0.1705  0.3155
 2261THY    HP156506   7.036   2.173   5.505  0.2374  0.3638  1.2030
 2261THY    CP256507   6.930   2.001   5.566 -0.1761  0.3099 -0.1479
 2261THY    HP256508   6.841   2.029   5.509 -1.0481  0.5964  1.2987
 2261THY    HP356509   6.942   1.893   5.583 -0.6694  0.5056  1.6967
 2261THY    HP456510   6.905   2.043   5.664  1.9696  1.4033  0.0058
 2261THY    CP356511   7.177   2.049   5.618 -0.4857  0.1818 -0.2377
 2261THY    HP556512   7.270   2.085   5.573  1.0497 -0.4285  2.2316
 2261THY    HP656513   7.155   2.104   5.710  1.7470  0.5006  0.1625
 2261THY    HP756514   7.180   1.943   5.646 -0.3948  0.5717  1.3092
 2261THY    CA356515   7.075   1.889   5.324  0.0388 -0.8417 -0.3150
 2261THY    HA356516   7.028   1.823   5.395 -1.6154  1.1760  0.5610
 2261THY    CA456517   7.108   1.842   5.190  0.1085 -0.8792  0.1706
 2261THY    HA456518   7.085   1.742   5.153 -1.5092  0.0029 -1.3425
 2261THY    CA556519   7.175   1.925   5.108  0.6317 -0.5393 -1.0699
 2261THY    CM156520   7.216   1.878   4.966 -0.7065  0.3060 -0.2590
 2261THY    HM156521   7.139   1.802   4.945 -0.0293 -1.2539  2.3970
 2261THY    HM256522   7.198   1.955   4.891 -0.8003  0.2392 -0.3051
 2261THY    HM356523   7.317   1.837   4.955 -1.5303 -1.9127 -0.2240
 2261THY    CA656524   7.213   2.053   5.152 -0.1395  0.0370 -0.0690
 2261THY    HA656525   7.272   2.114   5.084 -0.0171  0.0973  0.0923
 2262THY      O56526   4.115   9.672   8.194 -0.0243  0.2237  0.0168
 2262THY     HO56527   4.134   9.605   8.126 -0.2437 -0.5269  0.6928
 2262THY    CA156528   4.231   9.704   8.253 -0.3533  0.0738  0.4997
 2262THY    CA256529   4.244   9.793   8.356  0.5677 -0.7313 -0.6563
 2262THY    CP156530   4.117   9.867   8.417  0.4402  0.1819 -0.3229
 2262THY    HP156531   4.036   9.856   8.344 -0.8235 -2.3365  1.3345
 2262THY    CP256532   4.084   9.797   8.556 -0.1129 -0.1592  0.4417
 2262THY    HP256533   4.005   9.721   8.550 -2.1554  1.4193  3.9038
 2262THY    HP356534   4.170   9.738   8.590 -1.5048 -1.7084  1.4429
 2262THY    HP456535   4.060   9.862   8.641 -0.5873  1.2157 -0.6983
 2262THY    CP356536   4.122  10.020   8.433  0.4397  0.0180 -0.3773
 2262THY    HP556537   4.137  10.070   8.337 -1.2144  1.0682 -0.1166
 2262THY    HP656538   4.025  10.054   8.471  1.2866  2.2558 -0.0182
 2262THY    HP756539   4.209  10.053   8.491  1.9960  0.2855 -2.7338
 2262THY    CA356540   4.371   9.811   8.415 -0.4718 -0.6985  0.6233
 2262THY    HA356541   4.388   9.878   8.499  3.3133 -1.8452  0.9548
 2262THY    CA456542   4.478   9.736   8.372  0.3450 -0.3950 -0.1904
 2262THY    HA456543   4.577   9.756   8.412 -0.3579 -0.7293  1.8402
 2262THY    CA556544   4.468   9.657   8.254  0.8171 -0.6101  0.2933
 2262THY    CM156545   4.590   9.596   8.190 -0.1015  0.3589 -0.3899
 2262THY    HM156546   4.622   9.646   8.098  1.7472 -0.4526 -0.2429
 2262THY    HM256547   4.668   9.585   8.267  1.9528 -2.2342 -2.6686
 2262THY    HM356548   4.563   9.493   8.163  2.4967 -0.1739 -1.2907
 2262THY    CA656549   4.342   9.638   8.201  0.3138 -0.4603  0.5209
 2262THY    HA656550   4.329   9.582   8.109 -1.4838 -1.9435  1.6162
 2263THY      O56551   8.983   8.527   3.896 -0.1493  0.2857 -0.3178
 2263THY     HO56552   8.968   8.438   3.861 -2.5220  0.6108 -0.3160
 2263THY    CA156553   8.859   8.573   3.940 -0.1891 -0.1546  0.3216
 2263THY    CA256554   8.848   8.668   4.035 -0.4074  0.1792 -1.0516
 2263THY    CP156555   8.975   8.748   4.066  0.2238 -0.2051  0.8232
 2263THY    HP156556   9.060   8.679   4.072 -0.3472 -0.8331  1.8174
 2263THY    CP256557   9.004   8.873   3.969 -0.5060 -0.2145 -0.0886
 2263THY    HP256558   9.071   8.953   4.001  1.1748 -0.7270 -2.0886
 2263THY    HP356559   9.042   8.825   3.878  1.6119  0.5448  0.3510
 2263THY    HP456560   8.905   8.920   3.957 -0.6453 -0.6117 -0.5605
 2263THY    CP356561   8.984   8.807   4.201 -0.3458  0.0404 -0.0601
 2263THY    HP556562   9.080   8.838   4.243 -0.8760  1.5036  0.1118
 2263THY    HP656563   8.912   8.889   4.215 -2.8996 -1.8435 -1.3090
 2263THY    HP756564   8.960   8.729   4.274 -0.8466 -0.5041 -0.7889
 2263THY    CA356565   8.726   8.701   4.093 -0.3067  0.5775 -0.1491
 2263THY    HA356566   8.713   8.788   4.157  1.2978 -0.5561  1.8232
 2263THY    CA456567   8.619   8.620   4.066  0.7187  0.0660 -0.3032
 2263THY    HA456568   8.528   8.631   4.125  0.8190  0.1699 -0.1690
 2263THY    CA556569   8.636   8.504   3.993  0.2199 -0.9025  0.2521
 2263THY    CM156570   8.512   8.419   3.958  0.4093 -0.3716  0.0395
 2263THY    HM156571   8.541   8.328   3.904 -0.8608  0.3093 -1.9077
 2263THY    HM256572   8.469   8.383   4.052  0.3254 -2.4055 -0.7388
 2263THY    HM356573   8.433   8.476   3.907 -0.3557 -1.3275  0.1409
 2263THY    CA656574   8.754   8.483   3.919 -0.4556  0.4559 -0.2266
 2263THY    HA656575   8.759   8.398   3.851  0.5757 -0.4324  0.9090
 2264THY      O56576   5.667   7.479   9.765  0.4600 -0.6896  0.0301
 2264THY     HO56577   5.619   7.430   9.834  0.6456 -2.9154 -1.3159
 2264THY    CA156578   5.575   7.469   9.664 -0.5005 -0.1548 -1.3402
 2264THY    CA256579   5.579   7.566   9.563 -0.0449  0.6407  0.3348
 2264THY    CP156580   5.702   7.662   9.560 -0.3879 -0.2838 -0.5619
 2264THY    HP156581   5.791   7.616   9.604 -1.1046 -0.9035  0.2837
 2264THY    CP256582   5.758   7.709   9.422  1.1772 -0.3889 -0.3638
 2264THY    HP256583   5.789   7.619   9.367  1.5613 -0.8459  0.5709
 2264THY    HP356584   5.674   7.752   9.367  0.6347 -1.0007 -0.0187
 2264THY    HP456585   5.831   7.791   9.431 -1.6293  2.0668  1.9578
 2264THY    CP356586   5.672   7.791   9.642 -0.1425  0.3875 -0.1132
 2264THY    HP556587   5.593   7.849   9.594  0.0631  1.3252  0.6312
 2264THY    HP656588   5.637   7.778   9.745  1.7462  2.3602  0.8791
 2264THY    HP756589   5.761   7.855   9.634  1.0966 -1.3749 -1.0373
 2264THY    CA356590   5.475   7.571   9.471  0.0332  0.0861 -0.0513
 2264THY    HA356591   5.470   7.643   9.390  0.2101  1.0729  0.7913
 2264THY    CA456592   5.366   7.479   9.490  0.8271 -0.2112  0.4060
 2264THY    HA456593   5.275   7.477   9.430  0.1101 -2.1796  1.4895
 2264THY    CA556594   5.375   7.385   9.589  1.2177 -0.4320  0.8251
 2264THY    CM156595   5.284   7.266   9.604  0.3458 -0.5258 -0.7699
 2264THY    HM156596   5.252   7.253   9.708  1.6559 -0.3254 -0.3290
 2264THY    HM256597   5.190   7.260   9.548  1.6721  0.2611 -3.2482
 2264THY    HM356598   5.333   7.171   9.581  1.2190  0.2273 -2.2082
 2264THY    CA656599   5.477   7.379   9.680 -0.0494  0.2047 -0.2337
 2264THY    HA656600   5.472   7.308   9.761  0.9196 -0.3859 -0.6673
 2265THY      O56601   2.849   4.742   7.501  0.6489  0.6314 -0.2907
 2265THY     HO56602   2.870   4.754   7.596  0.3939 -3.0181  0.3755
 2265THY    CA156603   2.906   4.623   7.467 -0.6298 -0.0292 -0.4365
 2265THY    CA256604   2.908   4.566   7.339  0.3164 -0.2384 -0.8623
 2265THY    CP156605   2.833   4.631   7.231  0.4448  0.9287 -0.2996
 2265THY    HP156606   2.734   4.662   7.265  0.6915  0.6468  0.6928
 2265THY    CP256607   2.913   4.752   7.184 -0.5302 -0.2997 -0.0058
 2265THY    HP256608   2.900   4.828   7.262 -0.4733  2.2671 -2.3523
 2265THY    HP356609   3.019   4.739   7.160 -0.4227  1.6129 -0.7150
 2265THY    HP456610   2.857   4.793   7.099  1.1962 -1.4651 -1.7693
 2265THY    CP356611   2.801   4.543   7.108 -0.6794 -0.1151  0.2054
 2265THY    HP556612   2.893   4.510   7.058 -0.8039 -0.3453  0.1291
 2265THY    HP656613   2.736   4.464   7.145 -0.6829  0.0594  0.5789
 2265THY    HP756614   2.752   4.611   7.038  3.5253  1.2567 -1.7504
 2265THY    CA356615   2.992   4.458   7.318 -0.1657  0.7492  0.3787
 2265THY    HA356616   3.008   4.406   7.224  3.4628 -2.7702  2.6461
 2265THY    CA456617   3.065   4.397   7.429  0.2343  0.2773  0.7727
 2265THY    HA456618   3.122   4.304   7.427 -1.9979 -1.1848  1.7519
 2265THY    CA556619   3.062   4.459   7.552  0.6518  0.0852 -0.1689
 2265THY    CM156620   3.131   4.401   7.671  0.3792 -0.0426 -0.0941
 2265THY    HM156621   3.165   4.478   7.742  0.3976 -1.0356  0.9931
 2265THY    HM256622   3.055   4.349   7.730  0.8961 -2.1976 -1.2276
 2265THY    HM356623   3.215   4.333   7.650 -0.6361 -1.7130  1.0297
 2265THY    CA656624   2.976   4.565   7.576  0.2207  0.1299  0.8345
 2265THY    HA656625   2.968   4.604   7.677 -1.7674 -0.2764  0.8640
 2266THY      O56626   4.629   1.590   8.482 -1.0132  0.5073 -0.1968
 2266THY     HO56627   4.598   1.615   8.571 -2.8029 -0.1289 -0.5910
 2266THY    CA156628   4.767   1.598   8.479 -0.5525 -0.6320  0.3269
 2266THY    CA256629   4.839   1.592   8.358 -0.1068 -0.0848 -0.0214
 2266THY    CP156630   4.761   1.569   8.227  0.3169 -0.5246 -0.8204
 2266THY    HP156631   4.656   1.547   8.251  0.3214 -1.8568 -1.9147
 2266THY    CP256632   4.773   1.697   8.139  0.1365  0.0871 -0.1462
 2266THY    HP256633   4.877   1.725   8.119  0.7748 -0.5375  2.0170
 2266THY    HP356634   4.713   1.684   8.049  1.4079 -4.1260 -0.6008
 2266THY    HP456635   4.726   1.776   8.199 -0.7121 -1.4599  1.3249
 2266THY    CP356636   4.825   1.453   8.162  0.2770  0.4789  0.3243
 2266THY    HP556637   4.848   1.371   8.230 -1.4512  0.9473  1.5337
 2266THY    HP656638   4.774   1.414   8.074  2.4002  1.3921 -1.4238
 2266THY    HP756639   4.930   1.474   8.138  0.5231  1.3345  1.9662
 2266THY    CA356640   4.983   1.603   8.358 -0.4755 -0.1535  0.0137
 2266THY    HA356641   5.045   1.591   8.270  0.7551  1.0277  0.6836
 2266THY    CA456642   5.048   1.630   8.480 -1.1065  0.1456  0.3633
 2266THY    HA456643   5.156   1.639   8.484 -0.8484 -2.4353  1.1802
 2266THY    CA556644   4.971   1.642   8.595  0.0274  0.1060  0.2373
 2266THY    CM156645   5.041   1.696   8.721 -0.3162  0.1907  0.0018
 2266THY    HM156646   4.982   1.665   8.808  1.1521 -0.2767  0.8614
 2266THY    HM256647   5.137   1.648   8.743 -0.3975  0.3822  0.7999
 2266THY    HM356648   5.050   1.804   8.732  1.0883  0.0497  0.3584
 2266THY    CA656649   4.834   1.628   8.596  0.2766 -0.1626  0.6274
 2266THY    HA656650   4.771   1.630   8.684  1.0345 -1.0164  1.1970
 2267THY      O56651   8.471   5.291   5.991  0.0428  0.3362 -0.7878
 2267THY     HO56652   8.513   5.209   6.022 -0.1683 -0.3542 -2.2466
 2267THY    CA156653   8.461   5.263   5.857 -0.0990  0.4986 -0.1123
 2267THY    CA256654   8.360   5.318   5.773  0.9734 -0.5052 -0.3004
 2267THY    CP156655   8.266   5.424   5.840 -0.0619  0.2348 -0.5716
 2267THY    HP156656   8.300   5.463   5.936  0.5589 -1.8715  0.1073
 2267THY    CP256657   8.250   5.551   5.755 -0.8264  0.3132 -0.0209
 2267THY    HP256658   8.176   5.622   5.794 -0.7326 -0.1901  1.1160
 2267THY    HP356659   8.337   5.613   5.734 -0.2064 -1.1956 -2.2600
 2267THY    HP456660   8.210   5.525   5.656  2.8251  1.8208 -2.0683
 2267THY    CP356661   8.124   5.370   5.852  0.2939 -0.0583 -1.0676
 2267THY    HP556662   8.056   5.410   5.776  1.3288 -0.4514 -2.2305
 2267THY    HP656663   8.130   5.261   5.850 -0.6822 -0.2001  1.0288
 2267THY    HP756664   8.081   5.401   5.948  0.2088  1.3440 -1.5396
 2267THY    CA356665   8.345   5.272   5.644 -0.4151 -0.0868 -0.1916
 2267THY    HA356666   8.267   5.317   5.583 -1.2385 -1.1192  0.0628
 2267THY    CA456667   8.442   5.177   5.592 -0.2382  0.0314  0.1924
 2267THY    HA456668   8.431   5.142   5.490  0.9383  0.3587 -0.0508
 2267THY    CA556669   8.544   5.132   5.681 -0.6475  0.6662  0.5556
 2267THY    CM156670   8.648   5.032   5.633  0.3598 -0.0732 -0.7627
 2267THY    HM156671   8.746   5.076   5.610  1.0825 -1.4708 -0.5028
 2267THY    HM256672   8.666   4.960   5.714 -1.7960  1.4668  1.2058
 2267THY    HM356673   8.604   4.971   5.553  2.9270 -0.6409 -1.8615
 2267THY    CA656674   8.547   5.170   5.811  0.9257 -0.5221 -0.2942
 2267THY    HA656675   8.624   5.123   5.870  2.3931  1.9481 -0.1135
 2268THY      O56676   6.360   4.383   8.786 -0.0087  0.2629 -0.0200
 2268THY     HO56677   6.407   4.467   8.801  0.3123  0.0048  0.4531
 2268THY    CA156678   6.257   4.396   8.700 -0.9336  0.0447  0.3881
 2268THY    CA256679   6.200   4.287   8.641  0.0886 -0.1373  0.1874
 2268THY    CP156680   6.262   4.145   8.665  0.0332  0.3601 -0.0759
 2268THY    HP156681   6.354   4.156   8.724 -0.2974  1.2182  0.2909
 2268THY    CP256682   6.169   4.043   8.731 -0.6162  0.2872 -0.5306
 2268THY    HP256683   6.126   4.084   8.823  0.8182  0.8715 -0.0833
 2268THY    HP356684   6.091   3.995   8.671 -0.9968  0.2897 -0.0447
 2268THY    HP456685   6.235   3.959   8.755  0.7914  1.6774  0.7339
 2268THY    CP356686   6.308   4.088   8.531 -0.3557  0.7924  0.1616
 2268THY    HP556687   6.383   4.150   8.480  0.6850  0.3908  1.1730
 2268THY    HP656688   6.347   3.991   8.565 -0.0988  0.7593 -0.2160
 2268THY    HP756689   6.220   4.068   8.469  0.9842 -0.5265 -1.4359
 2268THY    CA356690   6.085   4.305   8.559 -0.8065  0.0413 -0.0040
 2268THY    HA356691   6.027   4.225   8.514 -0.0490 -0.0201 -0.9003
 2268THY    CA456692   6.044   4.440   8.537 -0.2558  0.2978 -0.7614
 2268THY    HA456693   5.961   4.472   8.474 -0.2808  3.1766  0.5662
 2268THY    CA556694   6.109   4.549   8.602 -0.7626  0.1514 -0.1201
 2268THY    CM156695   6.063   4.684   8.577 -0.8448 -0.5406  0.8160
 2268THY    HM156696   6.146   4.752   8.557 -0.4488 -1.7053 -2.1710
 2268THY    HM256697   6.007   4.686   8.482 -0.0489  1.9802  0.3253
 2268THY    HM356698   6.006   4.732   8.657 -0.8096  2.1206 -0.6484
 2268THY    CA656699   6.216   4.523   8.682  0.2283 -0.2229 -0.0407
 2268THY    HA656700   6.270   4.608   8.724  1.3152 -0.5358 -0.7546
 2269THY      O56701   7.434   0.231   9.947  0.1583  0.3595 -0.1232
 2269THY     HO56702   7.382   0.299   9.901  2.3234  2.9808  1.0325
 2269THY    CA156703   7.365   0.209  10.061  0.2337  0.1714 -0.7021
 2269THY    CA256704   7.422   0.189  10.186 -0.6796 -0.7192  0.3751
 2269THY    CP156705   7.569   0.166  10.196 -0.6946  0.4811  0.8230
 2269THY    HP156706   7.612   0.239  10.126  1.6827 -2.5777 -1.2206
 2269THY    CP256707   7.629   0.196  10.338  0.2504  0.2976  0.0819
 2269THY    HP256708   7.610   0.299  10.368  2.6311  0.9928 -0.5332
 2269THY    HP356709   7.593   0.134  10.421  3.2815  0.5598  1.7616
 2269THY    HP456710   7.738   0.186  10.346  0.2510 -0.3837 -0.6497
 2269THY    CP356711   7.631   0.032  10.151 -0.8025 -0.3962 -0.3660
 2269THY    HP556712   7.563  -0.022  10.083  1.7674 -0.4377 -3.1232
 2269THY    HP656713   7.724   0.057  10.099  1.2349  1.0405  3.5908
 2269THY    HP756714   7.646  -0.046  10.226  0.2327 -0.0927 -0.2527
 2269THY    CA356715   7.347   0.165  10.295  0.3064  0.0103  0.0808
 2269THY    HA356716   7.391   0.153  10.394 -1.1733 -2.1211  0.5468
 2269THY    CA456717   7.207   0.175  10.281  0.4065  0.5039 -0.1461
 2269THY    HA456718   7.145   0.174  10.370  2.1650  0.6683  1.1253
 2269THY    CA556719   7.149   0.189  10.155  0.0125 -0.0156 -0.2311
 2269THY    CM156720   6.996   0.195  10.138 -0.5284  0.1762  0.8131
 2269THY    HM156721   6.956   0.286  10.182  0.0026  1.6242 -1.5049
 2269THY    HM256722   6.958   0.190  10.035 -3.1765 -1.7667  1.7599
 2269THY    HM356723   6.956   0.106  10.188 -2.2739  0.6024  0.2610
 2269THY    CA656724   7.228   0.212  10.048  0.3480  0.7123  0.2876
 2269THY    HA656725   7.170   0.221   9.957 -1.5340  0.1761  1.3944
 2270THY      O56726   3.312   1.851   8.685  0.0306  0.6739 -0.5501
 2270THY     HO56727   3.327   1.793   8.763  0.2130  0.8729 -0.4355
 2270THY    CA156728   3.183   1.869   8.687 -0.1711  0.2651 -0.7792
 2270THY    CA256729   3.123   1.994   8.668  0.3431 -0.4337  0.4128
 2270THY    CP156730   3.205   2.115   8.631  0.3307 -0.1011 -0.0472
 2270THY    HP156731   3.301   2.074   8.596  1.4642  0.4406  2.2336
 2270THY    CP256732   3.154   2.179   8.507  0.2273 -0.0650  0.3832
 2270THY    HP256733   3.155   2.126   8.411 -1.0819  2.2145 -0.9674
 2270THY    HP356734   3.065   2.239   8.526 -0.6700  0.2289 -3.7233
 2270THY    HP456735   3.236   2.251   8.498  1.9570 -1.7583  1.6670
 2270THY    CP356736   3.232   2.217   8.737  0.3275 -0.2740 -0.9391
 2270THY    HP556737   3.294   2.300   8.700  0.7679 -0.7511 -1.2825
 2270THY    HP656738   3.135   2.257   8.770 -0.3329 -2.7179  0.2721
 2270THY    HP756739   3.277   2.165   8.822 -1.3179 -1.2808 -0.6555
 2270THY    CA356740   2.982   2.000   8.664  0.2597 -0.0685  0.0546
 2270THY    HA356741   2.926   2.091   8.644 -0.6907 -0.9191 -1.3080
 2270THY    CA456742   2.905   1.889   8.695  0.1392  0.3888 -0.0108
 2270THY    HA456743   2.796   1.893   8.692  0.0314 -0.8109  1.2669
 2270THY    CA556744   2.966   1.767   8.723  0.2147  0.8643  0.0786
 2270THY    CM156745   2.876   1.655   8.768 -1.3263 -0.3889 -0.1128
 2270THY    HM156746   2.909   1.624   8.868  2.2470  0.7297 -0.7859
 2270THY    HM256747   2.771   1.685   8.773 -1.3475 -0.4688 -0.0794
 2270THY    HM356748   2.894   1.560   8.716 -0.4597 -0.2169 -0.1523
 2270THY    CA656749   3.106   1.754   8.707 -0.2598  0.4710  0.1800
 2270THY    HA656750   3.150   1.655   8.718 -1.5800 -0.1301  0.1972
 2271THY      O56751   3.565   8.527   0.078 -0.6608  0.0149 -0.2097
 2271THY     HO56752   3.653   8.544   0.039 -0.1008 -0.0628  0.9767
 2271THY    CA156753   3.563   8.400   0.115 -0.1249 -0.0966 -0.3695
 2271THY    CA256754   3.504   8.361   0.232  0.3310  0.0398  0.3664
 2271THY    CP156755   3.420   8.461   0.311 -0.4802 -0.0045  0.1434
 2271THY    HP156756   3.379   8.524   0.231  0.1627  0.0151 -0.1801
 2271THY    CP256757   3.297   8.408   0.386 -0.2977 -0.1328 -0.0220
 2271THY    HP256758   3.319   8.366   0.485  0.1171 -2.3286 -0.9867
 2271THY    HP356759   3.230   8.494   0.394 -0.8978 -0.5711 -0.2411
 2271THY    HP456760   3.244   8.321   0.346 -1.5281  0.1812  0.8703
 2271THY    CP356761   3.502   8.555   0.400 -0.5621 -1.0333  0.4164
 2271THY    HP556762   3.550   8.494   0.477 -0.1328  1.7575  2.4842
 2271THY    HP656763   3.570   8.608   0.332 -2.3405  0.0474 -0.6111
 2271THY    HP756764   3.432   8.623   0.448  0.2041  0.6165 -0.6949
 2271THY    CA356765   3.530   8.227   0.274 -0.4195  0.0260  0.0323
 2271THY    HA356766   3.491   8.191   0.370  0.4568 -0.6424  0.1442
 2271THY    CA456767   3.611   8.146   0.201 -1.0668 -0.2056 -0.0567
 2271THY    HA456768   3.630   8.044   0.234  0.1094  0.1757  0.4953
 2271THY    CA556769   3.670   8.190   0.081 -0.3235 -0.3430 -0.0635
 2271THY    CM156770   3.755   8.096   0.011 -0.0121  0.7604 -0.0569
 2271THY    HM156771   3.820   8.034   0.073  0.8184 -0.2694 -1.8819
 2271THY    HM256772   3.693   8.027  -0.046  0.7005  0.2139 -0.1833
 2271THY    HM356773   3.816   8.147  -0.065 -1.7332  3.3138  0.1446
 2271THY    CA656774   3.644   8.317   0.038 -0.1833  0.2517 -0.1919
 2271THY    HA656775   3.693   8.361  -0.049 -0.5901  0.9568 -0.0716
 2272THY      O56776   2.959   7.363   4.834 -0.0097  0.1306 -0.7717
 2272THY     HO56777   2.957   7.331   4.926  2.6456 -0.8165 -0.9514
 2272THY    CA156778   2.896   7.272   4.759  1.3806 -0.0205 -0.1645
 2272THY    CA256779   2.933   7.251   4.622  0.5252 -0.1513 -0.2513
 2272THY    CP156780   3.046   7.338   4.570 -0.0647 -0.0694  1.0129
 2272THY    HP156781   3.044   7.442   4.604 -2.4614  0.5467 -0.7114
 2272THY    CP256782   3.174   7.266   4.613  0.7313 -0.5105  0.3782
 2272THY    HP256783   3.175   7.247   4.721 -0.3956 -0.2550  0.4469
 2272THY    HP356784   3.170   7.170   4.560 -0.6406  0.2486 -0.9972
 2272THY    HP456785   3.260   7.327   4.582 -0.4995  0.0445 -2.2747
 2272THY    CP356786   3.043   7.348   4.416 -0.3587 -0.5876  0.1239
 2272THY    HP556787   3.077   7.444   4.377 -1.1421 -0.7336 -0.9804
 2272THY    HP656788   3.118   7.275   4.383  0.1740 -0.0396  0.1088
 2272THY    HP756789   2.943   7.331   4.375 -1.2038 -0.0199  1.8553
 2272THY    CA356790   2.880   7.142   4.555  0.1497 -0.4800  0.5624
 2272THY    HA356791   2.921   7.118   4.457 -0.1823 -0.3260  0.3816
 2272THY    CA456792   2.778   7.064   4.618  0.2184 -0.5880 -0.5757
 2272THY    HA456793   2.738   6.973   4.575 -0.3971 -1.3455  1.4821
 2272THY    CA556794   2.740   7.091   4.748  0.7995  0.2805 -0.4949
 2272THY    CM156795   2.642   7.002   4.805 -0.2073 -0.3543 -0.8325
 2272THY    HM156796   2.573   6.965   4.728 -1.5069  2.0351 -0.9069
 2272THY    HM256797   2.688   6.919   4.860 -1.0151  0.7129  1.5489
 2272THY    HM356798   2.581   7.066   4.869 -1.0666 -0.5664 -1.4219
 2272THY    CA656799   2.797   7.195   4.819 -0.0611 -0.6800  0.3200
 2272THY    HA656800   2.774   7.203   4.925  1.8601 -1.0273  0.8211
 2273THY      O56801   7.707   2.207   8.016 -0.5415 -0.4111  0.7076
 2273THY     HO56802   7.761   2.272   8.065  2.8071 -0.6058 -2.3169
 2273THY    CA156803   7.793   2.154   7.926  0.1414  0.2213 -0.2506
 2273THY    CA256804   7.745   2.105   7.800 -1.3469 -0.4621  0.9634
 2273THY    CP156805   7.595   2.111   7.774 -0.0188 -0.1330 -0.1721
 2273THY    HP156806   7.531   2.133   7.860 -2.0898 -2.3974 -1.0128
 2273THY    CP256807   7.552   2.215   7.662  0.3845 -0.3893  0.0500
 2273THY    HP256808   7.601   2.185   7.569  0.0767 -3.1699  0.7062
 2273THY    HP356809   7.446   2.215   7.633  0.7503  0.1736 -1.3702
 2273THY    HP456810   7.582   2.317   7.688 -0.3688 -0.0537 -0.3554
 2273THY    CP356811   7.538   1.972   7.737  0.8608 -0.0103 -0.3476
 2273THY    HP556812   7.563   1.889   7.804 -1.6922 -1.6240 -1.2412
 2273THY    HP656813   7.429   1.977   7.736  0.8584  0.0483  0.0756
 2273THY    HP756814   7.580   1.933   7.643 -1.5464 -1.1630 -1.0312
 2273THY    CA356815   7.840   2.050   7.712  0.5622  1.1164 -0.7944
 2273THY    HA356816   7.819   2.017   7.611 -2.1013  0.5944 -0.1281
 2273THY    CA456817   7.978   2.069   7.738  0.2898  0.5145 -0.6176
 2273THY    HA456818   8.048   2.037   7.662  1.7187 -0.6961  1.1113
 2273THY    CA556819   8.021   2.116   7.861 -0.5701 -0.3702 -0.2530
 2273THY    CM156820   8.163   2.126   7.903  0.1013  0.4439  0.0340
 2273THY    HM156821   8.174   2.224   7.951 -0.4055  0.0316  1.0064
 2273THY    HM256822   8.183   2.063   7.990  0.5839 -0.2322 -0.5466
 2273THY    HM356823   8.235   2.106   7.823 -0.2341 -0.8799  0.0331
 2273THY    CA656824   7.926   2.161   7.949 -0.1289  0.2596 -0.1803
 2273THY    HA656825   7.959   2.218   8.035  0.5054 -0.6783  0.2180
 2274THY      O56826   4.848   1.744   3.221 -0.1897 -0.4076  0.3524
 2274THY     HO56827   4.856   1.676   3.289  1.3725  0.2022  0.8239
 2274THY    CA156828   4.969   1.798   3.193 -0.0472 -0.1261 -0.0293
 2274THY    CA256829   5.004   1.839   3.063  0.0828  1.1091 -0.1102
 2274THY    CP156830   4.899   1.842   2.954  0.4696  0.9197  0.5243
 2274THY    HP156831   4.819   1.770   2.973 -0.4317  2.3046  2.2141
 2274THY    CP256832   4.817   1.976   2.951  0.2477 -0.6712 -0.1624
 2274THY    HP256833   4.760   1.988   2.858 -0.4870  1.6015  0.5217
 2274THY    HP356834   4.740   1.994   3.027  0.9311  0.7931  0.1941
 2274THY    HP456835   4.886   2.060   2.942 -1.1867  0.4177 -1.5462
 2274THY    CP356836   4.949   1.811   2.809  0.2489 -0.2154 -0.2160
 2274THY    HP556837   5.029   1.737   2.801  1.8466  1.5213 -0.9723
 2274THY    HP656838   4.860   1.787   2.749 -0.9950  1.0489  1.0206
 2274THY    HP756839   4.989   1.906   2.772 -0.2114 -0.1596 -0.5768
 2274THY    CA356840   5.134   1.891   3.046 -0.2211  0.1746 -0.6213
 2274THY    HA356841   5.165   1.917   2.945 -2.3866  0.2226 -1.3129
 2274THY    CA456842   5.227   1.887   3.151  0.5369  0.0694 -0.1590
 2274THY    HA456843   5.332   1.909   3.132  0.1578  1.5038 -0.7885
 2274THY    CA556844   5.186   1.847   3.277 -0.4439 -0.2364  0.0673
 2274THY    CM156845   5.294   1.842   3.381 -0.0147  0.3151  0.9351
 2274THY    HM156846   5.363   1.923   3.357  0.2345 -0.3008 -0.5429
 2274THY    HM256847   5.258   1.856   3.484 -0.0388  0.1653  0.9475
 2274THY    HM356848   5.351   1.749   3.369 -0.6646  0.2314 -2.4604
 2274THY    CA656849   5.057   1.806   3.304 -0.0801 -1.1095  0.3895
 2274THY    HA656850   5.033   1.766   3.402 -1.0880 -0.3176  0.4776
 2275THY      O56851   2.090   9.644   7.812  0.5093  0.1088 -0.1468
 2275THY     HO56852   2.132   9.723   7.775  0.7920 -0.2131 -0.5157
 2275THY    CA156853   2.024   9.703   7.919 -0.5550 -0.0607 -0.1911
 2275THY    CA256854   1.969   9.628   8.025  0.3599  1.2071 -0.0466
 2275THY    CP156855   1.967   9.479   8.010 -0.6929 -0.3034 -0.2549
 2275THY    HP156856   1.954   9.452   7.905 -0.0300 -0.3422 -0.3286
 2275THY    CP256857   2.100   9.423   8.051 -0.2346  0.7207  0.5641
 2275THY    HP256858   2.184   9.473   8.001  0.0339 -0.8451 -0.6045
 2275THY    HP356859   2.114   9.455   8.155 -1.9093  1.1214  0.7068
 2275THY    HP456860   2.117   9.315   8.057  2.5378  1.0739  0.4222
 2275THY    CP356861   1.871   9.408   8.100 -0.0876  0.0613 -0.0832
 2275THY    HP556862   1.875   9.299   8.089 -0.1178  0.0644 -0.1267
 2275THY    HP656863   1.889   9.426   8.207 -0.2143 -2.5729  0.4489
 2275THY    HP756864   1.764   9.427   8.080 -0.4705  0.2472  1.9353
 2275THY    CA356865   1.937   9.694   8.143  0.4854 -0.4829 -0.6385
 2275THY    HA356866   1.900   9.640   8.230 -0.9858  1.0958 -0.2203
 2275THY    CA456867   1.945   9.832   8.150 -0.1093  0.7128  0.5057
 2275THY    HA456868   1.917   9.887   8.239 -1.3103  0.5091  0.2636
 2275THY    CA556869   1.992   9.905   8.046  0.4081 -0.6509 -0.6815
 2275THY    CM156870   1.980  10.053   8.061 -0.2188 -0.1191  0.2723
 2275THY    HM156871   1.942  10.084   7.963  0.4742 -1.2741 -0.3885
 2275THY    HM256872   1.906  10.086   8.135  1.5659  0.3596  1.9112
 2275THY    HM356873   2.076  10.104   8.074 -0.0591  0.3784 -2.3642
 2275THY    CA656874   2.039   9.844   7.928 -0.1540  0.3461  0.3416
 2275THY    HA656875   2.094   9.902   7.855  1.6046 -0.5864  0.8490
 2276THY      O56876   3.189   8.522   6.918 -0.2291 -0.1002  1.0647
 2276THY     HO56877   3.280   8.544   6.891 -0.1648 -1.2606  0.2371
 2276THY    CA156878   3.115   8.639   6.912  0.6012  0.3652  0.2527
 2276THY    CA256879   2.981   8.629   6.956  0.3414 -0.3641 -0.2807
 2276THY    CP156880   2.912   8.498   7.002 -0.1069 -0.0034 -0.3559
 2276THY    HP156881   2.979   8.412   7.008 -0.8588 -0.6183 -0.5908
 2276THY    CP256882   2.839   8.512   7.148  0.0820 -0.1692  0.1118
 2276THY    HP256883   2.753   8.579   7.142  1.4447  1.8787  1.8075
 2276THY    HP356884   2.802   8.419   7.192  2.5765 -1.3520 -0.0967
 2276THY    HP456885   2.907   8.561   7.219 -0.2715 -0.4998  0.6830
 2276THY    CP356886   2.806   8.455   6.897 -0.3338 -0.4255 -1.4199
 2276THY    HP556887   2.738   8.533   6.861 -0.8304 -0.1239  0.0996
 2276THY    HP656888   2.866   8.420   6.812  0.6354 -0.2354 -0.8397
 2276THY    HP756889   2.746   8.378   6.946  1.1930  1.0233  3.2647
 2276THY    CA356890   2.900   8.747   6.947  0.2252 -0.5995 -0.1382
 2276THY    HA356891   2.797   8.750   6.980 -0.0076 -1.0126 -0.8068
 2276THY    CA456892   2.953   8.860   6.885 -0.7970 -0.0984 -0.6648
 2276THY    HA456893   2.893   8.950   6.880  0.1176  0.6441  1.0917
 2276THY    CA556894   3.085   8.865   6.839  0.5859  0.1667  0.4459
 2276THY    CM156895   3.138   8.985   6.765 -0.1424  0.3735  0.2201
 2276THY    HM156896   3.247   8.986   6.762 -0.1133  3.2763 -0.0337
 2276THY    HM256897   3.098   8.993   6.663  1.6624  2.4641 -0.3857
 2276THY    HM356898   3.110   9.077   6.818 -1.2264  0.4378 -0.4174
 2276THY    CA656899   3.163   8.747   6.842  0.2736 -0.0986 -0.4872
 2276THY    HA656900   3.264   8.739   6.803  0.7431  2.1294  0.1555
 2277THY      O56901   9.039   3.226   9.033  0.0872  0.3713  0.0815
 2277THY     HO56902   8.962   3.213   8.974  1.6477  0.9220 -2.2005
 2277THY    CA156903   9.025   3.128   9.123  0.0913 -0.3120 -0.3066
 2277THY    CA256904   9.139   3.065   9.172  0.3499 -0.9959  0.6107
 2277THY    CP156905   9.274   3.117   9.137 -0.0117  0.0007  0.0502
 2277THY    HP156906   9.344   3.044   9.180  0.3109 -0.4052 -1.1071
 2277THY    CP256907   9.311   3.110   8.981 -0.1916  0.0366 -0.4145
 2277THY    HP256908   9.417   3.098   8.959 -0.4710  0.3237 -2.0792
 2277THY    HP356909   9.254   3.025   8.942 -1.2436  0.3586  0.3615
 2277THY    HP456910   9.278   3.202   8.931  0.2915 -0.0998 -0.9937
 2277THY    CP356911   9.311   3.252   9.199  0.6512 -0.1281  0.4054
 2277THY    HP556912   9.231   3.321   9.172  0.2710 -0.3928  0.8518
 2277THY    HP656913   9.317   3.245   9.309 -3.1123 -1.0272  0.6643
 2277THY    HP756914   9.410   3.289   9.169  1.4581 -1.6661  1.0978
 2277THY    CA356915   9.130   2.952   9.257  0.2126 -1.1374  0.7042
 2277THY    HA356916   9.223   2.907   9.290  0.8920  0.3131  0.8431
 2277THY    CA456917   8.997   2.915   9.288  0.3614  0.2262 -0.0753
 2277THY    HA456918   8.990   2.825   9.349  2.8500  0.1840  0.2438
 2277THY    CA556919   8.885   2.973   9.244  0.2859  0.3271 -0.3452
 2277THY    CM156920   8.755   2.906   9.276  0.7356 -0.1041  0.2688
 2277THY    HM156921   8.751   2.810   9.223  0.0190 -0.2123  0.4976
 2277THY    HM256922   8.732   2.897   9.383  0.0715  2.0980  0.3568
 2277THY    HM356923   8.676   2.978   9.251  0.7684  0.2183  1.0536
 2277THY    CA656924   8.902   3.082   9.155 -0.2097 -0.1891  0.1833
 2277THY    HA656925   8.813   3.131   9.117 -0.8505 -1.6889 -0.3291
 2278THY      O56926   5.877   2.021   2.003 -0.2159  0.1043 -0.1980
 2278THY     HO56927   5.811   1.962   1.964 -0.4085 -0.0268  0.3171
 2278THY    CA156928   5.827   2.141   1.974  0.2192 -0.3518  0.0806
 2278THY    CA256929   5.873   2.261   2.031 -0.5416  0.6089  0.2709
 2278THY    CP156930   6.003   2.255   2.118 -0.7476  0.3273  0.5182
 2278THY    HP156931   6.007   2.165   2.180 -1.4312  0.7869  1.2655
 2278THY    CP256932   6.123   2.265   2.029  0.5635 -0.7253  0.3814
 2278THY    HP256933   6.214   2.260   2.090 -0.1399  1.2992  1.6948
 2278THY    HP356934   6.120   2.186   1.953 -1.0309 -0.5765  0.2631
 2278THY    HP456935   6.118   2.360   1.974 -0.0163 -0.6277  0.5926
 2278THY    CP356936   6.008   2.358   2.228 -0.3585  0.1578 -0.5573
 2278THY    HP556937   5.919   2.362   2.292  0.5051 -1.2623  0.8054
 2278THY    HP656938   6.090   2.345   2.299 -2.3288  3.6505  2.7250
 2278THY    HP756939   6.032   2.456   2.184 -1.5446 -0.1205 -1.8801
 2278THY    CA356940   5.819   2.383   1.986  0.3088 -0.3782 -0.3706
 2278THY    HA356941   5.861   2.474   2.029  0.3968 -1.6914  2.6071
 2278THY    CA456942   5.709   2.376   1.896  0.2246  0.0492  0.2434
 2278THY    HA456943   5.660   2.465   1.857  1.7863  0.7032 -0.2750
 2278THY    CA556944   5.654   2.255   1.856 -0.4149  0.2855 -0.4659
 2278THY    CM156945   5.566   2.257   1.737  0.3251  0.2654 -0.2881
 2278THY    HM156946   5.509   2.163   1.736  2.4467 -1.1306  0.8728
 2278THY    HM256947   5.489   2.334   1.749  2.2593  2.0992  1.1363
 2278THY    HM356948   5.621   2.270   1.643 -0.0434  0.4344 -0.4796
 2278THY    CA656949   5.719   2.138   1.888 -0.3535  0.4054  0.7097
 2278THY    HA656950   5.676   2.045   1.854 -0.0796 -0.3963  2.4193
 2279THY      O56951   0.968   7.282   0.353  0.4605 -0.4172  0.3083
 2279THY     HO56952   0.912   7.358   0.330 -0.5794 -1.0637  0.6036
 2279THY    CA156953   0.965   7.198   0.249 -0.1552  0.2381 -0.5793
 2279THY    CA256954   1.045   7.080   0.253 -0.5301 -0.1361 -0.0814
 2279THY    CP156955   1.135   7.052   0.370  0.3093 -0.1203 -0.1021
 2279THY    HP156956   1.095   7.097   0.462  1.3824  0.9163 -0.1206
 2279THY    CP256957   1.154   6.903   0.400 -0.0025  0.0702 -0.0513
 2279THY    HP256958   1.055   6.858   0.406 -0.5592  1.3262  0.5295
 2279THY    HP356959   1.215   6.871   0.315 -0.1641  0.6915 -0.4022
 2279THY    HP456960   1.211   6.894   0.494  1.3104  0.9841 -0.7363
 2279THY    CP356961   1.278   7.121   0.351  0.1188 -1.0382  0.0458
 2279THY    HP556962   1.330   7.095   0.259  0.8103  0.0499  0.1051
 2279THY    HP656963   1.265   7.230   0.350 -0.3422 -1.0912 -0.6417
 2279THY    HP756964   1.343   7.092   0.434 -0.7102  0.0196  1.1099
 2279THY    CA356965   1.049   7.005   0.139  0.2800  0.1494  0.8164
 2279THY    HA356966   1.115   6.920   0.133  1.1885  0.8074  1.3319
 2279THY    CA456967   0.954   7.032   0.038 -0.5700  0.2555  0.5352
 2279THY    HA456968   0.960   6.973  -0.053 -0.5502  2.7103 -1.1630
 2279THY    CA556969   0.861   7.135   0.042 -0.2381  0.0839  0.0111
 2279THY    CM156970   0.771   7.150  -0.065  1.0119  0.0717  0.2337
 2279THY    HM156971   0.680   7.092  -0.044 -0.6227  2.3506 -0.0844
 2279THY    HM256972   0.728   7.251  -0.075 -0.2171 -0.3742  0.7714
 2279THY    HM356973   0.804   7.119  -0.164 -0.7869  1.3550 -0.8350
 2279THY    CA656974   0.865   7.219   0.151  0.5227 -0.1870 -0.4353
 2279THY    HA656975   0.794   7.300   0.152  0.6311  0.0519  3.2024
 2280THY      O56976   5.981   0.514   0.567 -0.1211 -0.3397 -0.5567
 2280THY     HO56977   5.910   0.515   0.633 -1.8731  2.1554 -2.2827
 2280THY    CA156978   6.051   0.402   0.591  0.4130 -0.2137  0.4440
 2280THY    CA256979   6.184   0.389   0.546 -0.0021  0.0216 -0.4569
 2280THY    CP156980   6.253   0.501   0.467 -0.9977  0.2291 -0.4402
 2280THY    HP156981   6.177   0.575   0.439 -3.0160  0.0505  3.8738
 2280THY    CP256982   6.343   0.578   0.563 -0.5800  0.0528 -0.0646
 2280THY    HP256983   6.296   0.589   0.662  1.1479  3.7086  0.5454
 2280THY    HP356984   6.432   0.518   0.582 -1.3583 -1.0044  0.3111
 2280THY    HP456985   6.354   0.682   0.530 -0.6397  0.0243 -0.1715
 2280THY    CP356986   6.327   0.471   0.339 -0.3178  0.3427 -0.5677
 2280THY    HP556987   6.414   0.407   0.360 -2.1014 -2.7397 -1.8948
 2280THY    HP656988   6.281   0.425   0.251  0.7660 -1.9386 -0.0162
 2280THY    HP756989   6.373   0.564   0.305 -0.1525 -0.4671 -2.7109
 2280THY    CA356990   6.259   0.272   0.573  0.1824  0.1711 -0.3726
 2280THY    HA356991   6.366   0.269   0.551  0.4578 -0.1643  0.9323
 2280THY    CA456992   6.191   0.167   0.642 -0.3193 -0.1140  0.1583
 2280THY    HA456993   6.252   0.080   0.666  1.4302  0.1661 -2.7924
 2280THY    CA556994   6.061   0.183   0.689  0.1901  1.2185 -0.0270
 2280THY    CM156995   5.995   0.067   0.753  0.1620 -0.5266  0.7251
 2280THY    HM156996   6.058   0.012   0.823 -1.0054  0.6366  2.7727
 2280THY    HM256997   5.904   0.097   0.806 -0.1888  1.9907 -1.1169
 2280THY    HM356998   5.962  -0.005   0.677  1.3279 -1.0248  0.6734
 2280THY    CA656999   5.993   0.301   0.668  0.3795 -0.0399 -0.1188
 2280THY    HA657000   5.889   0.305   0.696  0.1566  0.1079 -0.9280
 2281THY      O57001   2.692   1.711   0.806 -0.0478  0.5212  0.0447
 2281THY     HO57002   2.713   1.779   0.740  3.6200 -1.5000 -1.1341
 2281THY    CA157003   2.558   1.714   0.820  0.1939 -0.4509 -0.2551
 2281THY    CA257004   2.497   1.630   0.915  1.0440  0.3204  0.0895
 2281THY    CP157005   2.583   1.535   0.998  0.1199 -0.0747  0.0536
 2281THY    HP157006   2.673   1.522   0.936 -0.9349  0.4837 -1.6713
 2281THY    CP257007   2.618   1.570   1.146 -0.6118  0.2841 -0.7215
 2281THY    HP257008   2.534   1.544   1.212  1.1739 -1.5659  0.9787
 2281THY    HP357009   2.703   1.509   1.180 -1.6119  0.1071  1.6593
 2281THY    HP457010   2.640   1.677   1.161  4.3663 -0.6028  0.2032
 2281THY    CP357011   2.524   1.391   0.999 -0.0121 -0.9705 -0.2661
 2281THY    HP557012   2.495   1.380   0.894 -0.6777  4.8869 -1.0210
 2281THY    HP657013   2.589   1.311   1.037 -0.2492 -1.2375 -0.4190
 2281THY    HP757014   2.441   1.394   1.070  1.6737 -0.2537  1.7975
 2281THY    CA357015   2.357   1.626   0.922  0.4922 -0.4438 -0.1179
 2281THY    HA357016   2.302   1.551   0.979 -1.1865 -0.7030 -1.9387
 2281THY    CA457017   2.281   1.717   0.854 -0.1812  0.0479  0.0430
 2281THY    HA457018   2.174   1.702   0.848 -0.2408  0.3038  0.4308
 2281THY    CA557019   2.343   1.800   0.764  0.3826 -0.7237 -0.0836
 2281THY    CM157020   2.268   1.895   0.674  0.1456  0.1651 -0.1123
 2281THY    HM157021   2.334   1.981   0.658 -0.0712  0.1015 -1.4945
 2281THY    HM257022   2.246   1.862   0.571 -0.9132 -0.6896  0.3619
 2281THY    HM357023   2.178   1.932   0.725 -0.0698  0.4603 -0.6866
 2281THY    CA657024   2.483   1.809   0.755  0.2665  0.1927 -0.2875
 2281THY    HA657025   2.528   1.871   0.678 -2.4645 -0.5101 -2.6264
 2282THY      O57026   8.380   8.025   5.344  0.0189 -0.2979  0.0930
 2282THY     HO57027   8.381   7.983   5.431 -0.2687 -0.5123 -0.0076
 2282THY    CA157028   8.266   7.989   5.273 -0.5154  0.1094  0.2069
 2282THY    CA257029   8.272   7.933   5.143 -0.5911  0.0825 -0.7968
 2282THY    CP157030   8.409   7.918   5.081  0.0580  0.4779  0.3664
 2282THY    HP157031   8.490   7.927   5.154 -0.0427 -0.0413  0.5491
 2282THY    CP257032   8.432   7.773   5.024  0.1482  0.4568 -0.3101
 2282THY    HP257033   8.373   7.758   4.933  0.9387  0.7705 -0.8952
 2282THY    HP357034   8.540   7.755   5.010  0.4202  0.2945  1.7010
 2282THY    HP457035   8.400   7.709   5.107  0.5446  0.8656  0.1685
 2282THY    CP357036   8.448   8.014   4.972  0.4197  0.4480 -0.4477
 2282THY    HP557037   8.447   8.114   5.017  0.6207  0.5109 -0.5780
 2282THY    HP657038   8.553   7.997   4.945  0.5790  1.4529 -0.4970
 2282THY    HP757039   8.385   8.011   4.883 -0.1630 -1.1649 -0.0354
 2282THY    CA357040   8.154   7.906   5.075  0.2061  0.4400 -0.3140
 2282THY    HA357041   8.153   7.859   4.977 -0.0730 -1.4526  0.5456
 2282THY    CA457042   8.033   7.923   5.145  0.2330 -0.3480  0.3892
 2282THY    HA457043   7.939   7.899   5.097  0.2725 -1.7332  0.9540
 2282THY    CA557044   8.029   7.974   5.273  0.4557 -0.4205  0.4729
 2282THY    CM157045   7.900   8.004   5.342  0.2949  0.0836  0.3820
 2282THY    HM157046   7.854   7.909   5.371  1.1483 -0.7488 -0.8912
 2282THY    HM257047   7.914   8.066   5.432 -2.2165  0.7800  0.3469
 2282THY    HM357048   7.831   8.061   5.280 -1.7226  0.0420  2.4545
 2282THY    CA657049   8.152   8.011   5.339  1.1471  0.0363  0.3125
 2282THY    HA657050   8.146   8.064   5.434  0.3268 -0.0661  0.3270
 2283THY      O57051   0.319   8.732   8.614 -0.6398 -0.4268  0.1230
 2283THY     HO57052   0.412   8.743   8.591 -1.1185  2.2846 -0.9020
 2283THY    CA157053   0.274   8.859   8.644 -0.2479 -0.0970 -0.2749
 2283THY    CA257054   0.164   8.886   8.731  0.5703 -0.4010  0.5624
 2283THY    CP157055   0.086   8.776   8.812  0.3328  0.3405  0.1559
 2283THY    HP157056   0.105   8.680   8.762 -3.0290  1.3113 -3.4463
 2283THY    CP257057   0.128   8.778   8.961 -0.0232  0.4698  0.0201
 2283THY    HP257058   0.118   8.883   8.993  3.3941  1.0491 -0.3897
 2283THY    HP357059   0.057   8.715   9.014 -0.5798 -0.1284 -1.3788
 2283THY    HP457060   0.231   8.746   8.982 -0.7241 -2.1677 -0.2723
 2283THY    CP357061  -0.069   8.792   8.802 -0.8142  0.2110 -0.3241
 2283THY    HP557062  -0.096   8.830   8.702 -1.8949 -0.8210 -0.4430
 2283THY    HP657063  -0.116   8.693   8.811 -2.4364  0.6585 -2.7499
 2283THY    HP757064  -0.105   8.860   8.880 -0.9672 -1.1529  0.8224
 2283THY    CA357065   0.123   9.020   8.750 -0.6793  0.3542  0.3677
 2283THY    HA357066   0.044   9.044   8.821 -0.3177  0.3424  0.7828
 2283THY    CA457067   0.193   9.124   8.680  0.3123  0.7017 -0.4201
 2283THY    HA457068   0.165   9.228   8.693  1.4151  0.8220  1.2106
 2283THY    CA557069   0.294   9.089   8.588 -0.3440 -0.4982 -0.7467
 2283THY    CM157070   0.362   9.209   8.518  0.6273  0.5058 -0.8162
 2283THY    HM157071   0.387   9.283   8.595 -1.1911 -1.2502  1.6046
 2283THY    HM257072   0.456   9.187   8.465  0.7003 -0.5120 -0.2750
 2283THY    HM357073   0.300   9.266   8.448 -1.3657  1.3276  1.4820
 2283THY    CA657074   0.335   8.960   8.573  0.3988 -0.0635  0.4206
 2283THY    HA657075   0.402   8.942   8.489 -0.3910  1.3535 -0.5438
 2284THY      O57076   1.824   3.737   9.929  0.3308 -0.6968  0.2872
 2284THY     HO57077   1.842   3.713   9.836 -0.7131  2.8537 -0.9861
 2284THY    CA157078   1.690   3.769   9.924  0.2146 -0.2317 -0.1764
 2284THY    CA257079   1.636   3.886   9.982 -0.4444 -0.4112 -0.6857
 2284THY    CP157080   1.737   3.978  10.049  0.0262  0.3569 -0.3804
 2284THY    HP157081   1.822   3.923  10.090  0.4534  2.5989  1.9594
 2284THY    CP257082   1.802   4.065   9.932  0.0891  0.1186 -0.2365
 2284THY    HP257083   1.856   4.008   9.856  1.1689 -0.8433  1.2045
 2284THY    HP357084   1.745   4.139   9.874  0.8618 -1.9979 -4.0662
 2284THY    HP457085   1.876   4.124   9.986  1.6070 -1.7677 -0.1296
 2284THY    CP357086   1.680   4.065  10.162 -0.1949  0.0484 -0.1244
 2284THY    HP557087   1.616   4.143  10.119  1.9719  1.2796 -1.2921
 2284THY    HP657088   1.621   4.009  10.236  0.0047  0.8858  0.7018
 2284THY    HP757089   1.763   4.113  10.215  0.1289 -0.4641 -0.1629
 2284THY    CA357090   1.500   3.915   9.986  1.0641 -0.0823 -0.4830
 2284THY    HA357091   1.457   3.995  10.046  0.7746 -2.1966  2.3079
 2284THY    CA457092   1.416   3.827   9.923 -0.1241 -0.0427  0.2768
 2284THY    HA457093   1.310   3.853   9.924  0.0294  0.5780  0.8334
 2284THY    CA557094   1.471   3.716   9.858  0.2464  0.2581  0.0735
 2284THY    CM157095   1.380   3.635   9.767  1.0773 -0.1038 -0.5684
 2284THY    HM157096   1.278   3.664   9.796  1.8456  1.7093  0.4921
 2284THY    HM257097   1.396   3.663   9.663 -0.1628  1.4465 -0.3830
 2284THY    HM357098   1.390   3.526   9.775  2.9061 -0.1191 -2.4219
 2284THY    CA657099   1.608   3.676   9.867 -0.5281  0.1432  0.2581
 2284THY    HA657100   1.649   3.584   9.827  0.5920  0.3405  0.8919
 2285THY      O57101   8.345   1.852   5.499  0.5839  0.1556 -0.2614
 2285THY     HO57102   8.384   1.803   5.425 -1.8046 -0.7827 -0.9911
 2285THY    CA157103   8.234   1.923   5.456  0.4069  0.5649 -0.6815
 2285THY    CA257104   8.144   1.991   5.546  0.2772  0.2076  1.1689
 2285THY    CP157105   8.162   1.989   5.695 -0.5257  0.0397 -1.0517
 2285THY    HP157106   8.253   1.934   5.723  0.0933  0.9090 -1.3258
 2285THY    CP257107   8.206   2.127   5.748 -0.2819 -0.3735 -0.0135
 2285THY    HP257108   8.224   2.124   5.856  0.7440  1.0626 -0.1197
 2285THY    HP357109   8.295   2.168   5.700 -1.9349  1.2440 -1.8748
 2285THY    HP457110   8.128   2.199   5.720  1.1167  1.2803  0.1806
 2285THY    CP357111   8.045   1.930   5.774 -0.6406 -0.2276  0.5025
 2285THY    HP557112   8.073   1.876   5.865 -1.1321  1.1942  1.5209
 2285THY    HP657113   7.967   2.005   5.790 -0.3822  0.2667 -0.4662
 2285THY    HP757114   8.003   1.846   5.716  0.7872 -2.3693  2.4005
 2285THY    CA357115   8.046   2.083   5.493 -0.4406  0.1274 -0.5116
 2285THY    HA357116   7.979   2.136   5.560 -0.5451 -0.3127 -0.2606
 2285THY    CA457117   8.028   2.082   5.352  0.1092 -0.1528 -0.1189
 2285THY    HA457118   7.945   2.140   5.314  1.5039  1.7556 -0.4249
 2285THY    CA557119   8.111   2.008   5.269 -0.1008 -0.2721  0.2491
 2285THY    CM157120   8.103   2.017   5.116 -0.1701  0.3156 -0.1550
 2285THY    HM157121   8.179   1.957   5.066 -1.0946  1.1804 -2.7788
 2285THY    HM257122   8.005   1.987   5.077 -0.6675 -1.3072  2.1200
 2285THY    HM357123   8.129   2.120   5.087  0.8776 -0.0703 -0.6324
 2285THY    CA657124   8.205   1.927   5.322 -0.1243  0.1559 -0.3099
 2285THY    HA657125   8.262   1.859   5.259  1.0550 -0.2461  1.1454
 2286THY      O57126   2.611   5.734   6.194 -0.4221 -0.5236 -0.3259
 2286THY     HO57127   2.701   5.717   6.163 -0.5250  0.2539 -1.0808
 2286THY    CA157128   2.536   5.686   6.092 -1.2095  0.5680  0.2031
 2286THY    CA257129   2.406   5.642   6.107  0.1030  0.3869 -0.1764
 2286THY    CP157130   2.331   5.652   6.239  0.4057  0.5218  0.5289
 2286THY    HP157131   2.398   5.677   6.322 -0.2733  0.9623  0.9496
 2286THY    CP257132   2.217   5.758   6.232 -0.0132 -0.2930 -0.4842
 2286THY    HP257133   2.145   5.735   6.153  2.2405  0.5002 -2.9114
 2286THY    HP357134   2.180   5.767   6.335 -1.7683  1.2931 -1.1842
 2286THY    HP457135   2.264   5.851   6.199  3.1481 -1.1994  1.0605
 2286THY    CP357136   2.273   5.521   6.284 -0.0244 -0.1824  0.5904
 2286THY    HP557137   2.352   5.446   6.301 -0.2687 -0.4237  0.6616
 2286THY    HP657138   2.213   5.518   6.376  1.4268 -2.4619  1.5576
 2286THY    HP757139   2.212   5.483   6.202 -1.9691 -2.4953  2.9351
 2286THY    CA357140   2.341   5.592   5.994  0.0938 -0.7205 -0.5971
 2286THY    HA357141   2.240   5.557   6.009 -0.3881  1.0119  0.5012
 2286THY    CA457142   2.407   5.577   5.872 -0.5709 -0.7909 -0.2482
 2286THY    HA457143   2.362   5.541   5.780  0.9515 -0.4218 -1.1700
 2286THY    CA557144   2.534   5.628   5.855 -0.4076  0.2393  0.5041
 2286THY    CM157145   2.599   5.611   5.718  0.7575 -0.2111  1.0337
 2286THY    HM157146   2.629   5.509   5.691  0.4259  0.1473 -0.8621
 2286THY    HM257147   2.524   5.646   5.645 -0.6468  0.1264  2.5796
 2286THY    HM357148   2.687   5.672   5.699  0.8088 -0.8936 -1.2877
 2286THY    CA657149   2.599   5.687   5.961 -0.4200 -0.6304  0.4050
 2286THY    HA657150   2.702   5.722   5.956 -0.7924  1.0187  2.6145
 2287THY      O57151   7.423   4.016   6.560  0.1036  0.0452  0.2679
 2287THY     HO57152   7.515   4.039   6.582  1.5725 -2.6359 -2.3172
 2287THY    CA157153   7.392   3.891   6.606 -0.8949  0.1197 -0.1894
 2287THY    CA257154   7.260   3.832   6.606 -0.5041 -0.2879 -0.7694
 2287THY    CP157155   7.144   3.906   6.554 -0.5611 -0.3486  0.2227
 2287THY    HP157156   7.178   3.986   6.487 -2.9773  1.1740  0.6843
 2287THY    CP257157   7.036   3.827   6.476  0.5552 -0.4225  0.2591
 2287THY    HP257158   6.948   3.886   6.449  1.1807  0.1944 -0.5055
 2287THY    HP357159   7.079   3.792   6.381 -0.9133  0.4552 -0.7852
 2287THY    HP457160   7.001   3.737   6.527 -2.2602 -0.0267 -0.8096
 2287THY    CP357161   7.053   3.967   6.672 -0.0747 -0.3275 -0.2174
 2287THY    HP557162   7.112   4.040   6.730 -0.7425  1.3305 -1.5453
 2287THY    HP657163   6.976   4.030   6.627  0.7163  2.0871  1.6023
 2287THY    HP757164   7.017   3.890   6.742  1.9727 -1.1196  0.0510
 2287THY    CA357165   7.247   3.703   6.665 -0.0433 -0.3547  1.3842
 2287THY    HA357166   7.147   3.661   6.669  0.0713 -0.7801  0.1220
 2287THY    CA457167   7.357   3.635   6.717  0.2118 -0.0219 -0.5645
 2287THY    HA457168   7.347   3.538   6.765  0.8849  1.7863  3.5949
 2287THY    CA557169   7.475   3.699   6.715 -0.0349  0.3241  0.3403
 2287THY    CM157170   7.603   3.626   6.763 -1.2768 -0.3845  0.0289
 2287THY    HM157171   7.600   3.641   6.871 -1.7960  1.7505 -0.2408
 2287THY    HM257172   7.601   3.518   6.743 -0.2268 -1.0194  2.8384
 2287THY    HM357173   7.689   3.674   6.714 -1.7042 -0.8058 -1.1779
 2287THY    CA657174   7.493   3.824   6.664 -0.2220  0.0151 -0.2244
 2287THY    HA657175   7.589   3.875   6.669 -2.2285  4.2435 -0.5534
 2288THY      O57176   3.589   4.768   0.702 -0.3551 -0.2043  0.1132
 2288THY     HO57177   3.530   4.839   0.670  0.5952  0.4812 -0.1750
 2288THY    CA157178   3.640   4.711   0.589  0.9289 -0.2055 -0.4714
 2288THY    CA257179   3.733   4.607   0.599 -0.0603 -0.3899  0.5284
 2288THY    CP157180   3.794   4.565   0.738 -0.7912  0.2373  0.0544
 2288THY    HP157181   3.782   4.637   0.820 -2.0572 -1.2018  1.1915
 2288THY    CP257182   3.716   4.440   0.786 -0.1460  0.4363  0.2112
 2288THY    HP257183   3.745   4.417   0.889 -2.3113 -1.0160  0.5633
 2288THY    HP357184   3.610   4.469   0.785 -0.2310  0.2371 -2.2255
 2288THY    HP457185   3.737   4.356   0.720 -0.9467  1.3659 -1.2729
 2288THY    CP357186   3.944   4.539   0.733  0.1095 -0.1531  0.6184
 2288THY    HP557187   3.989   4.544   0.833 -1.4584 -2.3436  1.5010
 2288THY    HP657188   3.964   4.454   0.667 -2.3671 -0.0139 -0.4349
 2288THY    HP757189   3.996   4.620   0.679 -0.4799  1.3367  2.1760
 2288THY    CA357190   3.773   4.541   0.489 -0.3648  0.0063 -0.2374
 2288THY    HA357191   3.847   4.463   0.503  1.5761  1.5362 -1.3286
 2288THY    CA457192   3.730   4.577   0.362 -0.1353 -0.0317  0.1205
 2288THY    HA457193   3.776   4.529   0.276 -0.0163 -0.5041  0.4445
 2288THY    CA557194   3.628   4.677   0.354  0.4667  0.4927 -0.5215
 2288THY    CM157195   3.567   4.693   0.217 -0.0136 -0.3480  1.1483
 2288THY    HM157196   3.459   4.712   0.217 -0.5380 -2.9183  0.0685
 2288THY    HM257197   3.623   4.767   0.159 -0.4837  1.6777  3.1228
 2288THY    HM357198   3.578   4.595   0.168  0.1743 -0.6651  1.8155
 2288THY    CA657199   3.579   4.745   0.467 -0.5237  0.2400  0.2607
 2288THY    HA657200   3.502   4.818   0.445 -1.2458 -1.5127 -3.9741
 2289THY      O57201   6.593   7.248   0.528 -0.1209 -0.1311 -0.0328
 2289THY     HO57202   6.642   7.306   0.588 -1.0901 -1.3341  2.0323
 2289THY    CA157203   6.679   7.211   0.436  0.4870 -0.2978  0.3303
 2289THY    CA257204   6.645   7.204   0.299  0.5341 -0.4713 -0.2406
 2289THY    CP157205   6.504   7.231   0.242 -1.2067  0.0031 -0.6954
 2289THY    HP157206   6.438   7.214   0.328  0.6450 -1.4132  0.5137
 2289THY    CP257207   6.485   7.374   0.196  0.3451  0.0903  0.4120
 2289THY    HP257208   6.381   7.380   0.159  1.3992 -1.5913 -3.2821
 2289THY    HP357209   6.507   7.435   0.284 -0.1465  0.1314  0.5093
 2289THY    HP457210   6.558   7.401   0.118  1.3319  0.5875  1.4929
 2289THY    CP357211   6.463   7.129   0.137 -0.4636 -0.6750  0.1117
 2289THY    HP557212   6.486   7.026   0.166 -2.0119 -1.1616 -0.2800
 2289THY    HP657213   6.359   7.130   0.103 -1.0285  2.3883  1.5267
 2289THY    HP757214   6.522   7.154   0.049  0.7546  1.3886  1.4456
 2289THY    CA357215   6.747   7.170   0.210  0.3075 -0.2358  0.2629
 2289THY    HA357216   6.724   7.153   0.105 -0.5006  0.0225  0.3942
 2289THY    CA457217   6.873   7.153   0.258 -0.2122 -0.3143  0.2112
 2289THY    HA457218   6.950   7.140   0.183 -0.5560  0.4759 -0.2903
 2289THY    CA557219   6.906   7.170   0.395 -0.2691  0.6535 -0.3125
 2289THY    CM157220   7.048   7.133   0.434  0.7044 -0.1726 -0.0473
 2289THY    HM157221   7.115   7.218   0.417  0.4992  0.0351  0.1723
 2289THY    HM257222   7.052   7.118   0.543  2.6875  2.9073  0.4220
 2289THY    HM357223   7.074   7.049   0.369 -0.6308  0.5001 -1.5105
 2289THY    CA657224   6.806   7.202   0.486  1.0478 -0.4838  0.3658
 2289THY    HA657225   6.837   7.225   0.588 -1.7422  2.0389  0.7839
 2290THY      O57226   2.448   1.527   5.563  0.0696 -0.3148 -0.0565
 2290THY     HO57227   2.417   1.563   5.647  3.7105  1.2418  0.7819
 2290THY    CA157228   2.584   1.505   5.573 -0.3111 -0.4327  0.6608
 2290THY    CA257229   2.654   1.489   5.449  0.6694 -0.2657  0.0156
 2290THY    CP157230   2.582   1.454   5.316 -0.0137 -0.0201 -0.7553
 2290THY    HP157231   2.483   1.416   5.342  0.1154 -0.2332 -0.5785
 2290THY    CP257232   2.565   1.569   5.221 -0.0723 -0.0525  0.1176
 2290THY    HP257233   2.563   1.663   5.277 -0.7183 -0.2041  0.3609
 2290THY    HP357234   2.644   1.584   5.147  0.4117  1.2135  0.8605
 2290THY    HP457235   2.483   1.551   5.150  1.0912  1.8681 -1.8334
 2290THY    CP357236   2.640   1.332   5.245  1.5370  0.4691  0.7319
 2290THY    HP557237   2.694   1.349   5.151  0.8594  0.6959  0.3796
 2290THY    HP657238   2.699   1.276   5.318  1.8050 -0.2834 -0.0528
 2290THY    HP757239   2.551   1.271   5.230  1.5106  1.1978 -2.8176
 2290THY    CA357240   2.792   1.495   5.455  0.1717 -1.2029 -0.0429
 2290THY    HA357241   2.859   1.487   5.370 -0.3177 -0.0115 -0.5621
 2290THY    CA457242   2.854   1.517   5.577 -0.3931  1.1025  0.5309
 2290THY    HA457243   2.963   1.525   5.577 -0.3534  1.4170 -1.7469
 2290THY    CA557244   2.783   1.514   5.692 -0.3508 -0.3333 -0.1465
 2290THY    CM157245   2.854   1.509   5.818  0.1687  0.0543  0.2252
 2290THY    HM157246   2.935   1.583   5.810  0.4515 -0.2125  0.6032
 2290THY    HM257247   2.788   1.535   5.902 -0.1159 -1.5322  0.5103
 2290THY    HM357248   2.899   1.411   5.835 -1.5317 -0.6681  0.7089
 2290THY    CA657249   2.645   1.521   5.688  0.2625  0.2116  0.0296
 2290THY    HA657250   2.585   1.528   5.778  2.1429  0.8569  1.3001
 2291THY      O57251   0.449   3.883   0.167 -0.4082 -0.0873  0.4562
 2291THY     HO57252   0.400   3.872   0.084 -1.2382 -2.2749  1.1817
 2291THY    CA157253   0.569   3.941   0.133 -0.2923 -0.1475 -0.5561
 2291THY    CA257254   0.681   3.925   0.212 -0.1632 -0.0157 -0.0422
 2291THY    CP157255   0.681   3.833   0.334  0.1623 -0.0043  0.5511
 2291THY    HP157256   0.602   3.759   0.322  1.3579 -1.1853 -0.2511
 2291THY    CP257257   0.804   3.746   0.349 -0.1431 -0.4856  0.3361
 2291THY    HP257258   0.811   3.676   0.265  0.2822 -1.2296  0.9853
 2291THY    HP357259   0.892   3.812   0.349 -1.0622  0.8075 -0.8593
 2291THY    HP457260   0.798   3.685   0.439 -1.2180 -0.6340  0.1720
 2291THY    CP357261   0.653   3.911   0.474  0.0715 -0.6754 -0.5565
 2291THY    HP557262   0.560   3.968   0.480  0.2844  0.1263 -3.2808
 2291THY    HP657263   0.649   3.833   0.550 -0.8781  0.5956  0.7537
 2291THY    HP757264   0.736   3.982   0.488  0.8246 -1.3672 -1.3569
 2291THY    CA357265   0.792   4.007   0.182 -0.1522  0.1922  0.2101
 2291THY    HA357266   0.877   4.005   0.251  0.3023  3.0290 -0.1658
 2291THY    CA457267   0.796   4.089   0.066  0.0840  1.3740 -0.2045
 2291THY    HA457268   0.885   4.149   0.051  1.5261 -1.0677 -2.2206
 2291THY    CA557269   0.678   4.097  -0.011  0.2930  0.1717 -0.5109
 2291THY    CM157270   0.658   4.192  -0.125  0.0563 -0.2704 -0.3438
 2291THY    HM157271   0.753   4.228  -0.167 -1.9897  1.1717 -4.2929
 2291THY    HM257272   0.590   4.157  -0.204 -0.7293 -0.8507  0.5632
 2291THY    HM357273   0.610   4.276  -0.072  0.6850 -0.6488  0.8682
 2291THY    CA657274   0.565   4.020   0.016 -0.1238  0.3591 -1.2121
 2291THY    HA657275   0.474   4.014  -0.042 -1.0721 -3.0071  0.3736
 2292THY      O57276   4.299   9.108   3.694  0.3981  0.0049 -0.5611
 2292THY     HO57277   4.307   9.172   3.621  0.9057  1.1383  0.4545
 2292THY    CA157278   4.161   9.100   3.714  0.0187 -0.5934 -0.2255
 2292THY    CA257279   4.102   9.022   3.814 -0.3897  0.3743 -0.5603
 2292THY    CP157280   4.181   8.929   3.910 -0.2220  0.1806  0.0835
 2292THY    HP157281   4.285   8.928   3.877 -0.4528 -2.3125 -0.7530
 2292THY    CP257282   4.174   8.984   4.055 -0.0580  0.0169  0.1533
 2292THY    HP257283   4.212   9.087   4.053 -1.1037  0.5530  3.1062
 2292THY    HP357284   4.066   8.976   4.074 -0.2180 -1.4586 -1.1844
 2292THY    HP457285   4.228   8.932   4.136  1.4497  1.1433 -0.0761
 2292THY    CP357286   4.133   8.790   3.906 -0.0220 -1.2213 -0.8407
 2292THY    HP557287   4.220   8.727   3.928  2.0020  1.7610  0.3150
 2292THY    HP657288   4.052   8.784   3.980  3.0956 -0.0963  2.9709
 2292THY    HP757289   4.096   8.779   3.803  0.3770  1.6700 -1.3629
 2292THY    CA357290   3.963   9.017   3.808 -0.3781 -0.2039 -0.3008
 2292THY    HA357291   3.912   8.951   3.878 -2.1606  1.5031  0.0963
 2292THY    CA457292   3.888   9.095   3.719 -0.0304  0.3166 -0.5104
 2292THY    HA457293   3.779   9.096   3.714 -0.0316  1.0420 -0.3650
 2292THY    CA557294   3.953   9.180   3.633 -0.5013 -0.4031 -0.0671
 2292THY    CM157295   3.876   9.274   3.541 -0.3024 -0.6008  0.4088
 2292THY    HM157296   3.911   9.375   3.567  0.8447 -0.8817 -0.0092
 2292THY    HM257297   3.894   9.261   3.434  1.4365  4.0309 -0.1000
 2292THY    HM357298   3.769   9.285   3.564  0.0646  0.5881  1.7625
 2292THY    CA657299   4.090   9.188   3.635  0.0724  0.1223 -0.0352
 2292THY    HA657300   4.141   9.241   3.555  1.5153 -2.0110 -0.6079
 2293THY      O57301   5.262   6.277   2.245  1.0290  0.4573 -0.2488
 2293THY     HO57302   5.342   6.284   2.190  2.7423 -0.1957  1.9984
 2293THY    CA157303   5.176   6.366   2.191  0.1013 -0.3578 -0.0919
 2293THY    CA257304   5.040   6.377   2.229 -0.2099 -0.0149 -0.3918
 2293THY    CP157305   4.981   6.276   2.322 -0.6397 -0.0754 -0.3378
 2293THY    HP157306   5.059   6.202   2.345  0.7739  0.8005 -2.1310
 2293THY    CP257307   4.953   6.343   2.453 -0.2602 -0.4499 -0.1999
 2293THY    HP257308   5.046   6.392   2.484 -0.5954  1.3911 -1.9238
 2293THY    HP357309   4.875   6.420   2.452  0.4919  0.3204 -0.7392
 2293THY    HP457310   4.921   6.267   2.525  0.3644 -1.0743 -0.5634
 2293THY    CP357311   4.861   6.195   2.267  0.7457 -0.1174 -0.3677
 2293THY    HP557312   4.769   6.253   2.276  0.8819  0.1768 -0.8650
 2293THY    HP657313   4.873   6.174   2.160  3.1228  2.3447 -0.6893
 2293THY    HP757314   4.854   6.107   2.333 -2.5740 -0.8671 -1.5455
 2293THY    CA357315   4.952   6.448   2.149  0.2428 -0.0374 -0.1737
 2293THY    HA357316   4.845   6.445   2.169  0.4952 -1.5796  1.1782
 2293THY    CA457317   5.003   6.525   2.046  0.2396  0.0370  0.0247
 2293THY    HA457318   4.929   6.583   1.991 -0.4191  1.1456  1.9712
 2293THY    CA557319   5.139   6.518   2.016 -0.5757  0.3455  0.4393
 2293THY    CM157320   5.201   6.586   1.907 -0.9916 -0.6013 -0.0004
 2293THY    HM157321   5.283   6.650   1.941 -0.0132 -0.5480 -2.2351
 2293THY    HM257322   5.241   6.507   1.841  0.7872  1.3675 -1.4217
 2293THY    HM357323   5.132   6.648   1.849  0.2515  0.0680 -0.8239
 2293THY    CA657324   5.228   6.440   2.087 -0.3321  0.6297  0.5382
 2293THY    HA657325   5.335   6.433   2.069 -0.3812  0.7558  0.1907
 2294THY      O57326   0.645   4.366   1.869 -0.1983 -0.2862 -0.3403
 2294THY     HO57327   0.721   4.425   1.855 -0.0349 -0.5895 -0.7379
 2294THY    CA157328   0.662   4.304   1.987  0.2660  0.4397  0.2801
 2294THY    CA257329   0.575   4.201   2.039 -0.3800 -0.2864 -0.3030
 2294THY    CP157330   0.445   4.174   1.965 -0.1454  0.0571 -0.5798
 2294THY    HP157331   0.432   4.254   1.892  1.0928 -0.9107 -1.9157
 2294THY    CP257332   0.460   4.045   1.889  0.0862 -0.8857 -0.3269
 2294THY    HP257333   0.555   4.053   1.834  1.0955  0.5247  1.4998
 2294THY    HP357334   0.466   3.965   1.964 -0.5493  0.3989  1.1605
 2294THY    HP457335   0.376   4.024   1.822 -1.3117 -0.8591  1.3508
 2294THY    CP357336   0.322   4.175   2.063 -0.6504 -0.1108 -0.2105
 2294THY    HP557337   0.227   4.182   2.009 -1.5144  3.0690  1.4935
 2294THY    HP657338   0.315   4.078   2.114  0.4180 -0.0221  0.1360
 2294THY    HP757339   0.325   4.253   2.140 -1.0254 -0.7644  0.4760
 2294THY    CA357340   0.617   4.134   2.154 -0.8803 -0.4403  0.4048
 2294THY    HA357341   0.567   4.046   2.195  0.1331 -0.5808  1.3607
 2294THY    CA457342   0.735   4.175   2.225  0.0240  0.5004 -0.0578
 2294THY    HA457343   0.756   4.125   2.319 -1.7460 -1.2720 -0.5314
 2294THY    CA557344   0.810   4.286   2.180  0.0212 -0.9937  0.6797
 2294THY    CM157345   0.919   4.330   2.269  0.3364 -0.1004 -0.2682
 2294THY    HM157346   0.966   4.251   2.328 -0.8428  0.6330  1.7682
 2294THY    HM257347   0.997   4.382   2.212  1.2864  0.0208  1.1066
 2294THY    HM357348   0.885   4.400   2.346  2.3228 -0.3868  0.9053
 2294THY    CA657349   0.773   4.351   2.056 -0.5300  0.0144 -0.0237
 2294THY    HA657350   0.821   4.444   2.028 -1.6180  0.6505  0.1649
 2295THY      O57351   3.295   9.833   3.312 -0.7364 -0.0348 -0.1373
 2295THY     HO57352   3.213   9.787   3.286 -0.4315 -0.2379 -0.7615
 2295THY    CA157353   3.394   9.744   3.273 -0.0753  0.2333 -0.1685
 2295THY    CA257354   3.521   9.729   3.341  0.8387 -0.5156 -1.0795
 2295THY    CP157355   3.548   9.795   3.476  0.0438  0.7089  0.5456
 2295THY    HP157356   3.492   9.889   3.470 -3.3576 -1.2736 -1.6101
 2295THY    CP257357   3.484   9.713   3.588  0.3369  0.3086  0.3271
 2295THY    HP257358   3.484   9.765   3.684 -0.2266  1.2245 -0.1517
 2295THY    HP357359   3.377   9.701   3.564  0.1613  1.9242  0.2151
 2295THY    HP457360   3.534   9.615   3.592 -2.3573 -1.2592 -0.9430
 2295THY    CP357361   3.694   9.826   3.502  0.0603 -0.2996 -0.1559
 2295THY    HP557362   3.703   9.898   3.584 -0.6837  0.9413 -1.1344
 2295THY    HP657363   3.763   9.743   3.520  0.1450 -0.2524 -0.2561
 2295THY    HP757364   3.725   9.870   3.406  0.5794 -1.1540 -0.3969
 2295THY    CA357365   3.616   9.637   3.287  0.2776 -0.6467  0.0686
 2295THY    HA357366   3.708   9.623   3.343  1.7046  2.1189 -1.3943
 2295THY    CA457367   3.594   9.579   3.164 -0.1466 -0.3763  0.0180
 2295THY    HA457368   3.669   9.509   3.127 -0.5678 -1.8263  1.7810
 2295THY    CA557369   3.470   9.600   3.102 -0.3912  0.4512 -0.8131
 2295THY    CM157370   3.436   9.520   2.980 -0.1951 -0.7339  0.0447
 2295THY    HM157371   3.408   9.416   3.001  0.4888 -1.1307 -0.9536
 2295THY    HM257372   3.347   9.563   2.934  1.5854  0.9989 -2.0185
 2295THY    HM357373   3.514   9.519   2.903 -1.6938 -0.5862 -1.5262
 2295THY    CA657374   3.370   9.670   3.157 -0.4594 -0.8611  0.2633
 2295THY    HA657375   3.274   9.687   3.108 -1.4442  1.9402  2.8950
 2296THY      O57376   4.238   6.040   1.842  0.0073 -0.5351 -1.0337
 2296THY     HO57377   4.179   6.015   1.769  2.2037 -0.2273 -3.0724
 2296THY    CA157378   4.235   6.179   1.833 -0.0437 -0.7911 -0.3195
 2296THY    CA257379   4.349   6.254   1.868  0.7860  0.6891 -0.0353
 2296THY    CP157380   4.484   6.189   1.894 -0.0408 -0.8030 -0.6063
 2296THY    HP157381   4.462   6.084   1.915  1.5796 -0.5165  3.5941
 2296THY    CP257382   4.564   6.192   1.763 -0.1987  0.6364 -0.0895
 2296THY    HP257383   4.578   6.296   1.729 -0.7707  0.9327  0.5473
 2296THY    HP357384   4.657   6.139   1.780  0.1697  1.8305  1.9718
 2296THY    HP457385   4.511   6.137   1.684 -0.8592 -3.0966  2.7103
 2296THY    CP357386   4.556   6.236   2.029  1.1487  0.5555  0.4337
 2296THY    HP557387   4.483   6.224   2.109  1.1227  1.3599  0.5332
 2296THY    HP657388   4.635   6.164   2.053  2.6598  1.6913 -0.8743
 2296THY    HP757389   4.593   6.338   2.015 -0.4057  1.0356 -0.4311
 2296THY    CA357390   4.333   6.389   1.862  0.2550 -0.5495  0.1103
 2296THY    HA357391   4.420   6.452   1.881 -0.1572  0.7834 -2.0559
 2296THY    CA457392   4.211   6.444   1.825  0.1021 -0.1591  0.2282
 2296THY    HA457393   4.207   6.551   1.805  1.1187 -0.5225 -2.2303
 2296THY    CA557394   4.100   6.366   1.805 -0.0720  0.9525  0.9608
 2296THY    CM157395   3.966   6.425   1.771  0.4424 -0.0993 -0.1199
 2296THY    HM157396   3.952   6.516   1.831 -1.2015  0.7210 -1.6534
 2296THY    HM257397   3.966   6.456   1.666 -2.9083  3.7032  0.7612
 2296THY    HM357398   3.889   6.354   1.801 -0.3273  1.2859  1.3501
 2296THY    CA657399   4.106   6.228   1.821 -0.3646 -0.4727 -0.0979
 2296THY    HA657400   4.020   6.162   1.815  0.6637 -2.2304  2.5532
 2297THY      O57401   6.974   6.675   6.544 -0.1106  0.1009 -0.7697
 2297THY     HO57402   7.055   6.640   6.502 -0.2182 -2.1239  0.7202
 2297THY    CA157403   6.875   6.695   6.448  0.0741  0.2128  0.2260
 2297THY    CA257404   6.742   6.713   6.483 -0.3116  0.1593 -0.2526
 2297THY    CP157405   6.714   6.703   6.635  0.6378 -0.0615  0.1395
 2297THY    HP157406   6.782   6.631   6.682 -0.7709 -2.3246 -1.1219
 2297THY    CP257407   6.725   6.838   6.697 -0.7268 -0.0064 -0.4387
 2297THY    HP257408   6.833   6.853   6.697 -0.4344 -1.8042  0.8664
 2297THY    HP357409   6.683   6.923   6.641 -2.1370  0.5542  1.3734
 2297THY    HP457410   6.688   6.828   6.799  0.5125 -0.6703 -0.0417
 2297THY    CP357411   6.573   6.643   6.662  0.3077 -1.1721  0.4198
 2297THY    HP557412   6.559   6.624   6.769  0.7055 -0.4209  0.6168
 2297THY    HP657413   6.502   6.725   6.647  0.4272 -1.3878 -1.4660
 2297THY    HP757414   6.548   6.565   6.590 -0.6535 -1.7079  1.3076
 2297THY    CA357415   6.640   6.705   6.386  0.8795  0.2450 -0.3375
 2297THY    HA357416   6.534   6.707   6.410  1.6178  1.1142  3.5094
 2297THY    CA457417   6.678   6.695   6.253  0.6548  0.1885  0.4516
 2297THY    HA457418   6.596   6.688   6.182  0.5349  2.2513  0.3192
 2297THY    CA557419   6.809   6.678   6.211  0.2311  1.0508  0.2382
 2297THY    CM157420   6.840   6.639   6.070  0.9753 -0.1176 -0.4646
 2297THY    HM157421   6.759   6.628   5.998 -0.2939  2.0607  0.5190
 2297THY    HM257422   6.889   6.715   6.008  1.8297 -1.2954 -1.2702
 2297THY    HM357423   6.905   6.551   6.067  1.6863  0.3088  1.0244
 2297THY    CA657424   6.910   6.670   6.313 -0.5355  0.0556 -0.6535
 2297THY    HA657425   7.006   6.627   6.286 -0.2277  0.6349 -0.4809
 2298THY      O57426   5.645   3.371   1.813  0.0021  0.3977  1.0537
 2298THY     HO57427   5.612   3.309   1.745 -0.0112  0.3055  1.1450
 2298THY    CA157428   5.759   3.413   1.761  0.1529  0.2419  0.3780
 2298THY    CA257429   5.809   3.539   1.802  0.3117 -0.4459  0.1914
 2298THY    CP157430   5.723   3.626   1.899 -0.1629  0.4099  0.2530
 2298THY    HP157431   5.672   3.561   1.971  2.7137 -0.8787  1.2844
 2298THY    CP257432   5.799   3.716   2.001  0.1172  0.0261 -0.1556
 2298THY    HP257433   5.866   3.796   1.969 -0.7248  0.4649 -0.8685
 2298THY    HP357434   5.724   3.776   2.054 -0.5526  0.2717 -1.3399
 2298THY    HP457435   5.844   3.655   2.080 -0.3630  0.2089  0.2698
 2298THY    CP357436   5.630   3.715   1.816 -0.1456  0.1625  0.4129
 2298THY    HP557437   5.530   3.671   1.810 -0.0198 -0.1996  0.9190
 2298THY    HP657438   5.628   3.812   1.867  3.1703 -0.4336  1.9383
 2298THY    HP757439   5.653   3.719   1.708 -2.6705  2.7944 -0.1521
 2298THY    CA357440   5.928   3.586   1.747 -0.6601  0.4722  0.2431
 2298THY    HA357441   5.962   3.685   1.774 -2.3186  0.9846  0.5775
 2298THY    CA457442   6.002   3.509   1.669  0.0301  0.4116  0.1575
 2298THY    HA457443   6.101   3.532   1.632 -0.9390 -0.3162 -3.2012
 2298THY    CA557444   5.960   3.377   1.638 -0.3638  0.1656  0.3999
 2298THY    CM157445   6.050   3.284   1.561  0.0421  0.1246 -0.2713
 2298THY    HM157446   6.157   3.308   1.565  0.3643 -1.1047 -1.0856
 2298THY    HM257447   6.038   3.184   1.604 -1.6099 -0.2012 -1.4071
 2298THY    HM357448   6.022   3.268   1.457  2.5745 -0.0635 -0.9861
 2298THY    CA657449   5.840   3.328   1.683  0.1247  0.3908  0.4114
 2298THY    HA657450   5.815   3.225   1.660 -0.6009  1.0094 -1.9400
 2299THY      O57451   6.954   5.992   8.052 -0.0363  0.7996  0.3877
 2299THY     HO57452   7.028   6.037   8.095 -0.2485  0.5920  0.9953
 2299THY    CA157453   6.835   6.055   8.102 -0.0691  0.0219  0.3761
 2299THY    CA257454   6.709   5.993   8.112 -0.4931 -0.0953  0.1031
 2299THY    CP157455   6.695   5.844   8.071  0.8204 -0.6797  0.2282
 2299THY    HP157456   6.770   5.821   7.995 -0.0913  0.4949 -1.0916
 2299THY    CP257457   6.704   5.757   8.201 -0.2183  0.1342  0.3697
 2299THY    HP257458   6.686   5.652   8.174  0.5063  0.1041 -0.0442
 2299THY    HP357459   6.808   5.767   8.235 -0.0318 -1.3849  0.3047
 2299THY    HP457460   6.630   5.797   8.271 -1.4491 -1.2107 -0.1190
 2299THY    CP357461   6.566   5.812   7.989 -0.7532  0.4788 -1.2061
 2299THY    HP557462   6.567   5.705   7.967 -0.4872  0.5800 -1.7209
 2299THY    HP657463   6.472   5.838   8.038 -1.5838 -0.6739 -2.1208
 2299THY    HP757464   6.575   5.871   7.897 -1.4069 -0.2636 -1.7576
 2299THY    CA357465   6.597   6.059   8.167  0.2554  0.1100  0.5571
 2299THY    HA357466   6.503   6.011   8.192  0.5434  0.2419  2.0192
 2299THY    CA457467   6.619   6.184   8.221 -0.3246 -0.0350 -0.8521
 2299THY    HA457468   6.541   6.241   8.270  0.3761  0.9373 -0.8445
 2299THY    CA557469   6.748   6.249   8.205  0.4100 -0.3261  0.2190
 2299THY    CM157470   6.766   6.388   8.264  0.4662 -0.2586 -0.3647
 2299THY    HM157471   6.692   6.459   8.225  1.6407 -0.0632 -2.3504
 2299THY    HM257472   6.758   6.385   8.373  0.1137 -1.3905 -0.4088
 2299THY    HM357473   6.856   6.439   8.227  0.2355  1.8488  1.7436
 2299THY    CA657474   6.855   6.186   8.146  0.4607 -0.6322 -0.4842
 2299THY    HA657475   6.949   6.240   8.143 -0.7116  1.4258 -2.4416
 2300THY      O57476   3.920   3.652   7.209  0.4251 -0.9579  0.3167
 2300THY     HO57477   3.864   3.575   7.190 -0.9893  0.1172 -0.0848
 2300THY    CA157478   3.928   3.710   7.092 -0.2749 -0.4154 -0.0315
 2300THY    CA257479   3.989   3.841   7.082  0.1717  0.0343 -0.2467
 2300THY    CP157480   4.054   3.898   7.208  0.3853  0.5599  0.0727
 2300THY    HP157481   4.077   3.820   7.282 -2.0949  0.1993  0.5277
 2300THY    CP257482   4.183   3.975   7.183 -0.8936  0.4128  0.0106
 2300THY    HP257483   4.221   3.995   7.283  2.2015 -1.7065 -0.6082
 2300THY    HP357484   4.259   3.914   7.133 -0.7378  0.1138  0.6021
 2300THY    HP457485   4.165   4.064   7.121  0.5364  0.2194 -0.7145
 2300THY    CP357486   3.949   3.983   7.271  0.5704  0.6132  1.0041
 2300THY    HP557487   3.969   4.037   7.364  1.5009  1.9308  0.0827
 2300THY    HP657488   3.904   4.051   7.198 -1.8078 -3.7003 -1.9927
 2300THY    HP757489   3.861   3.924   7.298  0.9875 -0.8461 -0.6453
 2300THY    CA357490   4.003   3.895   6.948 -0.7090  0.0769 -0.4363
 2300THY    HA357491   4.053   3.991   6.942 -0.7482  0.3706  2.5553
 2300THY    CA457492   3.937   3.832   6.839  0.1568  0.3897 -1.1732
 2300THY    HA457493   3.937   3.872   6.738  0.0885  1.9218 -0.5893
 2300THY    CA557494   3.876   3.712   6.863 -0.8843 -0.0454 -0.5003
 2300THY    CM157495   3.820   3.648   6.743  0.3120  0.4028 -0.5019
 2300THY    HM157496   3.721   3.692   6.727 -0.2838 -1.0998 -1.1862
 2300THY    HM257497   3.880   3.663   6.652  0.5815 -1.9724 -0.7848
 2300THY    HM357498   3.806   3.540   6.761 -0.9786  0.6374  0.0024
 2300THY    CA657499   3.871   3.652   6.986 -0.0895  0.2157 -0.2143
 2300THY    HA657500   3.827   3.552   6.987 -0.3471  0.2945 -1.6613
 2301THY      O57501   3.454   1.481   6.770  0.2311  0.1580  0.4662
 2301THY     HO57502   3.443   1.406   6.709 -1.1418  0.6655  0.0457
 2301THY    CA157503   3.582   1.522   6.755  0.4473  0.2369  0.3496
 2301THY    CA257504   3.664   1.543   6.865  0.1378 -0.2495  0.1495
 2301THY    CP157505   3.610   1.538   7.009 -0.0294  0.1900  0.6208
 2301THY    HP157506   3.505   1.511   6.996 -0.5996  2.8131 -0.9914
 2301THY    CP257507   3.674   1.434   7.099 -0.4401 -0.3366  0.4638
 2301THY    HP257508   3.660   1.333   7.058  1.6910 -0.6736  0.4202
 2301THY    HP357509   3.775   1.475   7.115  0.2257 -1.2983 -0.9941
 2301THY    HP457510   3.633   1.441   7.200  0.7136 -0.5039  0.9630
 2301THY    CP357511   3.605   1.679   7.060  0.1905 -0.2469 -0.1023
 2301THY    HP557512   3.557   1.753   6.994 -1.4656 -0.9362  0.2842
 2301THY    HP657513   3.554   1.687   7.156 -0.8160  1.8156 -0.7529
 2301THY    HP757514   3.705   1.719   7.080 -0.1570  1.4118 -1.4560
 2301THY    CA357515   3.799   1.571   6.844 -0.8855 -0.2764 -0.0153
 2301THY    HA357516   3.865   1.583   6.929 -1.8289  2.9481  0.4172
 2301THY    CA457517   3.852   1.586   6.711  0.4267 -0.0403  0.7027
 2301THY    HA457518   3.957   1.601   6.686 -0.2359  4.6169 -0.2708
 2301THY    CA557519   3.767   1.566   6.601  0.2673 -0.3027 -0.5122
 2301THY    CM157520   3.820   1.582   6.463 -0.4224 -0.5864  0.6441
 2301THY    HM157521   3.918   1.630   6.470  0.0215 -0.7054 -2.9634
 2301THY    HM257522   3.839   1.483   6.419  0.2645 -0.0394 -0.3068
 2301THY    HM357523   3.766   1.645   6.392 -0.4517 -3.4221 -2.0874
 2301THY    CA657524   3.634   1.525   6.624  0.7235 -1.0002  0.0753
 2301THY    HA657525   3.573   1.501   6.537  2.1830 -1.6286 -0.8330
 2302THY      O57526   5.474   8.350   8.055 -0.0850  0.2065 -0.1690
 2302THY     HO57527   5.501   8.393   7.972 -1.8362  0.9213 -0.4118
 2302THY    CA157528   5.341   8.374   8.064 -0.6719  0.2529  0.0145
 2302THY    CA257529   5.259   8.322   8.165  0.6036 -0.3670 -0.3298
 2302THY    CP157530   5.312   8.226   8.268 -0.3727  0.3464  0.6226
 2302THY    HP157531   5.410   8.266   8.295 -1.0942  2.5445  0.1918
 2302THY    CP257532   5.238   8.210   8.397  0.3813 -0.3414 -0.6388
 2302THY    HP257533   5.296   8.149   8.466 -0.6423 -0.4025  0.2027
 2302THY    HP357534   5.226   8.307   8.448  1.8482 -0.5931  0.2270
 2302THY    HP457535   5.140   8.162   8.382  1.0959 -1.8407 -0.6667
 2302THY    CP357536   5.333   8.087   8.197  0.1074 -0.6314 -0.4057
 2302THY    HP557537   5.359   8.092   8.091 -0.4336 -1.8057 -0.6065
 2302THY    HP657538   5.414   8.037   8.250 -0.0288 -1.8762 -1.3319
 2302THY    HP757539   5.239   8.030   8.204 -0.4381 -0.0023 -1.9849
 2302THY    CA357540   5.119   8.353   8.163  0.2986  0.2369 -0.7294
 2302THY    HA357541   5.044   8.305   8.225  1.7021  0.4656  1.2444
 2302THY    CA457542   5.070   8.442   8.067 -0.7214 -0.1579 -0.7270
 2302THY    HA457543   4.964   8.464   8.064 -0.6612  0.1632 -0.5529
 2302THY    CA557544   5.158   8.490   7.969  0.5926 -0.1955 -0.3479
 2302THY    CM157545   5.108   8.581   7.862  0.0899  1.1016  0.0109
 2302THY    HM157546   5.179   8.663   7.844 -0.4478  1.5082 -0.3072
 2302THY    HM257547   5.089   8.536   7.764  0.3850 -0.3149  0.5844
 2302THY    HM357548   5.014   8.623   7.901 -1.6363  0.8620 -3.5533
 2302THY    CA657549   5.292   8.460   7.969 -0.0403  0.0308  0.1510
 2302THY    HA657550   5.353   8.515   7.898 -0.3931  2.7570  1.8158
 2303THY      O57551   2.772   1.947   0.712 -0.7149 -0.1527 -0.1730
 2303THY     HO57552   2.823   1.966   0.792 -0.2137  0.3308 -0.5986
 2303THY    CA157553   2.838   2.018   0.612 -0.0406  0.7746  0.8222
 2303THY    CA257554   2.864   1.955   0.487 -0.3588  0.2186 -0.2937
 2303THY    CP157555   2.816   1.807   0.463  0.6955 -0.5726  0.3428
 2303THY    HP157556   2.726   1.791   0.522  0.1557 -0.3348 -0.3989
 2303THY    CP257557   2.781   1.788   0.311  0.2164  0.8598  0.5066
 2303THY    HP257558   2.867   1.812   0.247 -0.0719  2.9302  0.8173
 2303THY    HP357559   2.747   1.687   0.285  0.8851  0.2527  1.9110
 2303THY    HP457560   2.699   1.852   0.276 -1.4683 -0.6178  1.5702
 2303THY    CP357561   2.927   1.711   0.511  0.4575  0.7175  0.3221
 2303THY    HP557562   2.890   1.608   0.502  0.2833  0.8283 -0.2715
 2303THY    HP657563   3.020   1.722   0.453  0.9054 -1.3276  0.5629
 2303THY    HP757564   2.955   1.731   0.615  1.2155  0.6391  0.1414
 2303THY    CA357565   2.943   2.025   0.392 -0.1628  0.3374  0.2463
 2303THY    HA357566   2.978   1.974   0.304  1.8506 -0.3900  1.4051
 2303THY    CA457567   2.983   2.159   0.419  0.1234  0.3762 -0.5275
 2303THY    HA457568   3.027   2.214   0.336  0.1526 -0.4955 -1.0928
 2303THY    CA557569   2.946   2.221   0.539 -0.6966 -0.5769  0.2786
 2303THY    CM157570   2.992   2.359   0.561  0.8107  0.3028 -0.3120
 2303THY    HM157571   3.082   2.378   0.502  0.4848  0.6778 -0.6969
 2303THY    HM257572   2.908   2.423   0.532 -0.0968 -0.8758 -0.3705
 2303THY    HM357573   3.014   2.380   0.666  0.0717 -1.8363  0.3263
 2303THY    CA657574   2.885   2.150   0.635 -0.4258  0.0632  0.0871
 2303THY    HA657575   2.873   2.202   0.730  0.6751 -0.6057  0.6155
 2304THY      O57576   0.015   9.307   0.445 -0.3312 -0.0487 -0.0008
 2304THY     HO57577   0.059   9.226   0.414  2.9641  1.7127 -0.3505
 2304THY    CA157578  -0.122   9.299   0.430 -0.2261 -0.8409 -0.4201
 2304THY    CA257579  -0.201   9.408   0.487 -0.9133  0.0748  0.2761
 2304THY    CP157580  -0.136   9.518   0.566 -0.7201 -0.6283  0.3903
 2304THY    HP157581  -0.048   9.488   0.624 -2.0230 -0.0509  2.8177
 2304THY    CP257582  -0.092   9.630   0.470  0.1629 -0.0193 -0.2612
 2304THY    HP257583  -0.180   9.687   0.438  0.4518  0.0880 -0.8868
 2304THY    HP357584  -0.021   9.696   0.521  0.6197 -1.4268  1.0167
 2304THY    HP457585  -0.049   9.589   0.377  0.1713 -0.8933  0.1140
 2304THY    CP357586  -0.231   9.578   0.676  0.3105 -0.0719 -0.1632
 2304THY    HP557587  -0.319   9.632   0.637 -1.1613 -0.4396  2.4081
 2304THY    HP657588  -0.259   9.502   0.750  1.4855  1.4445  1.9386
 2304THY    HP757589  -0.181   9.650   0.742 -1.0645  0.5587  0.2447
 2304THY    CA357590  -0.338   9.414   0.458 -1.1282 -0.6708 -0.2741
 2304THY    HA357591  -0.390   9.505   0.485  0.9930  1.0648 -1.6225
 2304THY    CA457592  -0.396   9.323   0.378  0.9650  0.6033  0.3591
 2304THY    HA457593  -0.499   9.336   0.346  0.5482 -0.7479  1.0737
 2304THY    CA557594  -0.324   9.214   0.330 -0.1951 -0.6483  0.2315
 2304THY    CM157595  -0.384   9.110   0.245  0.4452  0.2956  0.2357
 2304THY    HM157596  -0.341   9.011   0.263  1.7840  0.8879  0.3907
 2304THY    HM257597  -0.493   9.102   0.252  0.0602  2.7298 -1.4828
 2304THY    HM357598  -0.369   9.123   0.137 -1.2879 -0.7352 -0.1624
 2304THY    CA657599  -0.186   9.203   0.350  0.2419  0.3497  0.3509
 2304THY    HA657600  -0.134   9.121   0.299 -1.8234 -1.2341  0.6509
 2305THY      O57601   6.720   5.414   3.102  0.2216  0.1609 -0.0217
 2305THY     HO57602   6.773   5.386   3.026  0.5682 -2.8043  1.1861
 2305THY    CA157603   6.641   5.310   3.128  0.4164 -0.3915  0.6458
 2305THY    CA257604   6.645   5.248   3.253 -0.0712  0.7478 -0.4155
 2305THY    CP157605   6.732   5.314   3.360  0.1067 -0.3613 -0.1039
 2305THY    HP157606   6.803   5.386   3.317  0.3906  1.9506  3.7652
 2305THY    CP257607   6.642   5.389   3.461  0.3659  0.0707 -0.7421
 2305THY    HP257608   6.584   5.472   3.420  0.4037  1.9520  2.5787
 2305THY    HP357609   6.572   5.324   3.516 -1.9374  2.0053 -1.2561
 2305THY    HP457610   6.710   5.438   3.532 -0.0425 -1.7937  1.0536
 2305THY    CP357611   6.811   5.208   3.440 -0.3033  0.1617  0.1678
 2305THY    HP557612   6.905   5.257   3.466 -0.3159  1.2519 -1.6519
 2305THY    HP657613   6.764   5.172   3.532 -1.1707 -0.3865 -0.4696
 2305THY    HP757614   6.832   5.115   3.386 -1.2715  0.0930 -0.1102
 2305THY    CA357615   6.566   5.136   3.281 -0.2406 -0.3227  0.4112
 2305THY    HA357616   6.556   5.102   3.384 -0.4186  0.2560  0.5906
 2305THY    CA457617   6.485   5.091   3.178 -0.3956 -0.2708  0.5820
 2305THY    HA457618   6.413   5.010   3.186 -2.1575  0.9291 -1.8806
 2305THY    CA557619   6.480   5.158   3.053  0.5930  0.3391 -0.2170
 2305THY    CM157620   6.405   5.085   2.937  0.4674 -0.4787 -0.2025
 2305THY    HM157621   6.409   4.976   2.945 -0.8013 -0.4574  1.4211
 2305THY    HM257622   6.299   5.114   2.929  0.0611 -1.8269  0.0352
 2305THY    HM357623   6.454   5.111   2.843 -0.4256  1.2286 -0.2473
 2305THY    CA657624   6.550   5.270   3.030  0.0718  0.1665  0.7217
 2305THY    HA657625   6.542   5.311   2.929 -0.1348 -0.5440  0.4449
 2306THY      O57626   1.292   4.129   0.943  0.6014 -0.5624  0.3185
 2306THY     HO57627   1.292   4.059   0.876  2.4779 -0.2882 -0.0041
 2306THY    CA157628   1.177   4.199   0.923  0.0209  0.7687  0.0931
 2306THY    CA257629   1.157   4.324   0.985 -0.5235  0.2777  0.8497
 2306THY    CP157630   1.272   4.373   1.082 -0.2083 -0.0638 -0.3650
 2306THY    HP157631   1.332   4.298   1.135 -0.9419  0.7291  1.7008
 2306THY    CP257632   1.374   4.463   1.001 -0.4808 -0.0582 -0.8659
 2306THY    HP257633   1.469   4.491   1.049 -1.6597  0.3041  1.3546
 2306THY    HP357634   1.413   4.402   0.917  0.1343  2.0277 -2.1673
 2306THY    HP457635   1.321   4.538   0.941 -1.4899 -1.1778 -1.4161
 2306THY    CP357636   1.221   4.463   1.190  0.1071 -0.0882 -0.5523
 2306THY    HP557637   1.193   4.563   1.156  0.6354 -0.0732 -0.9656
 2306THY    HP657638   1.147   4.413   1.253  0.8617  0.8271  1.1270
 2306THY    HP757639   1.300   4.485   1.263  0.2513 -0.6007 -0.5439
 2306THY    CA357640   1.036   4.394   0.959  0.0584 -0.4761 -0.1468
 2306THY    HA357641   1.023   4.490   1.008  1.6879  0.7256 -1.9077
 2306THY    CA457642   0.947   4.339   0.862  0.1134  0.1955  0.1556
 2306THY    HA457643   0.860   4.397   0.832  0.6365  0.5621 -0.7032
 2306THY    CA557644   0.964   4.207   0.816 -0.3686  0.3676 -0.5445
 2306THY    CM157645   0.865   4.151   0.717  0.2295  0.2147 -0.2653
 2306THY    HM157646   0.875   4.042   0.706 -0.5922 -0.1444  2.0113
 2306THY    HM257647   0.764   4.180   0.749 -0.6432 -1.3315 -1.4880
 2306THY    HM357648   0.872   4.196   0.618 -1.0560  0.0001 -0.4802
 2306THY    CA657649   1.079   4.134   0.846  0.1612 -0.5542 -0.2170
 2306THY    HA657650   1.107   4.045   0.791 -1.1906 -0.4078 -1.2002
 2307THY      O57651   1.933   3.524   8.774 -0.2020  0.3421 -0.1564
 2307THY     HO57652   2.005   3.582   8.744 -0.1865  1.7949  2.4245
 2307THY    CA157653   1.830   3.604   8.736 -0.0831  0.2455  0.1812
 2307THY    CA257654   1.719   3.541   8.691  0.1885 -0.1073  0.3712
 2307THY    CP157655   1.715   3.387   8.669 -0.5555  0.4434 -0.0377
 2307THY    HP157656   1.793   3.338   8.728 -0.3038  2.1102  1.0892
 2307THY    CP257657   1.585   3.320   8.729  0.6257 -0.1490  0.7020
 2307THY    HP257658   1.489   3.370   8.710  0.2175 -1.3867 -0.6954
 2307THY    HP357659   1.577   3.217   8.692 -1.0818  0.0495  0.4487
 2307THY    HP457660   1.585   3.311   8.839 -2.0380 -1.8030  0.6441
 2307THY    CP357661   1.755   3.343   8.531  0.4167 -0.7631  0.5544
 2307THY    HP557662   1.674   3.351   8.457  0.3856 -0.3933  0.6265
 2307THY    HP657663   1.831   3.401   8.477 -1.4923 -2.1365 -4.1857
 2307THY    HP757664   1.784   3.238   8.538 -1.3495 -1.2526  0.9101
 2307THY    CA357665   1.618   3.624   8.645 -0.3101 -0.6274  1.2220
 2307THY    HA357666   1.524   3.581   8.613  0.4534 -0.1922 -1.9046
 2307THY    CA457667   1.628   3.766   8.663 -0.3873  0.2239 -0.0745
 2307THY    HA457668   1.539   3.820   8.632 -1.6632 -2.3450 -1.2056
 2307THY    CA557669   1.738   3.826   8.725  0.9843 -0.2360  0.4034
 2307THY    CM157670   1.736   3.979   8.733  0.5728 -0.5643 -0.0641
 2307THY    HM157671   1.691   4.018   8.641 -1.8660 -2.2333  0.3122
 2307THY    HM257672   1.680   4.016   8.819  1.6740 -0.0097  0.4407
 2307THY    HM357673   1.839   4.016   8.735  0.0065  1.4274 -2.2864
 2307THY    CA657674   1.851   3.744   8.753  0.2465  0.5217  0.1769
 2307THY    HA657675   1.936   3.784   8.808 -0.1347 -0.6872  1.7125
 2308THY      O57676   1.816   3.325   7.319 -0.5771 -0.7415 -0.2911
 2308THY     HO57677   1.883   3.337   7.389 -1.2422 -3.4225  0.9455
 2308THY    CA157678   1.697   3.366   7.373  0.6198 -0.5087  0.0723
 2308THY    CA257679   1.575   3.364   7.299  0.0785  0.8936  0.6383
 2308THY    CP157680   1.571   3.304   7.160 -0.3767 -0.2057  0.0543
 2308THY    HP157681   1.669   3.298   7.113 -0.0203  3.0831  0.1645
 2308THY    CP257682   1.508   3.163   7.170 -0.2843  0.2628  0.0399
 2308THY    HP257683   1.515   3.116   7.071 -1.9063 -0.8269  0.3981
 2308THY    HP357684   1.571   3.096   7.230 -1.0527 -0.0247  0.5491
 2308THY    HP457685   1.407   3.166   7.214 -0.6672  0.2847 -0.8177
 2308THY    CP357686   1.472   3.383   7.063 -0.0087 -0.4938  0.5297
 2308THY    HP557687   1.480   3.338   6.964 -1.2443  0.6683 -0.1306
 2308THY    HP657688   1.372   3.359   7.101  0.9054 -0.7664  2.9610
 2308THY    HP757689   1.488   3.492   7.061  2.6281 -0.8143  0.1822
 2308THY    CA357690   1.455   3.403   7.360 -0.3486 -0.2570  0.1725
 2308THY    HA357691   1.357   3.403   7.314 -1.4474 -0.2518  2.3427
 2308THY    CA457692   1.466   3.448   7.488  0.1191  0.7517  0.2346
 2308THY    HA457693   1.369   3.465   7.535 -0.6699 -1.4969 -0.4466
 2308THY    CA557694   1.589   3.462   7.557  0.0455  0.6236  0.5422
 2308THY    CM157695   1.595   3.504   7.702  0.2769 -0.1451  0.1444
 2308THY    HM157696   1.654   3.433   7.761  1.1948  0.1275 -0.4286
 2308THY    HM257697   1.637   3.605   7.714 -3.3903  1.7541 -1.5432
 2308THY    HM357698   1.499   3.512   7.754 -1.0503 -1.3140 -2.0136
 2308THY    CA657699   1.709   3.421   7.499  0.0807 -0.5008 -0.7239
 2308THY    HA657700   1.806   3.426   7.548 -0.4563  1.5787  0.2636
 2309THY      O57701   2.489   2.490   5.226  0.1540 -0.1766 -0.7534
 2309THY     HO57702   2.409   2.436   5.218 -1.6527  2.0664  0.6863
 2309THY    CA157703   2.516   2.490   5.358 -0.1630 -0.1027 -0.1556
 2309THY    CA257704   2.628   2.559   5.403  0.0783 -0.0455 -1.0091
 2309THY    CP157705   2.726   2.617   5.297  0.1527  0.8866  0.2032
 2309THY    HP157706   2.699   2.570   5.202 -2.1657 -0.8795  1.6323
 2309THY    CP257707   2.716   2.769   5.295 -0.4472 -1.0536 -0.1917
 2309THY    HP257708   2.755   2.806   5.200  0.1887  0.6639  0.6848
 2309THY    HP357709   2.618   2.816   5.300 -0.6986 -1.3101 -2.1647
 2309THY    HP457710   2.772   2.809   5.381 -0.7870 -1.4308  0.2097
 2309THY    CP357711   2.874   2.585   5.329  0.4598  0.3807  0.5681
 2309THY    HP557712   2.892   2.483   5.364  0.1087 -0.5071 -1.6479
 2309THY    HP657713   2.937   2.592   5.240  1.6967  1.0492  1.4730
 2309THY    HP757714   2.917   2.658   5.398 -0.8009  0.5407  1.2253
 2309THY    CA357715   2.642   2.579   5.535  0.1219  0.1079  0.6754
 2309THY    HA357716   2.724   2.636   5.579 -0.3426 -0.0657  1.7947
 2309THY    CA457717   2.549   2.516   5.623  0.2055 -0.8728  0.6985
 2309THY    HA457718   2.562   2.533   5.730  1.2414 -3.4794  1.0538
 2309THY    CA557719   2.439   2.448   5.581  0.3669 -0.6068  0.7970
 2309THY    CM157720   2.355   2.375   5.673  0.3073 -0.7848 -0.0388
 2309THY    HM157721   2.399   2.382   5.773 -0.1949 -0.6969  0.1796
 2309THY    HM257722   2.270   2.440   5.692  1.1338  0.1372  0.5902
 2309THY    HM357723   2.327   2.274   5.640  0.6819 -1.1312  0.6832
 2309THY    CA657724   2.425   2.433   5.442 -0.5091  0.3541 -0.7244
 2309THY    HA657725   2.341   2.381   5.397 -0.1634  0.0523 -1.0285
 2310THY      O57726   2.731   6.279   9.278  0.0685 -0.5197 -0.0092
 2310THY     HO57727   2.635   6.271   9.292  0.0916  0.8995  1.2140
 2310THY    CA157728   2.751   6.324   9.160 -0.1476 -0.4084 -0.2585
 2310THY    CA257729   2.863   6.393   9.128  0.1390 -0.0673  0.4575
 2310THY    CP157730   2.969   6.422   9.241 -1.1957 -0.4572 -0.2454
 2310THY    HP157731   2.975   6.341   9.314 -0.7358  0.8906  1.2714
 2310THY    CP257732   3.117   6.427   9.196  0.0599 -0.8690 -0.2124
 2310THY    HP257733   3.148   6.342   9.134  2.3987 -1.4757  1.6363
 2310THY    HP357734   3.150   6.517   9.142  2.0907 -0.7136  1.1760
 2310THY    HP457735   3.180   6.432   9.285 -0.1206 -1.1517 -0.0687
 2310THY    CP357736   2.934   6.549   9.318 -0.3134 -0.0334  0.4572
 2310THY    HP557737   2.836   6.538   9.366  0.4699 -0.5748  2.0100
 2310THY    HP657738   3.013   6.553   9.394  0.1888 -0.3054 -0.0395
 2310THY    HP757739   2.944   6.642   9.262  0.5692 -0.6057 -0.3740
 2310THY    CA357740   2.888   6.438   8.998 -0.0287 -0.0304 -0.2031
 2310THY    HA357741   2.977   6.499   8.986  0.9909 -1.4217 -0.0143
 2310THY    CA457742   2.797   6.413   8.901  0.0112  0.2515  0.3072
 2310THY    HA457743   2.811   6.461   8.805  1.0927 -3.1122 -1.3680
 2310THY    CA557744   2.687   6.324   8.927  0.0797 -0.3120  0.4278
 2310THY    CM157745   2.595   6.290   8.816 -0.2900 -0.1404  0.0254
 2310THY    HM157746   2.610   6.183   8.797 -0.4462 -0.3138  0.8037
 2310THY    HM257747   2.490   6.300   8.845  0.0855  0.9610  1.0863
 2310THY    HM357748   2.626   6.356   8.735 -0.3046 -1.6952 -1.3118
 2310THY    CA657749   2.661   6.292   9.060 -0.5391  0.7489 -0.2258
 2310THY    HA657750   2.572   6.235   9.084  0.6811 -2.1924 -2.1861
 2311THY      O57751   3.463   0.423   7.661  0.3527 -0.2096  0.0792
 2311THY     HO57752   3.381   0.470   7.637  0.3992 -0.9508 -1.6718
 2311THY    CA157753   3.555   0.479   7.579 -0.1429  1.0230  0.2886
 2311THY    CA257754   3.690   0.429   7.581 -0.4365 -0.4466  0.3817
 2311THY    CP157755   3.724   0.304   7.657  0.1652 -0.1043  0.8016
 2311THY    HP157756   3.634   0.276   7.714  0.1079  1.1298  1.3472
 2311THY    CP257757   3.755   0.190   7.557  0.2732 -0.3188 -1.0128
 2311THY    HP257758   3.850   0.203   7.504 -0.2430  2.5311 -1.3731
 2311THY    HP357759   3.759   0.095   7.612  0.2146 -0.3834 -1.1201
 2311THY    HP457760   3.675   0.178   7.483 -0.3188  0.0093 -0.4373
 2311THY    CP357761   3.832   0.320   7.768  0.2990  0.1876 -0.4051
 2311THY    HP557762   3.801   0.397   7.839  2.8534 -0.1943  1.2466
 2311THY    HP657763   3.849   0.229   7.827  0.5972  1.1567  1.0568
 2311THY    HP757764   3.934   0.340   7.731  1.1676  0.9129  2.1665
 2311THY    CA357765   3.787   0.502   7.502  0.0722  0.4252  0.3917
 2311THY    HA357766   3.891   0.473   7.500  0.8331  2.8575 -2.5375
 2311THY    CA457767   3.747   0.619   7.442 -0.1794  0.1564  0.4488
 2311THY    HA457768   3.825   0.675   7.393  0.4080 -0.0269  1.1534
 2311THY    CA557769   3.616   0.666   7.444 -0.1333 -0.9923 -0.1023
 2311THY    CM157770   3.572   0.792   7.379 -0.0132 -0.4383 -0.2587
 2311THY    HM157771   3.529   0.860   7.453 -1.9807 -1.8934  0.0034
 2311THY    HM257772   3.653   0.837   7.320 -1.1131  0.3234 -1.2556
 2311THY    HM357773   3.494   0.790   7.302  0.7311 -0.5498 -1.0232
 2311THY    CA657774   3.523   0.593   7.505 -0.3658 -0.0798  0.0426
 2311THY    HA657775   3.424   0.639   7.507 -0.0138  0.7669 -1.1172
 2312THY      O57776   1.890   2.828   7.874  0.5419 -0.3750  0.1560
 2312THY     HO57777   1.918   2.857   7.962 -0.1397  1.6617 -0.2458
 2312THY    CA157778   1.765   2.773   7.896 -0.0196 -0.2976  0.5004
 2312THY    CA257779   1.683   2.731   7.792 -0.5221 -0.8217 -0.5270
 2312THY    CP157780   1.732   2.745   7.646 -1.0798  0.2435  0.1164
 2312THY    HP157781   1.841   2.739   7.645 -1.0796 -0.4716 -2.5488
 2312THY    CP257782   1.684   2.633   7.547  0.5981  0.2176  0.0674
 2312THY    HP257783   1.690   2.535   7.595  0.4810  0.4860  0.6333
 2312THY    HP357784   1.580   2.652   7.517  0.1458 -1.6701  0.3110
 2312THY    HP457785   1.747   2.615   7.459 -0.1740 -1.1437 -0.2342
 2312THY    CP357786   1.688   2.886   7.598  0.1084  0.0319 -0.6884
 2312THY    HP557787   1.706   2.903   7.492  0.2425 -0.7395 -0.7959
 2312THY    HP657788   1.578   2.886   7.601  0.0547  3.0263 -0.0648
 2312THY    HP757789   1.737   2.965   7.655 -2.1434  1.5234 -0.7017
 2312THY    CA357790   1.559   2.670   7.825 -0.9827 -0.7134  0.2167
 2312THY    HA357791   1.491   2.633   7.749  0.5639 -0.3948 -1.3874
 2312THY    CA457792   1.508   2.687   7.951  0.1598  0.0027  0.3498
 2312THY    HA457793   1.409   2.649   7.972  0.9187 -2.5938 -0.2927
 2312THY    CA557794   1.585   2.735   8.052  0.1280 -0.7381  0.4301
 2312THY    CM157795   1.532   2.738   8.187  0.1987 -0.0395 -0.4009
 2312THY    HM157796   1.542   2.640   8.236  0.4577  0.5297  0.7080
 2312THY    HM257797   1.590   2.799   8.257  0.0691 -0.2739 -0.0851
 2312THY    HM357798   1.431   2.780   8.191  0.0722 -0.0124 -2.5961
 2312THY    CA657799   1.720   2.765   8.031 -0.9833  0.2284  0.6142
 2312THY    HA657800   1.783   2.785   8.117  0.7736  1.6292 -0.9153
 2313THY      O57801   4.554   6.623   0.743  0.2250 -0.7435 -0.3683
 2313THY     HO57802   4.607   6.661   0.670  1.2454  0.7764  1.0953
 2313THY    CA157803   4.436   6.683   0.745  0.1580 -0.1150 -0.3257
 2313THY    CA257804   4.351   6.671   0.856 -0.3464  0.0711  1.1880
 2313THY    CP157805   4.387   6.574   0.968 -0.3378 -0.4033 -0.9395
 2313THY    HP157806   4.476   6.515   0.940 -0.1212 -1.3321  1.4798
 2313THY    CP257807   4.430   6.642   1.097 -0.2536 -0.6675 -0.0620
 2313THY    HP257808   4.537   6.663   1.096 -0.3908  0.4278  1.8309
 2313THY    HP357809   4.365   6.727   1.123 -1.3674 -1.6823  0.6030
 2313THY    HP457810   4.423   6.572   1.181 -0.4598 -1.4892 -0.7568
 2313THY    CP357811   4.271   6.486   0.997  0.3384  1.1934  0.3343
 2313THY    HP557812   4.189   6.544   1.043 -0.2630  0.6085  0.0115
 2313THY    HP657813   4.239   6.423   0.913 -0.9303  0.5204  1.2820
 2313THY    HP757814   4.297   6.398   1.057 -5.1821 -1.3295 -0.3707
 2313THY    CA357815   4.233   6.745   0.865  0.9398  0.2682  0.1801
 2313THY    HA357816   4.175   6.747   0.957  0.3786  0.2126 -0.1652
 2313THY    CA457817   4.208   6.849   0.770  0.0101  0.1017 -0.1935
 2313THY    HA457818   4.123   6.916   0.767  1.0432  1.4237 -1.6414
 2313THY    CA557819   4.301   6.858   0.660  0.5913 -0.8433 -0.5079
 2313THY    CM157820   4.267   6.961   0.562  0.1058 -0.1342 -0.4230
 2313THY    HM157821   4.192   7.030   0.602  1.3698  0.2578  1.4231
 2313THY    HM257822   4.345   7.014   0.505 -2.6403  2.4077 -2.1212
 2313THY    HM357823   4.220   6.904   0.481 -0.4683  0.6699 -0.6664
 2313THY    CA657824   4.416   6.784   0.650 -0.3016  0.3619 -0.4537
 2313THY    HA657825   4.485   6.799   0.568 -0.0033  2.4485  0.1166
 2314THY      O57826   6.293   3.401   6.878  0.7667  0.5454 -0.4053
 2314THY     HO57827   6.267   3.494   6.873  0.0750  0.3762 -0.0801
 2314THY    CA157828   6.184   3.342   6.926  0.4582 -0.5539  0.0681
 2314THY    CA257829   6.148   3.211   6.879 -0.5867 -0.9646 -1.0758
 2314THY    CP157830   6.257   3.121   6.814  0.0199 -0.1175  0.6425
 2314THY    HP157831   6.350   3.146   6.866  1.7403 -0.4941 -2.0990
 2314THY    CP257832   6.230   2.975   6.838 -0.4334  0.0650  0.6342
 2314THY    HP257833   6.303   2.914   6.784 -0.7455  0.0995  0.1612
 2314THY    HP357834   6.226   2.952   6.945  1.8435  0.1147  0.7720
 2314THY    HP457835   6.136   2.942   6.792  0.9761  0.0799 -2.5188
 2314THY    CP357836   6.273   3.159   6.669 -0.7342 -0.0359  1.0808
 2314THY    HP557837   6.173   3.169   6.624 -1.7743  2.6480  3.6943
 2314THY    HP657838   6.343   3.243   6.656 -0.7162  0.4871  3.9549
 2314THY    HP757839   6.322   3.078   6.613  2.1370  1.6994  0.8789
 2314THY    CA357840   6.014   3.173   6.903  0.0179 -0.2616  0.9181
 2314THY    HA357841   5.962   3.083   6.874 -2.2493  1.2918 -0.1088
 2314THY    CA457842   5.926   3.257   6.979  0.1528 -0.3459  0.1107
 2314THY    HA457843   5.823   3.230   7.000 -0.8696  1.6612 -1.8757
 2314THY    CA557844   5.969   3.374   7.039  0.4285  0.2958  0.4637
 2314THY    CM157845   5.867   3.464   7.115 -0.2187  0.0262 -0.6247
 2314THY    HM157846   5.774   3.486   7.061 -0.3316  1.2062  0.0042
 2314THY    HM257847   5.839   3.409   7.205  1.9893 -0.6375 -0.2806
 2314THY    HM357848   5.906   3.558   7.156 -1.7293  0.7874 -0.8729
 2314THY    CA657849   6.096   3.416   7.004  0.1533 -0.3003 -0.0757
 2314THY    HA657850   6.124   3.516   7.035  2.5958 -0.6836 -0.8030
 2315THY      O57851   7.709   3.187   8.546  0.3180  0.1293 -0.0985
 2315THY     HO57852   7.617   3.168   8.571  0.7168 -0.7268  0.7488
 2315THY    CA157853   7.727   3.322   8.535  0.2503  0.1159 -0.7953
 2315THY    CA257854   7.851   3.379   8.499  0.1037 -0.0192  0.1320
 2315THY    CP157855   7.960   3.291   8.442 -0.0697 -0.5395  0.4936
 2315THY    HP157856   7.959   3.184   8.466  1.0866 -1.0949 -1.6926
 2315THY    CP257857   7.971   3.311   8.280  0.0986  0.5425 -0.1452
 2315THY    HP257858   8.053   3.245   8.248 -0.5603  0.2976 -1.3532
 2315THY    HP357859   7.877   3.281   8.233  0.9754 -1.0677 -0.9367
 2315THY    HP457860   7.994   3.410   8.239  0.4234  0.4895 -0.0955
 2315THY    CP357861   8.101   3.342   8.490 -0.3471  0.2556  0.0196
 2315THY    HP557862   8.095   3.360   8.598  0.2681  0.4302  0.0270
 2315THY    HP657863   8.181   3.271   8.464 -0.4375  0.5162 -0.9747
 2315THY    HP757864   8.135   3.432   8.439  1.4039 -0.8121 -0.7857
 2315THY    CA357865   7.874   3.516   8.513  0.5081 -0.6642 -0.1062
 2315THY    HA357866   7.965   3.571   8.493 -0.5715  1.6950  0.9698
 2315THY    CA457867   7.763   3.590   8.552 -0.3037 -1.2477  0.4163
 2315THY    HA457868   7.779   3.697   8.544  0.7441 -1.4220 -0.0504
 2315THY    CA557869   7.651   3.536   8.605  0.3694  1.5271 -0.9259
 2315THY    CM157870   7.546   3.624   8.661 -0.2398 -0.1508 -0.2908
 2315THY    HM157871   7.460   3.562   8.687  0.9158 -0.5588  3.0621
 2315THY    HM257872   7.566   3.679   8.753  1.8725  0.6652 -1.1691
 2315THY    HM357873   7.514   3.697   8.586 -0.9789 -2.9215 -2.8587
 2315THY    CA657874   7.629   3.404   8.592  0.4008 -0.4475 -0.9745
 2315THY    HA657875   7.536   3.363   8.629 -1.0974  2.7384 -0.8714
 2316THY      O57876   2.337   6.778   6.218  0.1888 -0.6394  0.0630
 2316THY     HO57877   2.321   6.711   6.149 -2.3884  0.2883 -0.3700
 2316THY    CA157878   2.333   6.714   6.330  0.4776 -0.3553 -0.3408
 2316THY    CA257879   2.429   6.734   6.429  0.0807  0.4144 -0.1788
 2316THY    CP157880   2.551   6.818   6.399  0.0768 -0.3775 -0.2491
 2316THY    HP157881   2.567   6.839   6.293 -0.2505  0.8776 -0.0707
 2316THY    CP257882   2.540   6.956   6.474 -0.6492  0.0373  0.0462
 2316THY    HP257883   2.622   7.027   6.460 -0.7744 -0.1382 -1.7212
 2316THY    HP357884   2.447   7.004   6.442 -0.2204  0.4702 -0.5868
 2316THY    HP457885   2.541   6.938   6.582 -1.1515  3.8101  0.8243
 2316THY    CP357886   2.675   6.737   6.448 -0.5844 -0.1711 -0.1364
 2316THY    HP557887   2.760   6.792   6.407 -1.6945  2.4911  0.9347
 2316THY    HP657888   2.693   6.744   6.556  0.2926  0.8914 -0.3406
 2316THY    HP757889   2.674   6.636   6.406  0.3290 -0.3924  0.3451
 2316THY    CA357890   2.404   6.674   6.557  0.1427 -0.5571  0.3476
 2316THY    HA357891   2.477   6.675   6.637  1.3983 -0.3176 -0.7671
 2316THY    CA457892   2.290   6.588   6.562 -0.0030  0.2679 -0.6551
 2316THY    HA457893   2.255   6.546   6.656 -1.0253  1.3903 -0.5078
 2316THY    CA557894   2.188   6.572   6.462 -0.6416 -0.4779  0.3008
 2316THY    CM157895   2.066   6.484   6.471  0.0540 -0.0476  0.5538
 2316THY    HM157896   1.980   6.551   6.459 -0.3906 -1.1323 -4.2541
 2316THY    HM257897   2.056   6.416   6.386 -1.0337  0.5577  0.1895
 2316THY    HM357898   2.052   6.435   6.568 -2.1496  0.7069  0.6712
 2316THY    CA657899   2.221   6.631   6.338  0.4937 -0.2006  0.4270
 2316THY    HA657900   2.149   6.624   6.257  1.8930 -1.0633 -0.7931
 2317THY      O57901   0.791   1.036   8.379 -0.7898 -0.1404 -0.1865
 2317THY     HO57902   0.806   0.968   8.311 -0.4014  0.3659 -0.6174
 2317THY    CA157903   0.690   0.989   8.454 -1.8052 -0.2160  0.3932
 2317THY    CA257904   0.688   1.005   8.590 -0.5091  0.1910 -0.1713
 2317THY    CP157905   0.787   1.100   8.657 -0.1776 -0.2743 -0.5284
 2317THY    HP157906   0.806   1.183   8.588  0.6596 -1.5259 -1.8519
 2317THY    CP257907   0.718   1.167   8.776 -0.0463  0.0124 -0.2434
 2317THY    HP257908   0.776   1.254   8.810 -1.1224  0.6046  0.1260
 2317THY    HP357909   0.620   1.205   8.745 -2.0316 -2.7589  2.0950
 2317THY    HP457910   0.719   1.102   8.865  2.9880 -2.4126 -1.8370
 2317THY    CP357911   0.925   1.042   8.697  0.2657 -0.3650 -0.1121
 2317THY    HP557912   0.928   0.964   8.774  1.2524 -1.7453 -1.4693
 2317THY    HP657913   0.975   1.007   8.606 -0.8517 -2.8117  0.1505
 2317THY    HP757914   0.985   1.127   8.731 -0.7334  0.0630  0.6133
 2317THY    CA357915   0.587   0.941   8.665  0.3162  0.4497  0.0333
 2317THY    HA357916   0.585   0.937   8.774 -0.1177 -0.0973  0.0070
 2317THY    CA457917   0.488   0.872   8.595 -0.4301  0.7743  0.2059
 2317THY    HA457918   0.403   0.826   8.646  1.0501 -1.3072  0.9422
 2317THY    CA557919   0.488   0.867   8.460 -0.0435 -0.5659  0.3285
 2317THY    CM157920   0.392   0.785   8.389 -0.0573 -0.1126  0.2735
 2317THY    HM157921   0.354   0.839   8.301  0.8794 -1.1951 -0.8484
 2317THY    HM257922   0.437   0.698   8.339  2.0540  1.4955 -0.8088
 2317THY    HM357923   0.306   0.751   8.447 -0.2782 -0.3511 -0.1827
 2317THY    CA657924   0.593   0.921   8.389 -0.4996 -0.2754 -0.0613
 2317THY    HA657925   0.605   0.902   8.283  0.1119  1.1668 -0.2635
 2318THY      O57926   0.558   9.727   3.320 -0.0287  0.2164 -0.5514
 2318THY     HO57927   0.549   9.630   3.319  0.8286  0.0041  2.7558
 2318THY    CA157928   0.571   9.759   3.451  0.6120  0.0085 -0.2729
 2318THY    CA257929   0.662   9.860   3.489  0.4582 -0.5735  0.0835
 2318THY    CP157930   0.737   9.932   3.379 -0.4544 -0.4486 -1.0265
 2318THY    HP157931   0.666   9.954   3.299  0.0291 -1.2793 -1.6980
 2318THY    CP257932   0.796  10.073   3.418  0.3631  0.0361 -0.0913
 2318THY    HP257933   0.724  10.135   3.473  1.5286  0.9212  0.4730
 2318THY    HP357934   0.892  10.059   3.469  0.6102  0.5315 -0.4089
 2318THY    HP457935   0.830  10.123   3.326  1.1794  0.9683  0.6878
 2318THY    CP357936   0.855   9.841   3.339 -0.1882 -0.4297  0.9831
 2318THY    HP557937   0.844   9.735   3.364  1.5080 -1.0260 -0.5614
 2318THY    HP657938   0.880   9.864   3.235  2.3576 -1.4876  1.2880
 2318THY    HP757939   0.950   9.874   3.383  0.4714  1.1808 -1.4460
 2318THY    CA357940   0.676   9.887   3.630 -0.5981  0.1477  0.0306
 2318THY    HA357941   0.755   9.949   3.671  1.9473 -2.4660 -0.6352
 2318THY    CA457942   0.586   9.826   3.725 -0.4660  0.3095 -0.0498
 2318THY    HA457943   0.602   9.848   3.830  0.2552 -1.7258  0.3013
 2318THY    CA557944   0.492   9.730   3.681  0.2455 -0.2703 -0.4297
 2318THY    CM157945   0.405   9.661   3.773  0.0975 -0.0410 -0.5966
 2318THY    HM157946   0.473   9.615   3.845 -0.7237 -0.1217  0.1394
 2318THY    HM257947   0.337   9.730   3.825 -0.6223 -1.0163 -0.2279
 2318THY    HM357948   0.343   9.587   3.721  0.9432 -0.3813 -1.1479
 2318THY    CA657949   0.486   9.701   3.545  0.4823 -0.1763 -0.1496
 2318THY    HA657950   0.409   9.630   3.516 -0.0436  0.6312 -0.7796
 2319THY      O57951   5.702   1.531   5.695 -0.7244 -0.1138 -0.1434
 2319THY     HO57952   5.755   1.559   5.772  1.7856  2.9392 -2.6918
 2319THY    CA157953   5.770   1.601   5.602  0.6498  0.4418 -0.2709
 2319THY    CA257954   5.769   1.568   5.466  0.2570  0.5730 -0.3791
 2319THY    CP157955   5.703   1.445   5.420  0.0827  0.2138 -0.1795
 2319THY    HP157956   5.644   1.403   5.503 -0.0993 -1.0207 -0.8966
 2319THY    CP257957   5.600   1.480   5.311  0.2089  0.0157  0.6477
 2319THY    HP257958   5.538   1.558   5.355  0.7767 -0.5191  2.4565
 2319THY    HP357959   5.649   1.530   5.226  0.2627 -0.9138  0.1186
 2319THY    HP457960   5.544   1.390   5.284 -1.2744  1.1621 -0.2480
 2319THY    CP357961   5.794   1.333   5.365 -0.2479 -0.8286 -0.6570
 2319THY    HP557962   5.875   1.315   5.436 -1.5570 -1.4824  0.7343
 2319THY    HP657963   5.729   1.250   5.334 -3.2692  0.7786  0.9427
 2319THY    HP757964   5.851   1.366   5.277  1.8511  0.8956  1.2478
 2319THY    CA357965   5.848   1.646   5.379  0.0786 -0.1543 -0.1184
 2319THY    HA357966   5.844   1.611   5.277 -2.8622 -0.2437 -0.0352
 2319THY    CA457967   5.929   1.750   5.432  0.6006 -0.2454  0.5913
 2319THY    HA457968   5.987   1.803   5.357  1.9580 -0.7127  1.2821
 2319THY    CA557969   5.921   1.782   5.565  0.2137 -0.1625  0.2885
 2319THY    CM157970   5.986   1.916   5.608 -0.2407  0.0524  0.2472
 2319THY    HM157971   5.904   1.986   5.627 -1.4799 -0.6703 -1.9638
 2319THY    HM257972   6.051   1.919   5.696  0.4536  1.2396 -0.2848
 2319THY    HM357973   6.052   1.960   5.533  2.6336 -3.2171  0.6087
 2319THY    CA657974   5.849   1.706   5.654  0.0870 -0.2283 -0.5418
 2319THY    HA657975   5.844   1.740   5.757  0.7860 -1.4321 -0.0878
 2320THY      O57976   8.515   0.153   8.893 -0.3147 -0.5723 -0.5361
 2320THY     HO57977   8.547   0.171   8.803 -0.2145 -1.6782 -0.7324
 2320THY    CA157978   8.516   0.025   8.907  0.0321 -0.8365  0.3776
 2320THY    CA257979   8.504  -0.036   9.028  0.1846  0.4364 -0.4944
 2320THY    CP157980   8.487   0.050   9.157  0.0545 -0.8147  0.1249
 2320THY    HP157981   8.483   0.158   9.140  0.4270 -0.7099  0.6974
 2320THY    CP257982   8.367   0.019   9.248 -0.3204  0.0364 -0.2464
 2320THY    HP257983   8.375   0.076   9.341 -1.0909 -1.6233  0.8847
 2320THY    HP357984   8.281   0.037   9.182  0.9557  0.3950 -1.8909
 2320THY    HP457985   8.372  -0.087   9.275  1.0187 -0.0187 -0.6396
 2320THY    CP357986   8.621   0.032   9.225 -0.6382  0.5044  0.4342
 2320THY    HP557987   8.633   0.100   9.311  0.6121  0.3606  0.3840
 2320THY    HP657988   8.634  -0.071   9.261 -1.3515  0.3560  0.2828
 2320THY    HP757989   8.700   0.049   9.151 -1.5953  1.5182 -0.3928
 2320THY    CA357990   8.481  -0.172   9.035  0.5812  0.1848  0.4185
 2320THY    HA357991   8.453  -0.216   9.130 -1.6831  0.0744 -0.2473
 2320THY    CA457992   8.483  -0.244   8.912 -0.1655 -0.0192 -0.5116
 2320THY    HA457993   8.449  -0.347   8.906 -0.2422 -0.1353  1.3853
 2320THY    CA557994   8.513  -0.181   8.795  0.7415  0.6577  0.2774
 2320THY    CM157995   8.521  -0.266   8.669 -0.0242  0.3627  0.1717
 2320THY    HM157996   8.582  -0.356   8.682 -0.6592 -0.1410 -0.3061
 2320THY    HM257997   8.422  -0.301   8.640  0.5700 -0.7144 -0.6181
 2320THY    HM357998   8.561  -0.208   8.585  1.4881 -1.5005 -0.4865
 2320THY    CA657999   8.526  -0.046   8.788  0.2920 -0.0610  0.1064
 2320THY    HA658000   8.554   0.001   8.694 -0.3487  0.4514  0.1605
 2321THY      O58001   7.846   1.474   8.614 -0.0948 -0.2886  0.2440
 2321THY     HO58002   7.847   1.510   8.705  0.2848  3.2511 -0.9960
 2321THY    CA158003   7.866   1.339   8.621 -0.2854  0.3524 -0.4065
 2321THY    CA258004   7.805   1.247   8.532 -0.0891 -0.5301 -0.5217
 2321THY    CP158005   7.700   1.290   8.430 -0.3696 -0.3348 -0.4546
 2321THY    HP158006   7.670   1.392   8.458  1.9535  0.2580  0.1132
 2321THY    CP258007   7.751   1.318   8.284 -0.0816  0.5997  0.4997
 2321THY    HP258008   7.832   1.392   8.292  1.3182 -1.0235  2.2671
 2321THY    HP358009   7.790   1.224   8.243 -1.6567 -0.2969  0.9956
 2321THY    HP458010   7.663   1.355   8.230 -0.9132 -0.8857  0.7753
 2321THY    CP358011   7.582   1.190   8.418 -0.3940  0.3814  0.1421
 2321THY    HP558012   7.510   1.220   8.341 -1.3035 -2.3253 -0.1694
 2321THY    HP658013   7.631   1.098   8.384 -0.8524  0.4365 -0.7057
 2321THY    HP758014   7.527   1.158   8.507  0.0256  0.9570  0.6158
 2321THY    CA358015   7.846   1.111   8.535  0.3827 -0.1171  0.5231
 2321THY    HA358016   7.801   1.037   8.469  0.9295 -0.6469  0.7359
 2321THY    CA458017   7.931   1.064   8.638 -0.0579 -0.2331 -0.4137
 2321THY    HA458018   7.960   0.960   8.647 -1.0699 -0.4272  0.7565
 2321THY    CA558019   7.997   1.157   8.721 -0.4329 -0.5238  0.1845
 2321THY    CM158020   8.104   1.115   8.827 -0.0013 -0.5226 -0.3254
 2321THY    HM158021   8.059   1.138   8.924 -1.2297  0.0380 -1.0129
 2321THY    HM258022   8.122   1.007   8.828 -1.1315 -0.7268  0.4245
 2321THY    HM358023   8.198   1.172   8.826  0.9810 -2.0793 -0.6266
 2321THY    CA658024   7.962   1.292   8.713 -0.1128 -0.2181 -0.2978
 2321THY    HA658025   8.004   1.367   8.780  0.7690 -0.4595 -0.5786
 2322THY      O58026   4.275   1.586   7.489 -0.5454 -0.1966  0.5078
 2322THY     HO58027   4.200   1.594   7.550 -0.8030 -0.0017  0.1682
 2322THY    CA158028   4.299   1.455   7.483  0.4055  0.1224 -0.4535
 2322THY    CA258029   4.401   1.396   7.398  0.3013 -0.0370  0.1527
 2322THY    CP158030   4.482   1.479   7.306  0.0665 -0.0974 -0.6143
 2322THY    HP158031   4.457   1.586   7.306 -0.0526 -0.1140  0.9563
 2322THY    CP258032   4.624   1.482   7.349 -0.3259  0.3487 -0.2042
 2322THY    HP258033   4.620   1.502   7.457 -2.1556  0.1988 -0.2140
 2322THY    HP358034   4.671   1.386   7.327 -0.3543 -0.4159  2.6509
 2322THY    HP458035   4.678   1.562   7.299 -0.5231  0.3907 -0.3505
 2322THY    CP358036   4.475   1.418   7.168  0.6130  0.4376  0.1350
 2322THY    HP558037   4.538   1.331   7.148  1.1593  1.2898 -2.1905
 2322THY    HP658038   4.374   1.379   7.155  0.3340  0.8470  0.9813
 2322THY    HP758039   4.507   1.491   7.092  2.4602 -0.9506 -0.4963
 2322THY    CA358040   4.422   1.256   7.408  0.6159 -0.1229  0.6234
 2322THY    HA358041   4.494   1.213   7.339  1.3809  1.8079  0.1595
 2322THY    CA458042   4.338   1.174   7.489  0.5068 -0.0803  0.2617
 2322THY    HA458043   4.342   1.066   7.483 -1.2196 -0.2811  1.6918
 2322THY    CA558044   4.235   1.233   7.554  0.0907  0.1795 -0.3516
 2322THY    CM158045   4.134   1.140   7.617  0.1807  0.3023 -0.3291
 2322THY    HM158046   4.071   1.082   7.548 -0.8747 -0.9668  1.6056
 2322THY    HM258047   4.182   1.064   7.679 -1.5516  0.2615  1.0584
 2322THY    HM358048   4.066   1.183   7.692 -0.5504 -0.0738 -0.7588
 2322THY    CA658049   4.215   1.369   7.565  0.0160 -0.6608  0.3356
 2322THY    HA658050   4.117   1.399   7.601 -0.6025  0.8509 -2.3202
 2323THY      O58051   0.073   4.149   3.988  0.1482  0.2617 -0.0825
 2323THY     HO58052   0.118   4.235   3.986  2.0308 -0.4335  3.5388
 2323THY    CA158053   0.045   4.136   4.117  1.2534  0.1320 -0.3598
 2323THY    CA258054  -0.066   4.063   4.165  0.1770  0.6093  0.4208
 2323THY    CP158055  -0.150   3.973   4.066 -0.3859 -0.0352 -0.6628
 2323THY    HP158056  -0.131   3.990   3.959  2.1028 -1.6112 -0.5537
 2323THY    CP258057  -0.112   3.827   4.087 -0.7757 -0.1217 -0.3264
 2323THY    HP258058  -0.135   3.769   3.998 -0.1926  0.4800 -0.8780
 2323THY    HP358059  -0.004   3.815   4.075 -1.0151 -0.5431 -2.3642
 2323THY    HP458060  -0.154   3.790   4.182 -0.7978  3.5617  1.2799
 2323THY    CP358061  -0.299   4.000   4.088  0.7079 -0.0395 -1.0510
 2323THY    HP558062  -0.326   4.098   4.048 -1.4505 -0.3245 -0.4589
 2323THY    HP658063  -0.370   3.925   4.050 -0.5370  0.7700 -0.3934
 2323THY    HP758064  -0.318   4.005   4.196  1.6266  0.3195 -0.9027
 2323THY    CA358065  -0.093   4.063   4.304 -0.3354  0.0127 -0.0480
 2323THY    HA358066  -0.172   3.996   4.338 -0.6455 -1.3160 -3.1024
 2323THY    CA458067  -0.008   4.133   4.388 -0.3501 -0.2088  0.1618
 2323THY    HA458068  -0.021   4.132   4.496 -0.4748  1.9508  0.2208
 2323THY    CA558069   0.102   4.211   4.342  0.2360  0.7076 -0.3479
 2323THY    CM158070   0.197   4.281   4.432 -0.2559 -0.1651  0.4646
 2323THY    HM158071   0.161   4.369   4.486 -3.2310 -0.8405 -0.2303
 2323THY    HM258072   0.232   4.205   4.503 -0.4575  0.1990  0.9519
 2323THY    HM358073   0.291   4.309   4.382  0.6049 -1.5479  1.2368
 2323THY    CA658074   0.129   4.198   4.205  0.0875  0.7777  0.0254
 2323THY    HA658075   0.216   4.251   4.167  0.5634 -0.8801 -1.3223
 2324THY      O58076   0.226   3.436   8.096  0.1357 -0.4911 -0.4906
 2324THY     HO58077   0.142   3.412   8.054 -0.6360 -0.0931  0.7740
 2324THY    CA158078   0.238   3.379   8.218 -0.0166  0.4918 -0.7008
 2324THY    CA258079   0.341   3.410   8.307  0.0636  0.3914 -0.3081
 2324THY    CP158080   0.431   3.525   8.280 -0.4977  0.3798 -0.3464
 2324THY    HP158081   0.438   3.548   8.173  0.0066 -0.3076 -0.4692
 2324THY    CP258082   0.382   3.657   8.342  0.5631  0.2599 -0.1058
 2324THY    HP258083   0.462   3.730   8.359  0.8009 -0.1018  0.3624
 2324THY    HP358084   0.295   3.691   8.286  1.0731 -0.2712 -1.2777
 2324THY    HP458085   0.347   3.643   8.445  1.7139 -2.2619  0.0296
 2324THY    CP358086   0.576   3.494   8.323  0.1784  0.4947  0.0776
 2324THY    HP558087   0.608   3.394   8.292  1.4336  1.4453 -1.8329
 2324THY    HP658088   0.638   3.573   8.280  0.1343  1.3233  1.4834
 2324THY    HP758089   0.591   3.500   8.431 -0.0340  1.6551  0.0560
 2324THY    CA358090   0.346   3.346   8.436  0.1799  0.2887  0.1544
 2324THY    HA358091   0.432   3.367   8.500  0.2500  1.9882 -0.4412
 2324THY    CA458092   0.255   3.244   8.470 -0.3093  1.0245 -0.2907
 2324THY    HA458093   0.261   3.185   8.561 -1.9884  3.8145  1.8022
 2324THY    CA558094   0.151   3.214   8.379  0.0521  0.0029 -0.1556
 2324THY    CM158095   0.051   3.101   8.421  0.1188  0.1529  0.0696
 2324THY    HM158096   0.026   3.119   8.526 -2.1805  1.0769 -0.5618
 2324THY    HM258097  -0.040   3.089   8.361 -0.0628 -0.9400  0.5428
 2324THY    HM358098   0.108   3.008   8.411 -0.1307 -0.1440  1.3119
 2324THY    CA658099   0.140   3.281   8.254 -0.7688 -0.4090 -0.4260
 2324THY    HA658100   0.065   3.255   8.179 -1.6777  1.2867 -0.1505
 2325THY      O58101   1.799   5.211   1.637 -0.5123 -0.5110 -0.4382
 2325THY     HO58102   1.833   5.298   1.609 -0.7560 -0.6462 -1.1761
 2325THY    CA158103   1.912   5.138   1.658  0.0727 -0.3393  0.1203
 2325THY    CA258104   1.917   5.001   1.667  0.9941  0.8678  0.0161
 2325THY    CP158105   1.782   4.919   1.662 -0.2360  0.3509  0.0794
 2325THY    HP158106   1.704   4.995   1.675 -1.2359 -1.0941  4.6753
 2325THY    CP258107   1.764   4.840   1.530 -0.0724 -0.8745 -0.3009
 2325THY    HP258108   1.820   4.747   1.544  0.0090 -1.2907 -2.8898
 2325THY    HP358109   1.657   4.834   1.508  0.2507  1.2604 -3.1209
 2325THY    HP458110   1.808   4.886   1.441 -2.5240  1.6720 -0.3672
 2325THY    CP358111   1.766   4.825   1.788 -0.2581 -0.0193  0.3782
 2325THY    HP558112   1.829   4.737   1.773  0.1000  0.3485 -0.3574
 2325THY    HP658113   1.801   4.878   1.878 -1.0265  0.3999  0.4397
 2325THY    HP758114   1.660   4.803   1.802 -0.0693 -0.3820  1.3006
 2325THY    CA358115   2.041   4.933   1.676  0.9074  0.5045  0.3280
 2325THY    HA358116   2.046   4.825   1.678 -1.0957  0.3814  0.1472
 2325THY    CA458117   2.160   5.006   1.669 -0.6973  0.5777  0.8804
 2325THY    HA458118   2.255   4.955   1.670  0.2102  1.9377 -2.6761
 2325THY    CA558119   2.146   5.146   1.656  0.1466 -0.2264 -0.2511
 2325THY    CM158120   2.268   5.223   1.628 -0.1065 -0.2857  0.5289
 2325THY    HM158121   2.339   5.172   1.562 -1.1219 -1.8139  0.5839
 2325THY    HM258122   2.259   5.322   1.579 -0.0346 -1.5271 -2.1932
 2325THY    HM358123   2.315   5.240   1.725 -2.0867 -1.5316  1.7662
 2325THY    CA658124   2.027   5.214   1.655  0.1635  0.1334  0.1417
 2325THY    HA658125   2.011   5.321   1.649 -1.2806 -0.0644  0.2020
 2326THY      O58126   7.577   9.054   7.099  0.1057  0.2477  0.0737
 2326THY     HO58127   7.579   9.142   7.057  1.8877  0.3759  0.3565
 2326THY    CA158128   7.453   9.050   7.143 -0.0637 -0.8775  0.0704
 2326THY    CA258129   7.428   8.959   7.254 -0.9076 -0.9056  0.6047
 2326THY    CP158130   7.541   8.869   7.308 -0.0321 -0.0129 -0.0807
 2326THY    HP158131   7.637   8.879   7.256 -0.9722 -0.7883 -2.0702
 2326THY    CP258132   7.570   8.880   7.458  0.3551 -0.3246 -0.1790
 2326THY    HP258133   7.653   8.813   7.480  0.8051  0.6957  1.3678
 2326THY    HP358134   7.607   8.980   7.482  2.3677 -0.5880 -1.8860
 2326THY    HP458135   7.486   8.858   7.525  1.3018  1.0245  1.5274
 2326THY    CP358136   7.485   8.724   7.276  0.8677 -0.5134 -0.1691
 2326THY    HP558137   7.455   8.729   7.171 -0.8222 -0.1237  0.2915
 2326THY    HP658138   7.568   8.658   7.301  1.2672  0.4464  1.1272
 2326THY    HP758139   7.409   8.685   7.345  1.3937  1.1608  1.4340
 2326THY    CA358140   7.298   8.965   7.309 -0.4758  0.1953 -0.4469
 2326THY    HA358141   7.278   8.897   7.391  0.9140 -1.5129 -1.4484
 2326THY    CA458142   7.208   9.048   7.255  0.6819  0.6972 -0.7551
 2326THY    HA458143   7.112   9.055   7.305  1.3418 -1.6747  1.0212
 2326THY    CA558144   7.230   9.135   7.151  0.3042  0.3124  0.1526
 2326THY    CM158145   7.121   9.224   7.103 -0.5126  0.2950 -0.5838
 2326THY    HM158146   7.088   9.287   7.186  2.0126  3.6621 -1.8798
 2326THY    HM258147   7.159   9.303   7.036  2.5597  1.1251  1.9019
 2326THY    HM358148   7.039   9.174   7.050  0.3984 -0.8493 -0.9815
 2326THY    CA658149   7.356   9.135   7.091  0.4775  0.2462  0.4584
 2326THY    HA658150   7.367   9.191   6.998 -1.3569 -0.7012 -0.3867
 2327THY      O58151   9.577   6.238   0.414 -0.3881 -0.3851  0.4295
 2327THY     HO58152   9.672   6.246   0.392 -0.9728  0.1375 -2.2469
 2327THY    CA158153   9.568   6.258   0.542 -0.2500 -0.4165 -0.1988
 2327THY    CA258154   9.547   6.157   0.624  0.1417 -0.2842 -0.0678
 2327THY    CP158155   9.534   6.011   0.575  0.8495 -0.2204 -0.2268
 2327THY    HP158156   9.510   6.010   0.468 -0.0717  1.7436 -0.0705
 2327THY    CP258157   9.668   5.944   0.591  0.0528 -0.2570  0.0856
 2327THY    HP258158   9.717   5.935   0.493  1.5185  0.9983  0.6642
 2327THY    HP358159   9.741   6.005   0.645  0.3500 -0.8999  0.4174
 2327THY    HP458160   9.650   5.850   0.644 -0.1417 -0.9326 -1.1327
 2327THY    CP358161   9.421   5.932   0.637 -0.3187  0.2498  0.3359
 2327THY    HP558162   9.405   5.840   0.579 -0.8396  0.9150 -0.6008
 2327THY    HP658163   9.425   5.907   0.744  1.3425 -1.5876 -0.0914
 2327THY    HP758164   9.325   5.985   0.628  0.0135  0.9752  0.9308
 2327THY    CA358165   9.528   6.183   0.762  0.5287 -0.1205  0.6592
 2327THY    HA358166   9.503   6.098   0.824  1.5086 -2.2858 -1.7482
 2327THY    CA458167   9.527   6.315   0.811 -0.7751 -0.3190 -0.2044
 2327THY    HA458168   9.515   6.334   0.917  1.7869  0.2150  0.0579
 2327THY    CA558169   9.555   6.422   0.724 -0.3076  0.3530 -0.3771
 2327THY    CM158170   9.576   6.559   0.773  0.2861 -0.3325 -0.0800
 2327THY    HM158171   9.570   6.626   0.686 -0.4691 -1.2748 -0.7844
 2327THY    HM258172   9.503   6.591   0.848  0.2698  2.2549 -1.1051
 2327THY    HM358173   9.675   6.569   0.818  1.0636 -2.3106 -1.2178
 2327THY    CA658174   9.571   6.396   0.591 -0.3583 -0.4764 -0.9080
 2327THY    HA658175   9.592   6.476   0.521 -1.4768  0.0640 -0.6512
 2328THY      O58176   1.678   1.525   3.226  0.8982 -0.3159  0.1986
 2328THY     HO58177   1.687   1.608   3.175  1.1602  1.2203  2.5707
 2328THY    CA158178   1.757   1.549   3.328  0.6400 -0.4354  0.0200
 2328THY    CA258179   1.827   1.452   3.393  0.6499  0.4208  0.1502
 2328THY    CP158180   1.833   1.304   3.345 -0.1983 -0.0087  0.5275
 2328THY    HP158181   1.800   1.296   3.240  2.9438 -1.4498 -0.4801
 2328THY    CP258182   1.963   1.228   3.353 -0.5824  0.0543 -0.4310
 2328THY    HP258183   1.965   1.128   3.309  0.0274  0.2424 -0.8577
 2328THY    HP358184   2.045   1.289   3.312  0.7356 -0.2966  1.5340
 2328THY    HP458185   1.993   1.220   3.458  0.9381  0.4386 -0.8083
 2328THY    CP358186   1.727   1.221   3.423  0.4367 -0.1128 -0.0626
 2328THY    HP558187   1.705   1.128   3.370  2.9092 -0.6353 -0.2812
 2328THY    HP658188   1.768   1.207   3.523  1.7802  3.0791 -0.0324
 2328THY    HP758189   1.637   1.281   3.441  0.2362 -0.5598  0.4348
 2328THY    CA358190   1.910   1.488   3.501 -0.9277 -0.0847  0.1712
 2328THY    HA358191   1.974   1.414   3.547 -0.3734 -0.2347 -0.7988
 2328THY    CA458192   1.919   1.624   3.541 -0.2559 -0.2295  0.7557
 2328THY    HA458193   1.988   1.644   3.622  0.8924 -1.5568  0.1431
 2328THY    CA558194   1.833   1.720   3.480  0.3661 -0.4209  0.0052
 2328THY    CM158195   1.820   1.857   3.543  0.6413  0.4324  0.3946
 2328THY    HM158196   1.833   1.839   3.650  1.1726 -2.3940 -0.0675
 2328THY    HM258197   1.896   1.922   3.498  1.9563  0.3491  2.3647
 2328THY    HM358198   1.719   1.898   3.530  1.2061  2.0056  0.7196
 2328THY    CA658199   1.752   1.683   3.376 -0.4966 -0.0062 -0.3090
 2328THY    HA658200   1.677   1.758   3.351 -1.4150 -0.8037  0.0181
 2329THY      O58201   5.919   6.276   5.352 -0.2289 -0.5285 -0.3031
 2329THY     HO58202   5.866   6.247   5.428 -1.8775  1.9747 -0.4020
 2329THY    CA158203   5.945   6.412   5.358 -0.0273 -0.1584 -0.5945
 2329THY    CA258204   5.906   6.487   5.472 -1.2635  0.2487  0.5924
 2329THY    CP158205   5.827   6.424   5.585  0.2545 -0.3309  0.7877
 2329THY    HP158206   5.844   6.316   5.577 -3.3257 -1.0791  1.2898
 2329THY    CP258207   5.863   6.465   5.732  0.2764  0.4917 -1.1175
 2329THY    HP258208   5.865   6.574   5.745  1.3321  0.5429 -1.6512
 2329THY    HP358209   5.805   6.408   5.805  0.2613  0.6471 -1.0079
 2329THY    HP458210   5.962   6.425   5.754 -0.4488 -1.1998 -0.8069
 2329THY    CP358211   5.675   6.442   5.550  0.3798 -0.4646  0.0796
 2329THY    HP558212   5.662   6.414   5.445 -1.0642  2.2968 -0.5757
 2329THY    HP658213   5.606   6.392   5.618  0.3574 -1.6590 -0.7895
 2329THY    HP758214   5.656   6.549   5.540  1.0625 -0.3458 -0.0166
 2329THY    CA358215   5.927   6.629   5.464  0.3242  0.3152  0.1237
 2329THY    HA358216   5.899   6.690   5.549  0.5139 -2.1282  2.0514
 2329THY    CA458217   5.989   6.685   5.352 -0.4976 -0.2522  0.7298
 2329THY    HA458218   6.007   6.792   5.352  1.2566 -0.5288  0.9430
 2329THY    CA558219   6.028   6.607   5.244 -0.4360 -0.3477  0.0635
 2329THY    CM158220   6.098   6.669   5.120  0.3925 -0.3163 -1.1289
 2329THY    HM158221   6.083   6.613   5.026  0.3297  3.3189 -3.4875
 2329THY    HM258222   6.059   6.769   5.097  1.7600  0.2599 -0.9851
 2329THY    HM358223   6.205   6.682   5.137  0.2297 -0.2247 -0.1534
 2329THY    CA658224   6.007   6.469   5.249  0.3339 -0.2020 -0.5091
 2329THY    HA658225   6.027   6.405   5.164 -0.5055 -1.2740  0.0632
 2330THY      O58226   4.270   4.339   5.762  0.2136 -0.6318 -0.1306
 2330THY     HO58227   4.300   4.363   5.851 -1.9740  0.9944  0.2479
 2330THY    CA158228   4.289   4.205   5.742  0.0578 -0.2610 -0.6890
 2330THY    CA258229   4.261   4.151   5.616 -0.4296  0.1832 -0.2943
 2330THY    CP158230   4.202   4.229   5.501  0.1771  0.0982  0.0562
 2330THY    HP158231   4.177   4.329   5.538  0.1509  0.5208 -1.0609
 2330THY    CP258232   4.312   4.244   5.390 -0.0995 -0.8776  0.0343
 2330THY    HP258233   4.402   4.298   5.421 -1.0710 -0.5636  2.6268
 2330THY    HP358234   4.336   4.143   5.356  0.3570 -0.5200 -0.7091
 2330THY    HP458235   4.262   4.299   5.310 -0.1917  0.7692  1.1580
 2330THY    CP358236   4.066   4.167   5.445  0.7203 -0.1893 -0.4834
 2330THY    HP558237   4.006   4.159   5.537  0.6179 -0.2920 -0.5596
 2330THY    HP658238   4.014   4.241   5.383 -1.8122  0.8233  2.5542
 2330THY    HP758239   4.053   4.071   5.394 -3.0570 -1.2193  2.0301
 2330THY    CA358240   4.270   4.013   5.601 -0.7877 -0.0426  0.0181
 2330THY    HA358241   4.241   3.954   5.514  1.2506 -0.8184 -0.1681
 2330THY    CA458242   4.313   3.930   5.704  0.3588  0.0264 -0.0271
 2330THY    HA458243   4.332   3.826   5.684 -1.7922 -0.1156 -1.6309
 2330THY    CA558244   4.355   3.989   5.821 -0.5783 -0.0902 -0.2738
 2330THY    CM158245   4.399   3.901   5.940  0.1933 -0.0186 -0.0573
 2330THY    HM158246   4.410   3.798   5.904 -0.8433  0.1405 -0.8915
 2330THY    HM258247   4.496   3.918   5.988  0.7808 -4.2171  0.6224
 2330THY    HM358248   4.321   3.891   6.016  0.5017  1.6749  0.5241
 2330THY    CA658249   4.342   4.125   5.843 -0.2613 -0.3668  0.0040
 2330THY    HA658250   4.354   4.170   5.941  0.9511 -2.3859  0.8420
 2331THY      O58251   8.483   3.523   0.927  0.2981 -0.3983  0.5320
 2331THY     HO58252   8.428   3.603   0.930  2.1915  0.9902  0.2993
 2331THY    CA158253   8.424   3.444   0.826 -0.2075 -0.2183  0.3087
 2331THY    CA258254   8.490   3.335   0.765 -0.8791  0.3149 -0.2450
 2331THY    CP158255   8.632   3.306   0.817 -0.3803  0.0085  0.3396
 2331THY    HP158256   8.684   3.398   0.848 -0.9702  0.1607  0.9024
 2331THY    CP258257   8.637   3.216   0.945  0.0035  0.0273  0.4883
 2331THY    HP258258   8.723   3.149   0.947  0.1464  0.2199  0.9891
 2331THY    HP358259   8.661   3.293   1.020 -2.5235  0.7583  0.6602
 2331THY    HP458260   8.538   3.173   0.967 -0.9593  1.9153  0.0889
 2331THY    CP358261   8.729   3.242   0.698  1.0373  0.6781  0.4821
 2331THY    HP558262   8.741   3.301   0.607 -2.0913  2.3092  1.0070
 2331THY    HP658263   8.830   3.215   0.731  2.8109  0.0639 -4.5281
 2331THY    HP758264   8.687   3.145   0.671 -0.4687  1.2998  0.5344
 2331THY    CA358265   8.426   3.254   0.675  0.1555  0.4361  0.8146
 2331THY    HA358266   8.464   3.160   0.637 -2.9828 -1.1613  1.2913
 2331THY    CA458267   8.298   3.294   0.633  0.0806  0.5793  0.2119
 2331THY    HA458268   8.244   3.235   0.560 -0.0960  0.9321  0.0512
 2331THY    CA558269   8.239   3.410   0.681  0.3844  0.3365 -0.5335
 2331THY    CM158270   8.099   3.452   0.630 -0.2937 -0.4919 -0.7373
 2331THY    HM158271   8.012   3.399   0.671  0.0338 -0.4123  0.0818
 2331THY    HM258272   8.075   3.553   0.667 -1.3856 -0.6767 -0.8968
 2331THY    HM358273   8.085   3.445   0.521 -2.0173  1.6191 -0.7290
 2331THY    CA658274   8.298   3.484   0.779 -0.8107 -0.1318 -0.4923
 2331THY    HA658275   8.245   3.564   0.831  0.9094  0.0606  1.0719
 2332THY      O58276   3.925   5.126   3.068 -0.1401 -0.1000  0.5818
 2332THY     HO58277   4.002   5.101   3.014 -0.1446 -1.8366  1.3138
 2332THY    CA158278   3.825   5.074   3.001 -0.7970  0.0368  0.0945
 2332THY    CA258279   3.696   5.052   3.053  0.0168  0.4017 -0.1920
 2332THY    CP158280   3.664   5.102   3.190  0.1623  0.0835  0.4554
 2332THY    HP158281   3.752   5.136   3.246  0.8557 -1.1027  0.1144
 2332THY    CP258282   3.569   5.224   3.181  0.5954 -0.0314  0.0894
 2332THY    HP258283   3.477   5.213   3.123 -0.3574  1.6139  1.2031
 2332THY    HP358284   3.530   5.273   3.271 -2.7806  0.9312 -1.7195
 2332THY    HP458285   3.618   5.303   3.122  0.1205  0.0614 -0.1841
 2332THY    CP358286   3.587   4.992   3.268  0.1250 -0.1391 -0.0485
 2332THY    HP558287   3.649   4.902   3.270 -0.3549 -0.5223 -1.4440
 2332THY    HP658288   3.572   5.020   3.373 -1.9917 -2.3051  0.3159
 2332THY    HP758289   3.492   4.972   3.218  0.0465  3.3755 -1.6038
 2332THY    CA358290   3.603   4.976   2.973 -0.3083  0.5607 -1.1817
 2332THY    HA358291   3.507   4.946   3.012  1.2280 -2.1666  0.8417
 2332THY    CA458292   3.637   4.935   2.846  0.2842 -0.0728 -0.2043
 2332THY    HA458293   3.560   4.887   2.787  1.1767  1.1326 -2.5052
 2332THY    CA558294   3.765   4.962   2.793 -0.0146  0.0682  0.1492
 2332THY    CM158295   3.798   4.906   2.659  0.5465 -0.0203 -0.6611
 2332THY    HM158296   3.721   4.918   2.583 -0.6697 -0.9871  0.3613
 2332THY    HM258297   3.897   4.933   2.622  0.7572 -2.5773 -2.2020
 2332THY    HM358298   3.798   4.798   2.678  1.2522  0.0169 -0.4160
 2332THY    CA658299   3.864   5.024   2.876  0.7369 -0.5236 -0.7597
 2332THY    HA658300   3.961   5.051   2.835  0.5923  0.5054 -0.4357
 2333THY      O58301   0.319   0.726   9.034 -0.7284  0.2340  0.3254
 2333THY     HO58302   0.323   0.629   9.044  0.2374  0.0591 -1.3841
 2333THY    CA158303   0.238   0.739   8.916 -0.0831  0.8318 -0.3358
 2333THY    CA258304   0.215   0.860   8.845  0.4302 -0.0417  0.0308
 2333THY    CP158305   0.264   0.984   8.913 -0.2748  0.4509  0.6584
 2333THY    HP158306   0.359   0.955   8.959  0.6229 -0.1531 -1.4519
 2333THY    CP258307   0.314   1.104   8.824  0.0425 -0.2604  0.0020
 2333THY    HP258308   0.235   1.149   8.762 -0.3574 -2.4671 -1.2173
 2333THY    HP358309   0.347   1.179   8.896  0.0620 -1.7256  1.5843
 2333THY    HP458310   0.401   1.078   8.762  0.2813 -0.3001  0.3526
 2333THY    CP358311   0.154   1.025   9.010  0.8152 -0.7968 -0.6450
 2333THY    HP558312   0.148   0.962   9.099 -3.1401 -0.8471 -0.7820
 2333THY    HP658313   0.157   1.132   9.035  0.3747 -0.7683 -0.7119
 2333THY    HP758314   0.061   1.033   8.953  1.1986  0.7174 -1.1123
 2333THY    CA358315   0.146   0.856   8.727  0.5110  0.5913 -0.7051
 2333THY    HA358316   0.124   0.945   8.669  1.7243  0.3817 -1.5159
 2333THY    CA458317   0.078   0.735   8.683 -0.3487 -0.1976  0.3037
 2333THY    HA458318   0.022   0.735   8.590 -1.1610 -0.3938  0.7850
 2333THY    CA558319   0.112   0.622   8.749  0.3168 -0.2333  1.0251
 2333THY    CM158320   0.043   0.494   8.713  0.4537  0.0965  0.4272
 2333THY    HM158321   0.059   0.461   8.610 -1.0894 -1.8590  0.7631
 2333THY    HM258322   0.089   0.409   8.766  0.2533  0.0960  0.6004
 2333THY    HM358323  -0.065   0.484   8.724  0.1251 -2.0519 -3.2043
 2333THY    CA658324   0.191   0.619   8.864  0.1601 -0.5935  0.0616
 2333THY    HA658325   0.217   0.523   8.908 -1.4802 -2.1094 -2.0316
 2334THY      O58326   4.559   0.855   2.523 -0.6234 -0.3812 -0.9902
 2334THY     HO58327   4.569   0.796   2.446 -1.2140  0.7401 -1.9597
 2334THY    CA158328   4.557   0.779   2.640 -0.3252  0.3422  0.0019
 2334THY    CA258329   4.637   0.804   2.752  0.0412  0.3206  0.2274
 2334THY    CP158330   4.728   0.928   2.749 -0.5492  0.6763 -0.5092
 2334THY    HP158331   4.790   0.928   2.659  1.7642  1.5375  0.9938
 2334THY    CP258332   4.650   1.061   2.764 -0.5593  0.2154 -0.3050
 2334THY    HP258333   4.572   1.043   2.839 -0.8604 -1.0264 -0.8801
 2334THY    HP358334   4.712   1.144   2.799  2.2074 -0.9471 -2.0689
 2334THY    HP458335   4.598   1.072   2.668 -3.3640 -0.2349  1.0631
 2334THY    CP358336   4.836   0.914   2.853  0.1531 -0.1010 -0.7814
 2334THY    HP558337   4.804   0.947   2.953  2.3164  0.5620 -0.2587
 2334THY    HP658338   4.870   0.811   2.867 -0.0925 -0.0203  0.5808
 2334THY    HP758339   4.920   0.984   2.846  0.4152 -0.3953 -0.6300
 2334THY    CA358340   4.627   0.719   2.869 -0.5834 -0.1977 -0.0266
 2334THY    HA358341   4.683   0.738   2.959  1.8271  3.6252 -2.0637
 2334THY    CA458342   4.544   0.605   2.860 -0.0186  0.0321 -0.1739
 2334THY    HA458343   4.531   0.540   2.946 -0.4190  0.7207  0.2969
 2334THY    CA558344   4.474   0.578   2.743  0.0318  0.2953  0.4077
 2334THY    CM158345   4.393   0.449   2.722  0.2345  0.3986 -0.7849
 2334THY    HM158346   4.381   0.437   2.614  0.6653 -0.0598 -0.7863
 2334THY    HM258347   4.453   0.372   2.771 -1.1665 -0.5722 -0.5703
 2334THY    HM358348   4.292   0.456   2.763  0.7551  0.5388  0.5388
 2334THY    CA658349   4.490   0.663   2.630  0.5316 -0.0141  0.4704
 2334THY    HA658350   4.436   0.643   2.538 -0.0801 -2.7957  1.3514
 2335THY      O58351   8.840   0.407   8.968 -0.3801 -0.3327 -0.4758
 2335THY     HO58352   8.776   0.346   9.009 -1.4515  0.9789 -0.1080
 2335THY    CA158353   8.815   0.419   8.832 -0.2277 -0.3322 -0.1579
 2335THY    CA258354   8.859   0.536   8.764  0.0262  0.2504  0.1427
 2335THY    CP158355   8.929   0.638   8.839 -0.3386  0.0366  0.3319
 2335THY    HP158356   8.865   0.652   8.926 -0.8646  0.3934 -0.1116
 2335THY    CP258357   9.073   0.611   8.885  0.1777 -0.6263  0.0834
 2335THY    HP258358   9.126   0.581   8.793 -0.5431 -1.7867  0.0344
 2335THY    HP358359   9.123   0.700   8.925  1.8499 -1.0454 -0.9822
 2335THY    HP458360   9.082   0.530   8.958 -2.8095 -1.1794 -0.0622
 2335THY    CP358361   8.924   0.779   8.780 -0.2949  0.4096 -0.1182
 2335THY    HP558362   8.957   0.838   8.866 -0.9598 -1.4620  1.4916
 2335THY    HP658363   9.001   0.799   8.704 -0.1521  1.1915  0.2296
 2335THY    HP758364   8.828   0.806   8.735 -0.0050 -0.1230 -1.1024
 2335THY    CA358365   8.827   0.549   8.623  0.1404  0.3434  0.4484
 2335THY    HA358366   8.858   0.630   8.558  2.4792 -0.3151  0.6827
 2335THY    CA458367   8.776   0.437   8.557  0.6535 -0.0270  0.2955
 2335THY    HA458368   8.759   0.435   8.449 -2.7784 -0.4574  0.7411
 2335THY    CA558369   8.747   0.316   8.625  0.3194  0.1320  0.2963
 2335THY    CM158370   8.710   0.197   8.546 -0.3027 -0.0751 -0.4488
 2335THY    HM158371   8.763   0.200   8.450  0.6416  1.3858  0.0770
 2335THY    HM258372   8.747   0.103   8.589 -1.4702 -0.2301  0.2705
 2335THY    HM358373   8.602   0.194   8.532 -0.5070  2.1295  0.2167
 2335THY    CA658374   8.766   0.312   8.763  0.7890  0.0364  0.7972
 2335THY    HA658375   8.744   0.221   8.819 -0.0587 -0.5652 -0.4559
 2336THY      O58376   6.143   7.479   1.787  0.2554  0.0939  0.2022
 2336THY     HO58377   6.101   7.539   1.722  0.9178 -0.2632 -0.5779
 2336THY    CA158378   6.238   7.554   1.837 -0.3614  0.2643 -0.0513
 2336THY    CA258379   6.322   7.498   1.936 -0.3842 -0.1497 -0.3660
 2336THY    CP158380   6.321   7.353   1.981 -0.2796  0.6265  1.1400
 2336THY    HP158381   6.248   7.300   1.919  1.6451 -0.0128 -0.7306
 2336THY    CP258382   6.458   7.285   1.967  0.2292 -0.7483  0.2737
 2336THY    HP258383   6.500   7.298   1.866  0.1092 -0.3330  0.2749
 2336THY    HP358384   6.537   7.329   2.028  2.0918 -2.0025 -1.1066
 2336THY    HP458385   6.445   7.180   1.995 -1.3811 -0.3116  1.2924
 2336THY    CP358386   6.269   7.323   2.121 -0.7026 -0.8775  0.0855
 2336THY    HP558387   6.274   7.215   2.138  1.2455 -0.9703 -0.8554
 2336THY    HP658388   6.333   7.366   2.199 -0.1587  0.1982 -0.9208
 2336THY    HP758389   6.168   7.365   2.135 -0.5290  0.1446 -1.4302
 2336THY    CA358390   6.406   7.586   2.009  0.6952  0.1333  0.4895
 2336THY    HA358391   6.471   7.542   2.084 -2.2502 -1.1194  2.4971
 2336THY    CA458392   6.399   7.735   1.990 -0.5733 -0.2559  0.2529
 2336THY    HA458393   6.453   7.810   2.047  1.7303 -0.8586 -0.9691
 2336THY    CA558394   6.320   7.783   1.887 -0.1536  1.1053  0.7503
 2336THY    CM158395   6.298   7.928   1.889 -0.0109 -0.5485  0.3044
 2336THY    HM158396   6.193   7.949   1.869 -0.1848 -0.2056  1.5482
 2336THY    HM258397   6.327   7.973   1.984 -0.5855 -1.7348  1.0550
 2336THY    HM358398   6.355   7.977   1.809  0.6968  0.1379  1.2121
 2336THY    CA658399   6.240   7.693   1.815  0.9230 -0.6122  0.2664
 2336THY    HA658400   6.168   7.740   1.749  2.1058  0.2377 -0.4544
 2337THY      O58401   4.366   5.489   0.792 -0.4554 -0.9037 -0.1772
 2337THY     HO58402   4.286   5.442   0.762 -0.1804 -1.4519 -0.0708
 2337THY    CA158403   4.465   5.392   0.813  1.0795  0.3752  0.7051
 2337THY    CA258404   4.591   5.424   0.782 -0.5178 -0.7178  0.1241
 2337THY    CP158405   4.623   5.572   0.738 -0.3129  0.5063 -0.0607
 2337THY    HP158406   4.541   5.604   0.673  0.1504  0.9302 -0.4473
 2337THY    CP258407   4.642   5.664   0.862 -0.9389 -0.5030 -0.1533
 2337THY    HP258408   4.566   5.650   0.940 -0.0492  0.3302  0.9003
 2337THY    HP358409   4.735   5.650   0.919  0.0605  2.7957 -0.7985
 2337THY    HP458410   4.653   5.770   0.839  2.0727 -0.1393  2.3072
 2337THY    CP358411   4.743   5.577   0.650  0.0170  0.3782  0.0990
 2337THY    HP558412   4.828   5.587   0.719 -0.0263  1.1483  0.0570
 2337THY    HP658413   4.753   5.498   0.575  1.9455 -0.0514  0.7618
 2337THY    HP758414   4.735   5.668   0.589 -0.0810 -1.6104 -3.0877
 2337THY    CA358415   4.689   5.311   0.794 -0.1715 -0.4829 -0.6598
 2337THY    HA358416   4.784   5.319   0.743  0.8289 -0.9850  1.0380
 2337THY    CA458417   4.645   5.192   0.849  0.3616 -0.6683  0.9272
 2337THY    HA458418   4.711   5.106   0.848  1.1219 -0.1151  1.8079
 2337THY    CA558419   4.518   5.177   0.904 -0.4818  0.4068  0.4855
 2337THY    CM158420   4.478   5.048   0.967 -0.7081 -0.1760  0.9936
 2337THY    HM158421   4.372   5.026   0.950 -0.4737 -0.6040  0.0428
 2337THY    HM258422   4.535   4.973   0.911 -1.5477 -0.2614  0.2342
 2337THY    HM358423   4.513   5.050   1.071  0.7035 -1.7142  0.5920
 2337THY    CA658424   4.422   5.269   0.875  0.1833 -0.5461  0.0703
 2337THY    HA658425   4.319   5.245   0.899 -0.1888  1.5089  0.7159
 2338THY      O58426   6.840   7.514   4.947  0.0550 -0.2535  0.1517
 2338THY     HO58427   6.816   7.516   4.853 -1.5929  0.3734  0.5507
 2338THY    CA158428   6.716   7.512   5.002 -0.2103 -0.4777 -0.2659
 2338THY    CA258429   6.678   7.617   5.085  0.2759 -0.2241 -0.7005
 2338THY    CP158430   6.768   7.737   5.092 -0.7938 -0.5042 -0.2990
 2338THY    HP158431   6.818   7.748   4.995  1.0864  0.9262  0.7597
 2338THY    CP258432   6.694   7.873   5.121  0.3474  0.1942  0.4029
 2338THY    HP258433   6.604   7.878   5.059  0.1179  0.1435  0.7329
 2338THY    HP358434   6.665   7.879   5.226 -2.5755 -0.7152 -0.2701
 2338THY    HP458435   6.752   7.962   5.093  0.4829  0.6206  1.9254
 2338THY    CP358436   6.876   7.714   5.197 -0.1657  0.2331  0.6257
 2338THY    HP558437   6.954   7.791   5.192  1.6590 -1.4053  2.3071
 2338THY    HP658438   6.828   7.708   5.295  0.5359 -0.5859  0.9298
 2338THY    HP758439   6.924   7.619   5.173  0.5191 -0.1930  3.4269
 2338THY    CA358440   6.549   7.604   5.150  0.2513 -0.8136  0.2979
 2338THY    HA358441   6.509   7.680   5.216  0.3154  1.8532 -2.5105
 2338THY    CA458442   6.460   7.503   5.121 -0.0123 -0.4597  0.2321
 2338THY    HA458443   6.365   7.501   5.173 -0.8164 -2.1728 -1.2017
 2338THY    CA558444   6.497   7.403   5.036 -0.4259  0.4665  0.8629
 2338THY    CM158445   6.392   7.292   5.014 -0.1897 -0.3276 -0.1744
 2338THY    HM158446   6.307   7.323   4.952  1.0432 -0.5518 -2.0529
 2338THY    HM258447   6.444   7.212   4.961  1.0945  1.1200 -1.1690
 2338THY    HM358448   6.356   7.257   5.111 -1.4119  0.0890 -0.4561
 2338THY    CA658449   6.626   7.406   4.976 -0.5210  0.4862  0.0523
 2338THY    HA658450   6.643   7.320   4.911 -3.0743  0.2444 -0.4086
 2339THY      O58451   4.223   0.293   7.540  0.5505  0.2411 -0.2227
 2339THY     HO58452   4.243   0.223   7.476 -0.1271 -0.4238  0.2871
 2339THY    CA158453   4.195   0.393   7.455  0.1146 -0.0013 -0.5500
 2339THY    CA258454   4.185   0.528   7.493  0.0366 -0.4241 -0.4848
 2339THY    CP158455   4.204   0.570   7.641  0.6267 -0.3615  0.0027
 2339THY    HP158456   4.224   0.487   7.710  0.9159 -1.3571 -1.2297
 2339THY    CP258457   4.318   0.670   7.649  0.0513 -0.3724 -0.1300
 2339THY    HP258458   4.291   0.755   7.586  0.2125 -1.2961 -1.4994
 2339THY    HP358459   4.339   0.706   7.751  4.0855  0.0697 -0.9441
 2339THY    HP458460   4.402   0.617   7.603  1.4949  0.1694  1.7302
 2339THY    CP358461   4.075   0.635   7.692 -0.3979 -0.5071  0.5511
 2339THY    HP558462   4.090   0.663   7.797 -0.6658 -0.8561  0.6844
 2339THY    HP658463   4.048   0.724   7.633 -2.2927 -1.3788  0.0284
 2339THY    HP758464   3.994   0.564   7.674 -1.0702  1.0603 -4.0211
 2339THY    CA358465   4.167   0.620   7.388 -0.3512  0.2197 -0.3648
 2339THY    HA358466   4.153   0.723   7.420 -2.0439 -0.1793  0.2751
 2339THY    CA458467   4.148   0.582   7.255 -0.1922  0.2478 -0.5273
 2339THY    HA458468   4.124   0.661   7.184  2.0889  1.7000  0.2121
 2339THY    CA558469   4.136   0.452   7.233 -0.2835  0.2214  0.8550
 2339THY    CM158470   4.110   0.404   7.095  0.2324  0.1722  0.3695
 2339THY    HM158471   4.058   0.477   7.032 -1.3076 -2.2124 -1.3064
 2339THY    HM258472   4.203   0.381   7.041  0.9074  0.2487  1.4613
 2339THY    HM358473   4.052   0.311   7.098  0.9827 -0.3759 -0.9838
 2339THY    CA658474   4.163   0.354   7.327  1.3487 -0.6304 -0.0057
 2339THY    HA658475   4.148   0.250   7.302 -1.4397 -0.3917  0.3814
 2340THY      O58476   7.442   4.897   4.997 -0.0277 -0.5768 -0.1906
 2340THY     HO58477   7.474   4.875   5.086 -1.2442  0.0348  0.4255
 2340THY    CA158478   7.428   5.034   5.006 -0.0252  0.5247 -0.4088
 2340THY    CA258479   7.409   5.119   4.896 -0.6784 -1.1009  0.1453
 2340THY    CP158480   7.420   5.066   4.759 -0.0283  0.4124 -0.1794
 2340THY    HP158481   7.390   4.961   4.753 -0.1226  0.3175  1.4126
 2340THY    CP258482   7.310   5.132   4.667 -0.2471 -0.4333  0.2563
 2340THY    HP258483   7.302   5.090   4.566 -0.3556 -0.7579  0.3980
 2340THY    HP358484   7.215   5.118   4.720 -0.3873 -1.0600 -0.1459
 2340THY    HP458485   7.326   5.240   4.661 -0.8110 -0.3114  0.8698
 2340THY    CP358486   7.563   5.078   4.694  0.1740 -0.3218 -0.2838
 2340THY    HP558487   7.559   5.040   4.591 -0.4569  0.5477 -0.5903
 2340THY    HP658488   7.581   5.185   4.687  0.1714 -0.0297  2.8164
 2340THY    HP758489   7.647   5.030   4.747  0.2082 -1.9921 -1.7351
 2340THY    CA358490   7.396   5.262   4.924  0.6502 -0.0451 -0.0577
 2340THY    HA358491   7.394   5.328   4.838  0.6216 -0.4735 -0.3884
 2340THY    CA458492   7.386   5.307   5.053 -0.3580 -0.6413 -0.1202
 2340THY    HA458493   7.370   5.411   5.076  0.8947 -0.6043  0.6502
 2340THY    CA558494   7.410   5.218   5.156  0.5691 -0.0863 -0.4813
 2340THY    CM158495   7.412   5.260   5.300  0.0226 -0.8291  0.2539
 2340THY    HM158496   7.327   5.224   5.360 -1.2146  0.6588 -0.5409
 2340THY    HM258497   7.510   5.230   5.340  0.7354 -0.8598 -1.4244
 2340THY    HM358498   7.409   5.370   5.306  0.1551 -0.7952 -0.2971
 2340THY    CA658499   7.423   5.081   5.134  0.3433  0.4461 -0.0242
 2340THY    HA658500   7.428   5.017   5.222  2.1263 -0.6000 -0.8492
 2341THY      O58501   8.306   3.334   1.410  0.1002 -0.7298  0.2104
 2341THY     HO58502   8.377   3.377   1.360 -0.2689 -0.4093 -0.0453
 2341THY    CA158503   8.354   3.215   1.437  0.8761 -0.2676 -0.3520
 2341THY    CA258504   8.275   3.106   1.483 -0.3656 -0.2808 -0.9828
 2341THY    CP158505   8.124   3.111   1.486  0.8314  0.7649 -0.1545
 2341THY    HP158506   8.085   3.210   1.463  1.7459  1.0190 -0.6509
 2341THY    CP258507   8.073   3.027   1.370  0.0508  0.8028  0.5438
 2341THY    HP258508   7.968   2.998   1.382 -0.9170  3.5577 -0.5375
 2341THY    HP358509   8.080   3.073   1.271 -3.0640  4.0122  1.6089
 2341THY    HP458510   8.139   2.940   1.360  3.2850  3.1261 -0.0311
 2341THY    CP358511   8.080   3.066   1.628  0.0504  0.0538  0.7364
 2341THY    HP558512   7.973   3.087   1.641 -0.0696 -0.3357  0.4298
 2341THY    HP658513   8.089   2.958   1.642  0.4208 -0.2342 -1.3683
 2341THY    HP758514   8.130   3.119   1.709 -1.7540  1.3956  1.0211
 2341THY    CA358515   8.342   2.983   1.516 -0.6632  0.3443 -0.6137
 2341THY    HA358516   8.298   2.891   1.553 -0.0526  0.1677 -0.3217
 2341THY    CA458517   8.482   2.982   1.517 -0.9289 -0.6171  0.1805
 2341THY    HA458518   8.539   2.898   1.557  1.7287  1.3580  0.8061
 2341THY    CA558519   8.558   3.090   1.454 -0.5049  0.1484  0.4222
 2341THY    CM158520   8.708   3.072   1.440  0.4209 -0.7920 -0.2086
 2341THY    HM158521   8.755   3.130   1.360 -0.1777 -1.5654 -1.1418
 2341THY    HM258522   8.769   3.097   1.528  0.0772 -0.1993 -0.1310
 2341THY    HM358523   8.728   2.965   1.426  2.6862 -0.2201 -1.9620
 2341THY    CA658524   8.488   3.204   1.413 -0.0001  0.5936 -0.0725
 2341THY    HA658525   8.548   3.289   1.381  1.0342  0.0108  0.2596
 2342THY      O58526   5.875   6.143   5.085 -0.1500 -0.3405 -0.0181
 2342THY     HO58527   5.949   6.194   5.123 -0.9328  0.0079  1.0941
 2342THY    CA158528   5.903   6.013   5.103  0.1342  0.8652  0.0722
 2342THY    CA258529   5.799   5.916   5.104  0.0234  0.5596  0.5479
 2342THY    CP158530   5.652   5.946   5.066  0.3893 -0.2876 -0.1215
 2342THY    HP158531   5.647   6.051   5.036  0.9308  0.5578  2.5583
 2342THY    CP258532   5.618   5.862   4.946  0.6258 -0.1568  0.2289
 2342THY    HP258533   5.632   5.755   4.966  1.1823 -0.5332 -1.8957
 2342THY    HP358534   5.519   5.873   4.900  0.6467  0.5294  0.3334
 2342THY    HP458535   5.699   5.883   4.875  0.7164 -0.1459  0.3340
 2342THY    CP358536   5.552   5.925   5.184 -0.9871  0.6206  0.0609
 2342THY    HP558537   5.571   5.833   5.241 -0.6939  1.7458  1.8433
 2342THY    HP658538   5.563   5.999   5.263  1.5402  1.0097 -0.5690
 2342THY    HP758539   5.446   5.915   5.155 -1.2006  2.3956  0.1175
 2342THY    CA358540   5.836   5.790   5.153  0.5118 -0.0036 -0.0702
 2342THY    HA358541   5.760   5.714   5.165  0.2834  0.3211  0.5936
 2342THY    CA458542   5.964   5.760   5.186  0.5629 -0.1907  0.3687
 2342THY    HA458543   5.983   5.657   5.213  0.2408 -0.4193 -0.2675
 2342THY    CA558544   6.064   5.857   5.188  0.1522 -0.0703 -0.2580
 2342THY    CM158545   6.203   5.827   5.237  0.4312 -0.3003  0.4618
 2342THY    HM158546   6.284   5.846   5.165 -0.3688  2.6937  0.2302
 2342THY    HM258547   6.221   5.884   5.328 -1.1051  1.0753 -0.0535
 2342THY    HM358548   6.210   5.719   5.257 -0.9663 -0.7523 -1.1960
 2342THY    CA658549   6.029   5.990   5.162 -0.1779 -0.1085 -0.5517
 2342THY    HA658550   6.106   6.064   5.179 -1.3731  0.4796  3.3634
 2343THY      O58551   7.639   1.406   6.259 -0.2316  0.5741 -0.3052
 2343THY     HO58552   7.629   1.415   6.355  2.5396 -0.3347  0.1532
 2343THY    CA158553   7.766   1.384   6.234  0.7421  0.2367  1.2767
 2343THY    CA258554   7.809   1.359   6.102  0.2818  0.8830 -0.4389
 2343THY    CP158555   7.706   1.336   5.992 -0.0187  0.1951  0.7362
 2343THY    HP158556   7.601   1.349   6.020 -0.3212 -1.4973  0.5001
 2343THY    CP258557   7.730   1.435   5.873 -0.0595  0.1693 -0.5851
 2343THY    HP258558   7.752   1.537   5.908  2.0688  0.8555 -3.5453
 2343THY    HP358559   7.815   1.405   5.811 -0.0155 -0.7262 -0.1079
 2343THY    HP458560   7.642   1.449   5.809 -0.6368 -1.4630 -0.2005
 2343THY    CP358561   7.716   1.188   5.943  0.5439  0.4978 -0.5653
 2343THY    HP558562   7.676   1.122   6.020 -1.3763  0.8508 -1.1996
 2343THY    HP658563   7.653   1.169   5.855 -0.6965 -0.5824  0.5277
 2343THY    HP758564   7.820   1.161   5.920  0.1897 -0.7488 -0.7856
 2343THY    CA358565   7.950   1.338   6.078  0.1877  1.2963 -0.4266
 2343THY    HA358566   7.993   1.311   5.982 -3.6218 -0.6518 -1.7878
 2343THY    CA458567   8.037   1.348   6.188  0.3949 -0.2463 -0.2804
 2343THY    HA458568   8.145   1.343   6.177  0.3317 -0.8178 -0.6825
 2343THY    CA558569   7.991   1.382   6.316 -0.7401  0.0118 -0.2225
 2343THY    CM158570   8.085   1.397   6.434  0.1418 -0.3305  1.2840
 2343THY    HM158571   8.044   1.338   6.517  0.2744 -3.1335 -0.5036
 2343THY    HM258572   8.187   1.366   6.410  0.0622  0.9039 -0.8465
 2343THY    HM358573   8.095   1.502   6.463  0.6977  0.0453 -0.1957
 2343THY    CA658574   7.854   1.404   6.337 -0.5406  0.2343 -0.0167
 2343THY    HA658575   7.824   1.442   6.434  0.0951  0.8580 -0.0570
 2344THY      O58576   0.800   3.556   1.676 -0.4802 -0.2763 -0.0892
 2344THY     HO58577   0.745   3.634   1.692 -1.3112 -0.5664 -1.4279
 2344THY    CA158578   0.933   3.593   1.685  0.0508 -0.2398  0.5206
 2344THY    CA258579   1.031   3.491   1.716  0.2096 -0.3123  0.4561
 2344THY    CP158580   0.999   3.341   1.729  0.0408 -0.3772 -0.4580
 2344THY    HP158581   0.897   3.352   1.766  1.0540  1.6525  1.9980
 2344THY    CP258582   1.007   3.268   1.598  0.6850 -0.2972  0.6961
 2344THY    HP258583   0.994   3.161   1.617 -0.9667 -0.4236 -0.8862
 2344THY    HP358584   0.938   3.299   1.519  1.6807 -0.6923 -0.3499
 2344THY    HP458585   1.098   3.283   1.539 -0.1524 -0.9591 -0.8188
 2344THY    CP358586   1.076   3.265   1.841  0.0849  0.8174 -0.3703
 2344THY    HP558587   1.008   3.232   1.920  0.9213 -1.1075 -0.3986
 2344THY    HP658588   1.120   3.168   1.814  1.4467  0.8611  1.4891
 2344THY    HP758589   1.166   3.311   1.883  2.3258 -1.6799 -2.1100
 2344THY    CA358590   1.163   3.533   1.738  0.5912 -0.1300 -0.4897
 2344THY    HA358591   1.244   3.466   1.766  0.0789 -0.2319  0.8237
 2344THY    CA458592   1.188   3.669   1.735  0.1443 -0.8289  0.1388
 2344THY    HA458593   1.288   3.690   1.769  0.3936 -0.1271 -0.9782
 2344THY    CA558594   1.084   3.763   1.714  0.3806  0.0654 -0.4093
 2344THY    CM158595   1.114   3.907   1.700  0.0852  0.4433 -0.3006
 2344THY    HM158596   1.019   3.959   1.716 -1.3328 -2.2830  0.7222
 2344THY    HM258597   1.199   3.924   1.768 -1.2176  1.1586  1.2218
 2344THY    HM358598   1.146   3.921   1.596  0.6311  1.2151 -0.0391
 2344THY    CA658599   0.963   3.727   1.672  0.0420  0.3551  0.1810
 2344THY    HA658600   0.897   3.800   1.627  0.8914  1.3229  0.4671
 2345THY      O58601   0.409   0.974   5.629 -0.0059 -0.3324 -0.2586
 2345THY     HO58602   0.454   0.916   5.693  0.1433  0.2966  0.2142
 2345THY    CA158603   0.463   0.934   5.512 -0.6423 -0.2428 -0.2313
 2345THY    CA258604   0.534   1.028   5.425 -0.1016 -0.0460 -0.3930
 2345THY    CP158605   0.529   1.179   5.455  0.5277 -0.5648  0.2958
 2345THY    HP158606   0.498   1.195   5.558 -1.2042 -0.0448 -0.2786
 2345THY    CP258607   0.670   1.245   5.443 -0.0543  0.5752 -0.3469
 2345THY    HP258608   0.738   1.191   5.510  0.0087 -1.2206 -1.7961
 2345THY    HP358609   0.722   1.243   5.347 -1.0644  3.2233 -1.0421
 2345THY    HP458610   0.670   1.352   5.469 -0.1481  0.0297  2.2428
 2345THY    CP358611   0.434   1.254   5.366 -0.1381  0.0497  0.4813
 2345THY    HP558612   0.337   1.212   5.394 -0.2253 -1.4719 -1.7883
 2345THY    HP658613   0.444   1.360   5.392 -0.5933 -0.3370  2.3678
 2345THY    HP758614   0.455   1.235   5.260  0.9908  1.0002  0.5089
 2345THY    CA358615   0.605   0.977   5.313 -0.2806  0.2268 -0.6778
 2345THY    HA358616   0.658   1.046   5.248  2.6551 -1.3609 -0.1373
 2345THY    CA458617   0.593   0.842   5.286 -0.1730  0.2378 -0.0981
 2345THY    HA458618   0.649   0.805   5.201 -2.6465  1.3999 -2.3728
 2345THY    CA558619   0.522   0.750   5.367 -0.0400 -0.2717 -0.6527
 2345THY    CM158620   0.522   0.611   5.346 -0.0270  0.3460 -0.0206
 2345THY    HM158621   0.621   0.576   5.315 -1.1317 -3.0435 -0.0806
 2345THY    HM258622   0.495   0.556   5.436 -0.4435  1.2007  0.3891
 2345THY    HM358623   0.458   0.577   5.264 -0.5207  1.8599 -0.2904
 2345THY    CA658624   0.450   0.799   5.477  0.2710  0.5983 -0.1976
 2345THY    HA658625   0.394   0.731   5.540 -1.1441  2.4009  0.5887
 2346THY      O58626   4.905   3.464   7.245  0.2423  0.2443  0.2502
 2346THY     HO58627   4.887   3.531   7.313 -1.8738  0.5523 -0.5088
 2346THY    CA158628   4.869   3.520   7.126  0.5211 -0.2179 -0.4540
 2346THY    CA258629   4.945   3.499   7.010  0.6327 -0.3767  0.5314
 2346THY    CP158630   5.068   3.406   7.022 -0.1411  0.7950  0.1594
 2346THY    HP158631   5.099   3.403   7.127  0.2594  1.6577  0.0717
 2346THY    CP258632   5.031   3.262   6.976 -0.0676  0.7015  0.4426
 2346THY    HP258633   4.922   3.257   6.977 -0.0586  0.2880 -0.2960
 2346THY    HP358634   5.067   3.243   6.874  1.0411  0.1443  0.9193
 2346THY    HP458635   5.074   3.180   7.035  1.0610  0.1744 -1.0503
 2346THY    CP358636   5.190   3.450   6.943 -0.5931  0.1663 -0.2502
 2346THY    HP558637   5.271   3.379   6.966 -0.1072  0.9792  0.6248
 2346THY    HP658638   5.176   3.445   6.835  2.4350  0.5615 -0.7553
 2346THY    HP758639   5.227   3.551   6.958  1.5992 -0.7153  0.7183
 2346THY    CA358640   4.890   3.548   6.894 -0.4383 -0.1457  0.3352
 2346THY    HA358641   4.937   3.527   6.798 -0.3518 -0.7004  0.4928
 2346THY    CA458642   4.777   3.630   6.893  0.3515  0.1693 -0.0031
 2346THY    HA458643   4.754   3.684   6.802  3.4459  0.8617 -0.4724
 2346THY    CA558644   4.714   3.663   7.017 -0.5401 -0.1508  0.2055
 2346THY    CM158645   4.616   3.776   7.015  0.0569 -0.2687 -0.4123
 2346THY    HM158646   4.664   3.874   7.028  0.0301 -0.2652 -0.3342
 2346THY    HM258647   4.548   3.774   6.929 -1.0150 -0.7735  0.4190
 2346THY    HM358648   4.557   3.758   7.106 -0.2143 -2.5304 -0.9761
 2346THY    CA658649   4.757   3.609   7.135 -0.5819  0.0370 -0.5252
 2346THY    HA658650   4.709   3.636   7.229  0.2949  0.8586 -0.3099
 2347THY      O58651   1.316   7.529   2.538 -0.8358 -0.1789 -0.3744
 2347THY     HO58652   1.315   7.612   2.487 -2.2216  0.1438  0.1413
 2347THY    CA158653   1.341   7.423   2.454  0.2730 -0.2429  1.0840
 2347THY    CA258654   1.270   7.299   2.459  0.0792 -0.5716 -0.2335
 2347THY    CP158655   1.196   7.260   2.585 -0.4977 -0.3535  0.0794
 2347THY    HP158656   1.190   7.354   2.641  0.6073  0.0372 -0.4185
 2347THY    CP258657   1.056   7.207   2.558 -0.2627  0.3579  0.4531
 2347THY    HP258658   1.004   7.269   2.484  1.0591  0.6181 -0.2740
 2347THY    HP358659   1.048   7.107   2.513 -1.8453  0.5387  0.2696
 2347THY    HP458660   0.990   7.210   2.646  0.5592  1.8373  1.0464
 2347THY    CP358661   1.269   7.157   2.665 -0.4166  0.5075  0.8569
 2347THY    HP558662   1.299   7.068   2.609  1.1672  1.3697  0.2940
 2347THY    HP658663   1.353   7.205   2.716  0.0550 -1.8482  2.4534
 2347THY    HP758664   1.200   7.121   2.743 -1.9175 -0.3704 -0.7944
 2347THY    CA358665   1.279   7.211   2.350 -0.5246  0.7310 -0.5985
 2347THY    HA358666   1.229   7.115   2.350  0.8701 -0.0295 -0.1037
 2347THY    CA458667   1.348   7.248   2.229 -0.3951  0.6563  0.4152
 2347THY    HA458668   1.341   7.183   2.142 -2.2075  0.7871  0.4203
 2347THY    CA558669   1.413   7.373   2.224  0.1612  0.2338 -0.0537
 2347THY    CM158670   1.479   7.430   2.088 -0.2751  0.0654 -1.0332
 2347THY    HM158671   1.400   7.489   2.041 -4.0520 -2.3849  1.6516
 2347THY    HM258672   1.567   7.492   2.105 -0.0054 -0.2344 -1.3079
 2347THY    HM358673   1.493   7.339   2.027 -4.6821 -0.4126 -1.6899
 2347THY    CA658674   1.411   7.457   2.339 -0.0007 -0.3196 -0.4190
 2347THY    HA658675   1.460   7.554   2.328  2.5462 -1.5340 -0.6527
 2348THY      O58676   0.953   0.849   0.599  0.7564 -0.1335 -0.2026
 2348THY     HO58677   0.943   0.925   0.538 -0.8647 -0.3358 -0.2300
 2348THY    CA158678   1.017   0.889   0.716 -0.6141  0.7886  0.1616
 2348THY    CA258679   1.053   0.807   0.822 -0.9623 -0.5936 -0.1614
 2348THY    CP158680   1.028   0.654   0.808  0.0089 -0.2701  0.4086
 2348THY    HP158681   1.007   0.625   0.704 -0.4171  3.4117 -0.6844
 2348THY    CP258682   1.157   0.570   0.854 -0.0898 -0.0042  0.2081
 2348THY    HP258683   1.245   0.608   0.800 -0.8529  0.0243 -1.0515
 2348THY    HP358684   1.173   0.572   0.963 -1.0349 -0.7661  0.3729
 2348THY    HP458685   1.142   0.465   0.828 -0.3308 -0.4709  2.0448
 2348THY    CP358686   0.907   0.616   0.893  0.4270 -0.8378 -0.1091
 2348THY    HP558687   0.814   0.665   0.862  1.7806  0.8981 -1.5920
 2348THY    HP658688   0.889   0.508   0.905 -0.1767 -1.0073 -2.1121
 2348THY    HP758689   0.918   0.659   0.993  2.5781 -0.5526 -0.4253
 2348THY    CA358690   1.106   0.856   0.942  0.3862  0.5396  0.1954
 2348THY    HA358691   1.121   0.787   1.024  1.9168  0.1117 -0.4061
 2348THY    CA458692   1.156   0.992   0.939  0.0280  0.4593 -0.0831
 2348THY    HA458693   1.217   1.029   1.022  0.6186 -2.9508  1.1691
 2348THY    CA558694   1.115   1.077   0.833  0.9779 -0.0739  0.3463
 2348THY    CM158695   1.163   1.216   0.816  0.4016 -0.2212 -0.4856
 2348THY    HM158696   1.209   1.260   0.905 -0.0444 -0.2399 -0.2407
 2348THY    HM258697   1.232   1.208   0.731 -0.7303 -3.0416 -1.2531
 2348THY    HM358698   1.085   1.288   0.786  0.9347  1.2612  1.4843
 2348THY    CA658699   1.046   1.025   0.720 -0.0067  0.4017  0.8004
 2348THY    HA658700   1.018   1.090   0.638 -1.2194  0.1721  1.0193
 2349THY      O58701   4.967   4.035   6.186  0.9319 -0.5101 -0.0151
 2349THY     HO58702   4.971   4.087   6.268  1.4321 -2.8366  1.5416
 2349THY    CA158703   4.976   3.913   6.234 -0.2813 -0.1818  0.2124
 2349THY    CA258704   5.066   3.821   6.176  0.1367  0.4219  0.4798
 2349THY    CP158705   5.156   3.846   6.060 -0.1982 -0.8843  0.3941
 2349THY    HP158706   5.138   3.952   6.039  1.3300 -0.5114  0.8439
 2349THY    CP258707   5.304   3.849   6.099  0.8579  0.6347  0.5942
 2349THY    HP258708   5.367   3.858   6.010  0.7889  0.2591  0.5070
 2349THY    HP358709   5.343   3.927   6.166  2.3389 -0.6733  1.3282
 2349THY    HP458710   5.321   3.753   6.149 -1.8211 -0.1500  0.1471
 2349THY    CP358711   5.124   3.762   5.934  0.8904 -0.5928 -0.1447
 2349THY    HP558712   5.174   3.666   5.945  0.7578 -0.6283  0.1617
 2349THY    HP658713   5.016   3.752   5.917  0.9676 -0.3687 -0.8220
 2349THY    HP758714   5.181   3.802   5.849  0.5984  1.8136  0.6895
 2349THY    CA358715   5.056   3.688   6.225  0.4354  0.1240  0.4417
 2349THY    HA358716   5.120   3.613   6.179 -1.6940 -0.6964 -1.3570
 2349THY    CA458717   4.973   3.656   6.327  0.4539 -0.0938  0.0208
 2349THY    HA458718   4.971   3.558   6.375  0.8348  0.8654  2.1149
 2349THY    CA558719   4.896   3.749   6.388 -0.0986 -0.2958  0.0401
 2349THY    CM158720   4.814   3.705   6.506 -0.7838 -0.0314  0.2526
 2349THY    HM158721   4.717   3.659   6.484 -0.6073 -0.2128 -0.1454
 2349THY    HM258722   4.867   3.639   6.576 -1.1368 -1.1457 -0.5010
 2349THY    HM358723   4.792   3.797   6.562  0.6623 -0.5033  1.6841
 2349THY    CA658724   4.895   3.881   6.342  0.1242 -0.8541  1.0538
 2349THY    HA658725   4.842   3.955   6.401 -0.4988 -0.2234 -0.2589
 2350THY      O58726   0.050   3.691   2.819  0.1933  0.8564 -0.2566
 2350THY     HO58727   0.015   3.733   2.739  3.2676  1.4185 -1.4366
 2350THY    CA158728  -0.021   3.576   2.850 -0.2935  0.3498  0.0605
 2350THY    CA258729   0.047   3.471   2.909 -0.8738  0.2177  0.1626
 2350THY    CP158730   0.209   3.476   2.934 -0.3256  0.2406 -0.4164
 2350THY    HP158731   0.267   3.562   2.898  0.5637  0.3864  1.2692
 2350THY    CP258732   0.236   3.480   3.086 -0.4919  0.8658  0.3644
 2350THY    HP258733   0.198   3.390   3.136  2.6732 -0.9477 -0.2176
 2350THY    HP358734   0.342   3.488   3.109 -0.4071  0.4662  0.1210
 2350THY    HP458735   0.203   3.576   3.126 -1.9379  0.5886 -0.0929
 2350THY    CP358736   0.274   3.351   2.871  0.2096  0.2492 -0.0217
 2350THY    HP558737   0.248   3.261   2.927 -2.7170  1.4014  0.6496
 2350THY    HP658738   0.235   3.338   2.770  0.0311  0.3254  0.0374
 2350THY    HP758739   0.383   3.352   2.858 -0.0466  0.8645 -2.8258
 2350THY    CA358740  -0.020   3.352   2.939  0.0230  1.3198 -0.5081
 2350THY    HA358741   0.021   3.263   2.986 -2.3742  0.1091 -0.5406
 2350THY    CA458742  -0.159   3.344   2.931  0.0005  0.1926  0.3687
 2350THY    HA458743  -0.227   3.262   2.953 -0.9206  1.3158  1.9146
 2350THY    CA558744  -0.227   3.455   2.872  0.1033  0.3479  0.3082
 2350THY    CM158745  -0.372   3.473   2.855  0.7447  0.1492  0.2668
 2350THY    HM158746  -0.404   3.478   2.750 -0.1722  0.1247  0.5378
 2350THY    HM258747  -0.429   3.400   2.912 -2.0163  0.9136 -1.3480
 2350THY    HM358748  -0.405   3.571   2.891 -0.5086 -0.5259  1.0037
 2350THY    CA658749  -0.155   3.567   2.825 -0.2456  0.4219  0.4896
 2350THY    HA658750  -0.202   3.651   2.776  2.6894  1.5999 -0.5138
 2351THY      O58751   6.741   2.724   7.861  0.0914  0.4251  0.9785
 2351THY     HO58752   6.706   2.683   7.941 -0.9351 -1.4929 -0.3624
 2351THY    CA158753   6.867   2.741   7.895  0.2123  0.1700 -0.3767
 2351THY    CA258754   6.950   2.835   7.829  0.1107  0.5373 -0.7067
 2351THY    CP158755   6.910   2.915   7.708 -0.1755 -0.3882  0.5160
 2351THY    HP158756   6.822   2.868   7.662  0.7813  0.0093 -1.9232
 2351THY    CP258757   6.882   3.061   7.750 -0.4473 -0.5215 -0.5563
 2351THY    HP258758   6.832   3.110   7.665  0.5725  0.5503 -0.5577
 2351THY    HP358759   6.810   3.067   7.833  0.9631 -1.0500  0.7490
 2351THY    HP458760   6.967   3.122   7.782 -1.6054  1.5575 -1.2432
 2351THY    CP358761   7.012   2.921   7.592 -0.2612  0.5788 -0.7226
 2351THY    HP558762   7.102   2.977   7.618  1.8589 -2.8865  0.1288
 2351THY    HP658763   7.047   2.820   7.566  0.4833  0.4541  0.6580
 2351THY    HP758764   6.972   2.966   7.501  1.5170 -0.3194 -2.0087
 2351THY    CA358765   7.081   2.847   7.884  0.0012  0.9600  0.5633
 2351THY    HA358766   7.152   2.923   7.852  0.5196  1.2174  2.2378
 2351THY    CA458767   7.127   2.765   7.991 -0.4728  0.2988  0.2144
 2351THY    HA458768   7.231   2.781   8.016  0.3392 -2.2917 -1.1472
 2351THY    CA558769   7.045   2.669   8.046 -0.1210  0.6932 -0.3801
 2351THY    CM158770   7.108   2.578   8.144  0.3632 -0.1671  1.4128
 2351THY    HM158771   7.215   2.578   8.117 -0.1089 -0.3040 -0.6492
 2351THY    HM258772   7.101   2.625   8.242  1.1679  0.1185  1.3486
 2351THY    HM358773   7.078   2.473   8.141  2.3377 -0.7764  0.3292
 2351THY    CA658774   6.916   2.657   7.997  0.9041  0.5718 -0.2022
 2351THY    HA658775   6.859   2.577   8.043  2.5843 -0.2672  0.5427
 2352THY      O58776   3.208   2.370   9.750  0.4499  0.3062 -0.5509
 2352THY     HO58777   3.134   2.332   9.799  0.4184  0.0832 -0.7706
 2352THY    CA158778   3.149   2.420   9.639  0.5859 -0.1414  0.8968
 2352THY    CA258779   3.218   2.491   9.539 -0.0135 -1.0172 -0.2453
 2352THY    CP158780   3.373   2.520   9.555  0.2685  0.0685 -0.1842
 2352THY    HP158781   3.423   2.430   9.594 -0.8285 -0.7401 -0.5937
 2352THY    CP258782   3.431   2.545   9.419 -0.7159 -0.4157 -0.3557
 2352THY    HP258783   3.410   2.645   9.379  3.5487  1.0759  0.6109
 2352THY    HP358784   3.540   2.541   9.425 -0.7168 -0.5099 -0.3913
 2352THY    HP458785   3.395   2.462   9.356  0.2529 -3.2515  2.5459
 2352THY    CP358786   3.402   2.639   9.650  0.0859  0.1246  0.7913
 2352THY    HP558787   3.502   2.627   9.691  1.6963 -0.5633 -2.8939
 2352THY    HP658788   3.393   2.734   9.595  3.3992  1.3180  2.1058
 2352THY    HP758789   3.323   2.660   9.723 -1.2989  1.3752 -0.9636
 2352THY    CA358790   3.134   2.538   9.433  0.2966 -0.5529  0.6922
 2352THY    HA358791   3.178   2.585   9.345 -0.6327 -1.2908 -0.2013
 2352THY    CA458792   2.993   2.514   9.432 -0.6466 -0.2673  0.1344
 2352THY    HA458793   2.944   2.558   9.346  1.0206 -0.5618 -1.0159
 2352THY    CA558794   2.935   2.433   9.528  0.3661  0.5659  0.7139
 2352THY    CM158795   2.791   2.392   9.512  0.1102  0.6315 -0.0822
 2352THY    HM158796   2.773   2.314   9.437 -1.2156  0.7304  0.1122
 2352THY    HM258797   2.756   2.354   9.608  3.7864 -0.5377  0.9530
 2352THY    HM358798   2.729   2.477   9.479  1.3500  1.4658 -0.3378
 2352THY    CA658799   3.014   2.383   9.629 -0.4563  0.4555  0.6674
 2352THY    HA658800   2.963   2.329   9.708 -1.0440 -2.5735 -1.5923
 2353THY      O58801   3.763   9.245   0.397  0.0034 -0.3256  0.5937
 2353THY     HO58802   3.801   9.179   0.336 -0.4524 -1.4319  1.4692
 2353THY    CA158803   3.852   9.349   0.399 -0.4658  0.1949  0.4475
 2353THY    CA258804   3.849   9.447   0.493  0.0571 -0.5928 -0.1146
 2353THY    CP158805   3.739   9.452   0.591  0.3112 -0.3059  0.2532
 2353THY    HP158806   3.648   9.426   0.535 -0.2700  0.4115  0.8426
 2353THY    CP258807   3.757   9.348   0.697 -0.7232 -0.3187  0.0696
 2353THY    HP258808   3.785   9.253   0.649 -0.3306 -0.0690 -0.2020
 2353THY    HP358809   3.842   9.377   0.759 -1.7035 -0.4397  1.4979
 2353THY    HP458810   3.675   9.323   0.765 -1.2982 -1.2149 -0.9047
 2353THY    CP358811   3.699   9.585   0.652  0.3573 -0.0646 -0.1329
 2353THY    HP558812   3.600   9.591   0.696  0.1320 -2.7372 -0.0790
 2353THY    HP658813   3.766   9.617   0.732 -1.3605  1.2088  0.8410
 2353THY    HP758814   3.696   9.665   0.577  1.8275 -1.5181 -1.8621
 2353THY    CA358815   3.962   9.539   0.498 -0.0144  0.1392 -0.3793
 2353THY    HA358816   3.957   9.620   0.571 -0.1730  1.6012 -1.9426
 2353THY    CA458817   4.057   9.532   0.403 -1.0718 -0.3808  0.3712
 2353THY    HA458818   4.133   9.609   0.408 -1.1140 -0.2148 -1.1996
 2353THY    CA558819   4.057   9.434   0.308  0.7865 -0.0149  0.3318
 2353THY    CM158820   4.162   9.432   0.202 -1.0314 -0.1584  0.0981
 2353THY    HM158821   4.228   9.344   0.201  0.7210  1.1078 -0.9980
 2353THY    HM258822   4.121   9.442   0.101  2.4910 -2.5019 -1.8113
 2353THY    HM358823   4.236   9.510   0.224 -0.2942 -1.2776  1.7786
 2353THY    CA658824   3.960   9.333   0.312  0.3903 -0.5679  0.2091
 2353THY    HA658825   3.969   9.256   0.235  0.0716  0.6441 -1.0821
 2354THY      O58826   4.146   3.472   9.939  0.1321 -0.2014  0.1417
 2354THY     HO58827   4.103   3.540   9.994  3.0177  1.1851  0.8709
 2354THY    CA158828   4.239   3.547   9.879  0.3111 -0.1710 -0.1920
 2354THY    CA258829   4.302   3.502   9.766  0.0593  0.0873 -0.3511
 2354THY    CP158830   4.265   3.368   9.704  0.2296  0.3495  0.0519
 2354THY    HP158831   4.192   3.313   9.765  0.1344  0.4143 -0.0054
 2354THY    CP258832   4.209   3.386   9.561  0.2264 -0.1538 -0.2942
 2354THY    HP258833   4.171   3.284   9.548 -1.8061  0.1911  2.1957
 2354THY    HP358834   4.123   3.453   9.556  1.7092  1.9901  1.1900
 2354THY    HP458835   4.288   3.422   9.493  0.9230  0.1790  0.6613
 2354THY    CP358836   4.384   3.273   9.695  0.1971 -0.0084 -0.0051
 2354THY    HP558837   4.442   3.297   9.785  0.1990  0.2699 -0.0828
 2354THY    HP658838   4.358   3.167   9.711 -0.1498  0.1215  0.2981
 2354THY    HP758839   4.450   3.278   9.607  0.5970 -2.8035  0.0410
 2354THY    CA358840   4.420   3.564   9.712 -0.1073  0.9493 -0.1685
 2354THY    HA358841   4.472   3.528   9.623 -1.1249 -2.3024  0.4239
 2354THY    CA458842   4.461   3.681   9.774  0.3140 -0.1418 -0.0133
 2354THY    HA458843   4.544   3.746   9.748 -2.5531  5.3718  2.6808
 2354THY    CA558844   4.381   3.744   9.872 -0.4954 -0.1089 -0.0889
 2354THY    CM158845   4.424   3.877   9.922  0.0771  0.1678  0.2244
 2354THY    HM158846   4.348   3.929   9.982 -0.9926  0.2437 -1.1493
 2354THY    HM258847   4.511   3.867   9.989 -1.3139 -0.1575  2.0789
 2354THY    HM358848   4.440   3.941   9.835 -2.9324  0.0088 -0.5567
 2354THY    CA658849   4.273   3.675   9.924 -0.1516  0.7590 -0.1128
 2354THY    HA658850   4.210   3.717  10.001  1.9751 -0.1898  2.2847
 2355THY      O58851   2.743   1.422   9.132  0.0299 -0.1558  0.3992
 2355THY     HO58852   2.724   1.344   9.077  0.6182 -0.9838  1.3402
 2355THY    CA158853   2.878   1.429   9.119 -0.1492  0.2211 -0.2021
 2355THY    CA258854   2.947   1.537   9.192  0.4985 -0.7515 -0.6212
 2355THY    CP158855   2.872   1.654   9.268  0.6070  0.5295  0.6986
 2355THY    HP158856   2.766   1.628   9.280  0.8567  0.3755  3.1510
 2355THY    CP258857   2.919   1.680   9.411 -0.9059 -0.4119  0.1201
 2355THY    HP258858   3.025   1.709   9.406 -0.9219 -0.4900 -0.9571
 2355THY    HP358859   2.856   1.763   9.446  0.0544 -0.2271  1.4618
 2355THY    HP458860   2.915   1.594   9.478  0.9125 -0.9665 -0.4274
 2355THY    CP358861   2.870   1.786   9.189  0.2164  0.1398 -0.3160
 2355THY    HP558862   2.818   1.867   9.241 -0.3215 -0.3689 -0.0520
 2355THY    HP658863   2.977   1.813   9.182  0.2502 -0.3736 -2.3071
 2355THY    HP758864   2.828   1.778   9.088  2.1560 -1.3488 -1.0910
 2355THY    CA358865   3.084   1.548   9.168  0.3425 -1.2408  0.7899
 2355THY    HA358866   3.142   1.624   9.221 -1.5747  0.9030 -0.0130
 2355THY    CA458867   3.150   1.449   9.095  0.6994  0.3036  0.2685
 2355THY    HA458868   3.258   1.457   9.086  1.0981  0.2866  3.5783
 2355THY    CA558869   3.080   1.347   9.026 -0.6417 -1.0942  0.0730
 2355THY    CM158870   3.154   1.246   8.942  0.5500  0.1871  0.3940
 2355THY    HM158871   3.094   1.181   8.878  0.1816  0.1982  0.7233
 2355THY    HM258872   3.226   1.295   8.875  0.1328 -0.0148 -0.2084
 2355THY    HM358873   3.210   1.192   9.019  0.5573 -1.1542 -0.5319
 2355THY    CA658874   2.941   1.340   9.046  0.3127  0.5773  0.2116
 2355THY    HA658875   2.883   1.264   8.994  1.1911  0.7234 -1.0282
 2356THY      O58876   5.550   2.218   7.423  0.0028 -0.3101 -0.0006
 2356THY     HO58877   5.568   2.123   7.417 -0.3404 -0.4671  1.2750
 2356THY    CA158878   5.530   2.250   7.553 -1.3048  0.6052  0.5546
 2356THY    CA258879   5.557   2.381   7.602 -0.2990  0.3495  0.6380
 2356THY    CP158880   5.591   2.496   7.512 -0.4766  0.0999 -0.7225
 2356THY    HP158881   5.597   2.464   7.407 -1.9954 -0.5243 -0.6467
 2356THY    CP258882   5.475   2.603   7.513 -0.2614  0.1220 -0.2727
 2356THY    HP258883   5.493   2.682   7.438 -2.1309  0.5169 -0.3413
 2356THY    HP358884   5.383   2.546   7.504 -0.0184 -0.1395 -1.2396
 2356THY    HP458885   5.470   2.646   7.614  0.9706  0.1579 -0.2020
 2356THY    CP358886   5.732   2.558   7.533 -0.3660  0.2385 -0.9208
 2356THY    HP558887   5.807   2.479   7.527  0.0970  0.6215 -0.2075
 2356THY    HP658888   5.743   2.637   7.458  1.1044  1.0243  0.0747
 2356THY    HP758889   5.745   2.607   7.630  0.2451 -0.3765 -0.6856
 2356THY    CA358890   5.540   2.408   7.744  0.3960 -0.0718 -0.1937
 2356THY    HA358891   5.539   2.511   7.779 -2.2601 -0.3798  0.8333
 2356THY    CA458892   5.511   2.299   7.841  0.4809  0.0742  0.4422
 2356THY    HA458893   5.490   2.308   7.947  0.3909  0.7014  0.3791
 2356THY    CA558894   5.487   2.174   7.782  0.1728 -0.5358 -0.5515
 2356THY    CM158895   5.451   2.057   7.871 -1.0611  0.0342  0.3926
 2356THY    HM158896   5.395   2.074   7.963 -0.2099 -0.1166  0.9461
 2356THY    HM258897   5.395   1.981   7.815 -0.6249  0.3366 -0.4764
 2356THY    HM358898   5.544   2.012   7.908  0.8432  2.7534 -0.7544
 2356THY    CA658899   5.496   2.150   7.642  0.3863 -0.1535 -0.5966
 2356THY    HA658900   5.464   2.052   7.612 -2.7496 -0.1437  2.1261
 2357THY      O58901   0.480   2.771   0.712 -0.3642  0.0443  0.5307
 2357THY     HO58902   0.499   2.820   0.630 -2.6433  0.2300  0.0465
 2357THY    CA158903   0.491   2.642   0.691  0.1863 -0.3144 -0.2669
 2357THY    CA258904   0.471   2.548   0.793  0.0157 -0.5975 -0.0069
 2357THY    CP158905   0.431   2.604   0.932 -0.2543  0.3316 -0.1242
 2357THY    HP158906   0.383   2.703   0.934  1.5768  1.2431  0.2443
 2357THY    CP258907   0.321   2.512   0.987 -0.3709 -0.2354  0.2846
 2357THY    HP258908   0.284   2.549   1.083  0.1146  0.5828  0.1654
 2357THY    HP358909   0.238   2.520   0.915  0.6640 -1.6744 -1.1337
 2357THY    HP458910   0.346   2.406   0.999 -0.7061 -0.5036 -1.2021
 2357THY    CP358911   0.548   2.599   1.037  0.8862  0.1809  0.4321
 2357THY    HP558912   0.517   2.629   1.138  0.0223  1.6256 -0.2323
 2357THY    HP658913   0.568   2.492   1.046  0.4132  0.1324  0.9790
 2357THY    HP758914   0.642   2.644   1.002 -0.0997  1.8909 -0.1566
 2357THY    CA358915   0.496   2.408   0.760 -0.7748 -0.2549  0.0504
 2357THY    HA358916   0.492   2.335   0.840  4.0245 -0.6515  0.1912
 2357THY    CA458917   0.537   2.364   0.634  0.4580  0.2424  0.3831
 2357THY    HA458918   0.542   2.256   0.621 -3.6449 -0.0850 -0.0435
 2357THY    CA558919   0.561   2.463   0.540  0.0352  0.2093 -0.4434
 2357THY    CM158920   0.609   2.421   0.408  0.1750  0.5422 -0.0838
 2357THY    HM158921   0.531   2.373   0.348  0.6211  0.2308 -0.4231
 2357THY    HM258922   0.643   2.511   0.354  1.4561  0.2011  0.1115
 2357THY    HM358923   0.683   2.340   0.408  0.7634  1.0525 -0.9951
 2357THY    CA658924   0.533   2.600   0.567  0.1769  0.5892 -0.5958
 2357THY    HA658925   0.547   2.669   0.484  1.7638  0.8482 -0.1392
 2358THY      O58926   5.716   4.016   4.514 -0.1256 -0.1154  0.2574
 2358THY     HO58927   5.756   4.067   4.587  1.6136 -0.2035 -0.5716
 2358THY    CA158928   5.589   3.991   4.550 -1.2717 -0.0633  0.3096
 2358THY    CA258929   5.489   3.958   4.456 -0.2875 -0.0451  0.0221
 2358THY    CP158930   5.518   3.956   4.303 -0.7561 -0.4220  0.0422
 2358THY    HP158931   5.625   3.950   4.278 -1.0782  1.1391 -1.8879
 2358THY    CP258932   5.458   3.836   4.232 -0.4720  0.6647  0.4550
 2358THY    HP258933   5.357   3.816   4.270 -1.3980  0.9843 -1.7252
 2358THY    HP358934   5.452   3.845   4.123 -0.3942  0.9719  0.4746
 2358THY    HP458935   5.525   3.749   4.237  1.0271  1.6760 -0.8643
 2358THY    CP358936   5.463   4.086   4.242  0.1531 -0.3178  0.5056
 2358THY    HP558937   5.353   4.083   4.247  0.0343  0.1482 -1.2181
 2358THY    HP658938   5.507   4.171   4.296  0.5388  0.0621 -0.4003
 2358THY    HP758939   5.493   4.103   4.138  0.0989 -3.0102 -0.0209
 2358THY    CA358940   5.360   3.934   4.509  0.3500 -0.6266 -0.3575
 2358THY    HA358941   5.273   3.909   4.448 -0.3756  2.3646 -0.6951
 2358THY    CA458942   5.344   3.935   4.649 -0.8013 -0.3642 -0.6361
 2358THY    HA458943   5.250   3.918   4.701  0.9966  0.0935  3.0841
 2358THY    CA558944   5.444   3.962   4.743  0.2647 -0.5317  0.4383
 2358THY    CM158945   5.425   3.961   4.895 -0.1221 -0.0431 -0.8639
 2358THY    HM158946   5.474   4.049   4.938  1.2021 -1.0150 -0.3287
 2358THY    HM258947   5.321   3.973   4.926  0.4294 -0.2479  1.2073
 2358THY    HM358948   5.467   3.873   4.945 -0.6132 -1.5862 -3.0055
 2358THY    CA658949   5.569   3.995   4.689 -0.0986  0.5794  0.0970
 2358THY    HA658950   5.651   4.005   4.760 -2.1874 -0.0207  2.7847
 2359THY      O58951   9.664   9.446   3.937 -0.0462 -0.1476  0.4926
 2359THY     HO58952   9.704   9.357   3.938  0.5010  0.0139 -1.7169
 2359THY    CA158953   9.530   9.437   3.940  0.1545 -0.2559 -0.6751
 2359THY    CA258954   9.451   9.522   4.021  0.0452 -0.5765 -0.3973
 2359THY    CP158955   9.519   9.637   4.098  0.2879  0.0417  0.3703
 2359THY    HP158956   9.620   9.602   4.122  0.3028  1.0186  1.8237
 2359THY    CP258957   9.520   9.773   4.025  0.3703 -0.0836  0.2347
 2359THY    HP258958   9.557   9.852   4.092 -2.4862 -1.0827  3.2466
 2359THY    HP358959   9.581   9.776   3.934 -2.6968  1.2533 -1.9704
 2359THY    HP458960   9.420   9.805   3.992  1.6991  1.8246 -2.3293
 2359THY    CP358961   9.446   9.647   4.232  0.4405 -0.1878  0.1642
 2359THY    HP558962   9.417   9.548   4.270 -1.5637  0.3752  0.2191
 2359THY    HP658963   9.518   9.694   4.300 -1.6926  2.0015  1.0382
 2359THY    HP758964   9.357   9.709   4.216 -0.5224 -1.4187  0.5310
 2359THY    CA358965   9.310   9.511   4.012 -0.4015 -0.2662 -0.1794
 2359THY    HA358966   9.243   9.573   4.070  0.3206  0.9075 -0.5537
 2359THY    CA458967   9.255   9.416   3.931  0.0061 -0.6906  1.0836
 2359THY    HA458968   9.150   9.391   3.940  0.0522 -1.4906 -0.2650
 2359THY    CA558969   9.331   9.338   3.849 -0.6872  0.6709  0.3593
 2359THY    CM158970   9.270   9.214   3.772  0.1647  0.1740  0.0805
 2359THY    HM158971   9.289   9.119   3.823  2.0829  0.0134 -0.8474
 2359THY    HM258972   9.162   9.234   3.764  0.8494  4.0266 -1.6578
 2359THY    HM358973   9.301   9.206   3.668  1.0639  0.3856  0.3226
 2359THY    CA658974   9.469   9.355   3.851 -0.5713  0.1436 -0.4465
 2359THY    HA658975   9.521   9.289   3.782 -1.4888 -0.0563 -0.9702
 2360THY      O58976   6.583   9.733   9.473 -0.2444 -0.1481 -0.6364
 2360THY     HO58977   6.566   9.802   9.539  0.6359 -0.0076 -0.5525
 2360THY    CA158978   6.492   9.759   9.382  0.3911  0.0409  0.0389
 2360THY    CA258979   6.383   9.682   9.365  0.2690 -0.0880  0.3208
 2360THY    CP158980   6.380   9.541   9.436  0.0636 -0.7135 -0.1798
 2360THY    HP158981   6.485   9.519   9.460  0.1800 -0.8756 -0.8213
 2360THY    CP258982   6.301   9.545   9.564  0.1728  0.8004 -0.5913
 2360THY    HP258983   6.355   9.590   9.649  1.5085 -3.6836  1.2791
 2360THY    HP358984   6.195   9.567   9.548  0.7029  2.7422 -1.7546
 2360THY    HP458985   6.305   9.446   9.611 -0.4821  1.6886  1.4805
 2360THY    CP358986   6.326   9.433   9.349 -0.0309  0.0142 -0.1253
 2360THY    HP558987   6.337   9.333   9.393 -0.9837 -0.0442 -0.0088
 2360THY    HP658988   6.219   9.449   9.330 -0.1614  1.3303  1.5119
 2360THY    HP758989   6.376   9.416   9.253  2.0930 -0.8515  1.0750
 2360THY    CA358990   6.290   9.724   9.272 -0.2076  0.0218 -0.2804
 2360THY    HA358991   6.202   9.663   9.260 -0.1490 -0.2009  0.3590
 2360THY    CA458992   6.311   9.833   9.187 -1.4646  0.2802  0.0416
 2360THY    HA458993   6.255   9.862   9.099  0.0964  1.3323 -0.6461
 2360THY    CA558994   6.427   9.906   9.201 -0.4066 -0.1519 -0.1164
 2360THY    CM158995   6.456  10.020   9.103  0.4125  0.1214 -0.3352
 2360THY    HM158996   6.546  10.014   9.041 -0.0511  2.3862 -1.3453
 2360THY    HM258997   6.384  10.019   9.020 -0.2189  1.3909  0.1758
 2360THY    HM358998   6.436  10.116   9.153 -0.3647  0.1144 -0.6125
 2360THY    CA658999   6.514   9.876   9.309  0.1217  0.7355 -1.1674
 2360THY    HA659000   6.605   9.932   9.332 -0.8575  1.3364  1.6454
 2361THY      O59001   4.636   3.195   8.857  0.4250  1.3271 -0.1456
 2361THY     HO59002   4.672   3.153   8.936 -2.4247  2.2374  1.8129
 2361THY    CA159003   4.522   3.124   8.828 -0.5090  0.3201  0.2816
 2361THY    CA259004   4.425   3.160   8.726 -1.1633 -0.2149 -0.3095
 2361THY    CP159005   4.445   3.282   8.646  0.2119 -0.1134 -0.0927
 2361THY    HP159006   4.511   3.349   8.704 -1.4878  2.6729 -1.1756
 2361THY    CP259007   4.524   3.263   8.511  0.7050  0.2811 -0.4659
 2361THY    HP259008   4.468   3.196   8.445 -1.2590  0.9687  0.4433
 2361THY    HP359009   4.545   3.360   8.465  0.2825  1.5276  1.8092
 2361THY    HP459010   4.614   3.204   8.535  0.6198  0.6198  0.7464
 2361THY    CP359011   4.321   3.367   8.621 -0.3022 -0.2316 -0.2642
 2361THY    HP559012   4.269   3.390   8.715  0.8480 -1.4508  0.7050
 2361THY    HP659013   4.349   3.463   8.575 -1.8298  0.8058  0.8843
 2361THY    HP759014   4.251   3.317   8.553  2.5360 -2.1276 -2.0095
 2361THY    CA359015   4.313   3.083   8.715 -0.4148 -0.0564 -0.8412
 2361THY    HA359016   4.234   3.113   8.647 -1.8954  0.7124  1.0984
 2361THY    CA459017   4.286   2.970   8.791  0.4250  0.4383 -0.7757
 2361THY    HA459018   4.200   2.906   8.772  0.6703 -0.0507 -0.2823
 2361THY    CA559019   4.380   2.937   8.883  0.0420  0.8294  0.5661
 2361THY    CM159020   4.363   2.811   8.967 -0.5026  0.1379 -0.1101
 2361THY    HM159021   4.429   2.730   8.936 -1.3844  0.2151 -2.3178
 2361THY    HM259022   4.389   2.826   9.073  3.1343 -1.7995 -0.5898
 2361THY    HM359023   4.261   2.773   8.979 -0.2741 -0.3302  0.4147
 2361THY    CA659024   4.497   3.010   8.902  0.2851  0.7326  0.9121
 2361THY    HA659025   4.554   2.980   8.990  0.3064 -0.1004  0.6227
 2362THY      O59026   4.616   0.805   6.956 -0.5077  0.4440  0.6333
 2362THY     HO59027   4.671   0.788   6.878 -1.0447 -1.4101  0.6072
 2362THY    CA159028   4.589   0.682   7.004  0.2786  0.5721 -0.3598
 2362THY    CA259029   4.560   0.656   7.146  0.0776 -0.7472 -0.1632
 2362THY    CP159030   4.557   0.776   7.244 -0.2505  0.0887  0.6010
 2362THY    HP159031   4.613   0.859   7.200 -0.0261  0.7435  2.0613
 2362THY    CP259032   4.413   0.822   7.267 -0.1019 -0.1443 -0.0713
 2362THY    HP259033   4.377   0.850   7.167 -0.8291 -0.4001  0.1140
 2362THY    HP359034   4.352   0.741   7.306 -2.3134  0.1243 -2.6702
 2362THY    HP459035   4.405   0.913   7.327  1.0717  1.3246 -1.9936
 2362THY    CP359036   4.618   0.737   7.374  0.2077  0.8677 -0.2462
 2362THY    HP559037   4.626   0.827   7.436 -2.9149  0.5406  0.8394
 2362THY    HP659038   4.556   0.666   7.430 -0.1286  1.8383  0.6421
 2362THY    HP759039   4.712   0.685   7.354 -1.2778 -1.9209 -0.5252
 2362THY    CA359040   4.546   0.527   7.185 -0.4155  0.7741 -0.8384
 2362THY    HA359041   4.534   0.490   7.287  0.8931 -0.8113 -1.2215
 2362THY    CA459042   4.539   0.426   7.088 -0.4752  0.0148 -0.2285
 2362THY    HA459043   4.534   0.321   7.116 -0.3195  0.0785  0.0484
 2362THY    CA559044   4.552   0.450   6.952  0.4084 -0.0309 -0.3043
 2362THY    CM159045   4.567   0.326   6.863  0.1170 -0.2575 -0.1018
 2362THY    HM159046   4.672   0.317   6.835  0.4499 -0.0162  0.9985
 2362THY    HM259047   4.539   0.233   6.915 -0.2498 -0.1959 -0.1840
 2362THY    HM359048   4.497   0.340   6.780 -1.4385  0.3030  1.2540
 2362THY    CA659049   4.591   0.580   6.913 -0.1103  0.1972 -0.4982
 2362THY    HA659050   4.604   0.612   6.810 -0.2639 -0.5677 -0.7674
 2363THY      O59051   4.637   7.593   9.670 -0.5273  0.2103  0.2449
 2363THY     HO59052   4.551   7.637   9.658 -0.2336  0.4289 -1.2935
 2363THY    CA159053   4.732   7.682   9.701 -0.0727 -0.4793  0.0360
 2363THY    CA259054   4.855   7.673   9.629 -0.3016  0.4748 -0.4564
 2363THY    CP159055   4.890   7.542   9.544  0.1640 -0.3551 -0.1942
 2363THY    HP159056   4.808   7.473   9.522  0.5632 -0.7207 -0.5498
 2363THY    CP259057   4.970   7.569   9.411 -0.0033  0.0431  0.4901
 2363THY    HP259058   4.996   7.481   9.352 -1.6033  0.8176 -1.4888
 2363THY    HP359059   4.904   7.604   9.331 -2.9158  2.3459  3.5773
 2363THY    HP459060   5.051   7.641   9.427  0.6817 -0.7675  0.7624
 2363THY    CP359061   4.973   7.456   9.645 -0.4665 -0.3205  0.0863
 2363THY    HP559062   4.918   7.452   9.739 -1.8500  2.8061 -0.4893
 2363THY    HP659063   5.008   7.355   9.620  2.0817  0.3619  0.5398
 2363THY    HP759064   5.066   7.510   9.667 -0.2699  0.6587 -2.7004
 2363THY    CA359065   4.946   7.775   9.641  0.3361  0.2012 -0.0732
 2363THY    HA359066   5.039   7.782   9.585  0.3274 -2.2029 -0.4955
 2363THY    CA459067   4.909   7.890   9.709  0.0260 -0.6616  0.6317
 2363THY    HA459068   4.976   7.975   9.716  0.8688 -1.2522 -0.0810
 2363THY    CA559069   4.787   7.901   9.771 -0.0937  0.0839  0.0606
 2363THY    CM159070   4.749   8.023   9.848  0.1695  0.2224 -0.4615
 2363THY    HM159071   4.715   7.997   9.949  0.7787  1.0032 -0.0459
 2363THY    HM259072   4.835   8.090   9.855  0.7573 -0.6876  2.1019
 2363THY    HM359073   4.667   8.067   9.789  1.1310  1.5615 -0.8243
 2363THY    CA659074   4.705   7.792   9.771 -0.0753  0.3617 -0.7708
 2363THY    HA659075   4.607   7.790   9.817 -0.0530  0.7569 -0.7085
 2364THY      O59076   5.837   6.943   8.091  0.2020 -0.3167 -0.1821
 2364THY     HO59077   5.869   7.026   8.052  3.0811 -0.4185  1.6099
 2364THY    CA159078   5.843   6.971   8.218 -1.4848  0.0493 -0.3653
 2364THY    CA259079   5.876   6.872   8.309 -0.8360  0.2725  0.2157
 2364THY    CP159080   5.881   6.718   8.264  0.0564  0.3611  0.3860
 2364THY    HP159081   5.902   6.706   8.157 -1.4735  1.0655 -0.0163
 2364THY    CP259082   6.002   6.641   8.329  0.1480  0.3153  0.3546
 2364THY    HP259083   6.096   6.687   8.295  1.9719 -1.3310  2.7718
 2364THY    HP359084   5.997   6.649   8.439 -0.5586 -2.2757  0.5702
 2364THY    HP459085   5.998   6.535   8.303 -2.3119  0.8710 -1.8864
 2364THY    CP359086   5.743   6.653   8.295 -0.4262 -0.4340 -0.1036
 2364THY    HP559087   5.751   6.626   8.401  1.0984 -0.2825 -0.1615
 2364THY    HP659088   5.664   6.727   8.278  1.1933  1.9287  1.8687
 2364THY    HP759089   5.723   6.571   8.226  0.1072  1.3977 -2.5856
 2364THY    CA359090   5.908   6.905   8.443 -0.1467  0.8617  0.1276
 2364THY    HA359091   5.917   6.827   8.517  0.3247  0.7845 -0.0059
 2364THY    CA459092   5.896   7.040   8.482 -0.2850 -0.3478  0.9113
 2364THY    HA459093   5.918   7.064   8.586 -0.2913  1.9538  0.4346
 2364THY    CA559094   5.875   7.139   8.387 -0.8366  0.6748 -0.1260
 2364THY    CM159095   5.865   7.276   8.427 -0.1250 -0.1085  0.1761
 2364THY    HM159096   5.906   7.338   8.347  0.2598 -0.8893 -0.2497
 2364THY    HM259097   5.760   7.306   8.435  0.0145  0.2265  0.8584
 2364THY    HM359098   5.917   7.305   8.520  2.6706  0.6031 -1.4769
 2364THY    CA659099   5.852   7.105   8.257 -0.1307  0.3147  0.4851
 2364THY    HA659100   5.837   7.175   8.174 -1.1786 -2.2851 -1.6616
 2365THY      O59101   1.673   4.307   5.792 -0.1160  0.0584  0.6320
 2365THY     HO59102   1.637   4.247   5.725  0.8504  0.6273 -0.4378
 2365THY    CA159103   1.591   4.413   5.807 -0.2529  0.1224  0.0437
 2365THY    CA259104   1.622   4.531   5.875 -0.5732  0.3256  0.4556
 2365THY    CP159105   1.767   4.567   5.924  0.3748 -0.3064  0.0637
 2365THY    HP159106   1.844   4.504   5.876  2.3332  2.4134 -0.6484
 2365THY    CP259107   1.807   4.714   5.893  0.3021  0.4522  0.1162
 2365THY    HP259108   1.916   4.721   5.906  0.7086 -4.4105  1.1567
 2365THY    HP359109   1.791   4.744   5.789  2.0204  0.9775 -0.0424
 2365THY    HP459110   1.777   4.786   5.971 -1.4244  0.3531 -0.4274
 2365THY    CP359111   1.802   4.524   6.078 -0.2100 -0.0938 -0.0754
 2365THY    HP559112   1.910   4.532   6.098 -0.4715  0.2694  1.2635
 2365THY    HP659113   1.742   4.585   6.147  0.9286 -1.6127  2.3821
 2365THY    HP759114   1.781   4.418   6.092  2.9006 -0.8292 -0.1424
 2365THY    CA359115   1.521   4.630   5.888  0.6144  0.3226 -0.2724
 2365THY    HA359116   1.552   4.718   5.943 -1.0303  1.1568 -0.6303
 2365THY    CA459117   1.394   4.613   5.839 -0.2443 -1.6790 -1.5620
 2365THY    HA459118   1.321   4.693   5.852  2.1223  0.4940 -0.5358
 2365THY    CA559119   1.360   4.492   5.773 -0.4528 -0.1451 -0.5072
 2365THY    CM159120   1.225   4.474   5.728  0.3360 -0.2175  0.0120
 2365THY    HM159121   1.149   4.496   5.803 -0.6184 -1.9402 -0.3913
 2365THY    HM259122   1.220   4.538   5.640 -0.9119 -0.0539  0.1873
 2365THY    HM359123   1.209   4.372   5.690  0.3431 -0.8646  1.6551
 2365THY    CA659124   1.462   4.397   5.762 -0.5119 -0.1004 -0.3638
 2365THY    HA659125   1.430   4.304   5.716 -3.3336 -0.1022  1.3734
 2366THY      O59126   8.637   5.705   4.136  0.2015  0.3152  0.1409
 2366THY     HO59127   8.608   5.773   4.198 -0.1618  0.3305 -0.0475
 2366THY    CA159128   8.533   5.625   4.111  0.3183 -0.9016 -0.7196
 2366THY    CA259129   8.490   5.570   3.987 -0.4460  0.2897 -0.5505
 2366THY    CP159130   8.567   5.611   3.856 -0.6147 -0.1975 -0.4282
 2366THY    HP159131   8.675   5.623   3.871 -0.3306 -0.0318 -2.2998
 2366THY    CP259132   8.565   5.506   3.747 -0.1660 -0.2579 -0.1219
 2366THY    HP259133   8.652   5.528   3.684 -0.4249  1.2735  0.0016
 2366THY    HP359134   8.574   5.404   3.785 -0.9741 -0.9539 -1.7245
 2366THY    HP459135   8.486   5.513   3.672 -0.4757 -2.1872 -0.0211
 2366THY    CP359136   8.523   5.743   3.795 -0.5857 -0.7753 -0.5239
 2366THY    HP559137   8.586   5.783   3.715 -0.8565  1.3162  0.2206
 2366THY    HP659138   8.422   5.732   3.753 -0.2148 -0.8590 -1.4135
 2366THY    HP759139   8.520   5.828   3.864 -1.6900  0.0557 -1.5497
 2366THY    CA359140   8.375   5.487   3.986 -0.3373  0.1504 -0.5351
 2366THY    HA359141   8.340   5.448   3.891  0.3958  1.0242 -1.1834
 2366THY    CA459142   8.312   5.452   4.111 -0.0523  0.1380 -0.3423
 2366THY    HA459143   8.231   5.380   4.117  0.9170 -0.8465  2.4802
 2366THY    CA559144   8.368   5.496   4.233  0.1418  0.0297 -0.0979
 2366THY    CM159145   8.303   5.466   4.366 -0.3115 -0.3666 -0.1747
 2366THY    HM159146   8.198   5.499   4.366 -0.8422 -2.0033 -0.0886
 2366THY    HM259147   8.305   5.358   4.383  1.7642 -0.4933 -0.9715
 2366THY    HM359148   8.359   5.512   4.448 -1.0059  0.0312  0.0871
 2366THY    CA659149   8.479   5.581   4.224 -0.9949  0.2589 -0.3497
 2366THY    HA659150   8.523   5.612   4.319 -0.5186 -0.8124 -0.2014
 2367THY      O59151   4.754   0.831   6.706  0.1482 -0.1410 -0.2195
 2367THY     HO59152   4.722   0.921   6.690  2.5177  1.0722  1.3307
 2367THY    CA159153   4.728   0.769   6.583  0.7139  0.2089 -0.3035
 2367THY    CA259154   4.692   0.837   6.463 -0.4863 -0.6870  0.1499
 2367THY    CP159155   4.680   0.985   6.469 -0.6522 -0.1758  0.1850
 2367THY    HP159156   4.639   1.010   6.568 -1.2603 -0.6173  0.0537
 2367THY    CP259157   4.820   1.057   6.453 -0.2164 -0.6594  0.8240
 2367THY    HP259158   4.876   1.049   6.548 -0.4118  0.9124  1.0935
 2367THY    HP359159   4.882   1.025   6.368 -1.4773  0.9444 -0.7627
 2367THY    HP459160   4.804   1.163   6.432 -0.9582 -0.7374  0.9692
 2367THY    CP359161   4.582   1.039   6.369  0.1976  0.2303  0.5365
 2367THY    HP559162   4.481   0.998   6.378 -0.0410  0.8375  0.6891
 2367THY    HP659163   4.573   1.148   6.378  2.5188  0.6556 -1.4828
 2367THY    HP759164   4.627   1.028   6.270  3.5323  0.0847  1.9239
 2367THY    CA359165   4.667   0.763   6.349  0.6061 -0.3176  0.3745
 2367THY    HA359166   4.638   0.804   6.253  1.0754  1.8859  1.1221
 2367THY    CA459167   4.675   0.622   6.361  0.8976 -0.1906 -0.4631
 2367THY    HA459168   4.645   0.569   6.271 -1.3398 -0.1024  0.1643
 2367THY    CA559169   4.709   0.554   6.475 -0.0199 -0.4885 -0.5001
 2367THY    CM159170   4.721   0.405   6.485  0.4995 -0.2851  0.3782
 2367THY    HM159171   4.826   0.381   6.502  0.7091  1.0099  1.0010
 2367THY    HM259172   4.648   0.369   6.559 -2.7760  2.5641 -1.1860
 2367THY    HM359173   4.683   0.351   6.397 -1.1241  0.8557  0.3415
 2367THY    CA659174   4.737   0.625   6.588  0.6029 -0.8702  0.0690
 2367THY    HA659175   4.778   0.578   6.677  0.3688 -4.2462 -1.4493
 2368THY      O59176   5.056   7.469   1.145  0.3910 -0.9255  1.1440
 2368THY     HO59177   5.094   7.441   1.061 -0.3505 -1.1178  0.8627
 2368THY    CA159178   5.141   7.563   1.193  0.1246 -0.2982 -0.3843
 2368THY    CA259179   5.119   7.611   1.322  0.7079 -0.6413  0.1232
 2368THY    CP159180   5.015   7.542   1.422  0.0207  0.2011  0.2631
 2368THY    HP159181   4.946   7.480   1.364 -1.2503  1.7153  0.0950
 2368THY    CP259182   5.094   7.455   1.524  0.4945 -0.3087  0.1004
 2368THY    HP259183   5.178   7.396   1.486  1.4081  0.9573  0.0866
 2368THY    HP359184   5.123   7.513   1.612 -1.0271 -0.2622  0.5921
 2368THY    HP459185   5.028   7.374   1.557  0.5232 -0.0541  0.7907
 2368THY    CP359186   4.932   7.645   1.502 -0.2834 -0.5856 -0.8931
 2368THY    HP559187   4.907   7.591   1.594 -0.4942 -3.2885 -2.4535
 2368THY    HP659188   4.984   7.739   1.529  1.5029 -2.0202  0.9968
 2368THY    HP759189   4.835   7.669   1.457 -1.6370  1.1836  2.5882
 2368THY    CA359190   5.217   7.700   1.373 -0.3554 -0.3899  0.0424
 2368THY    HA359191   5.199   7.745   1.471 -0.6134  2.7074 -1.3050
 2368THY    CA459192   5.319   7.750   1.289  0.5567 -0.1674 -0.7295
 2368THY    HA459193   5.386   7.825   1.328  0.0784 -0.6029  1.0336
 2368THY    CA559194   5.331   7.696   1.160 -0.0609  0.3526  0.1300
 2368THY    CM159195   5.449   7.744   1.083 -0.6779 -0.1827 -0.1646
 2368THY    HM159196   5.426   7.844   1.044 -0.3699 -0.0794 -0.0870
 2368THY    HM259197   5.546   7.751   1.133 -0.0441 -2.8258 -0.8537
 2368THY    HM359198   5.459   7.690   0.988 -1.8233 -0.6646 -0.0241
 2368THY    CA659199   5.240   7.605   1.112 -0.1071  0.0388  0.0851
 2368THY    HA659200   5.252   7.565   1.012 -0.8789  2.4195 -1.0323
 2369THY      O59201   2.685   5.033   4.137 -0.5260 -0.4378 -0.4291
 2369THY     HO59202   2.673   5.124   4.169 -1.3883 -0.5491 -0.4108
 2369THY    CA159203   2.672   4.948   4.244 -0.3755  0.2295 -0.0008
 2369THY    CA259204   2.704   4.813   4.219 -0.5529  0.4167 -0.1259
 2369THY    CP159205   2.728   4.761   4.076 -0.1819  0.0885  0.2528
 2369THY    HP159206   2.689   4.839   4.009  3.0224  2.1305  0.5311
 2369THY    CP259207   2.874   4.729   4.066 -0.3550 -0.7140 -0.0988
 2369THY    HP259208   2.898   4.706   3.961  1.2298  2.3993 -0.5457
 2369THY    HP359209   2.938   4.815   4.089  1.1716 -0.7371 -3.6280
 2369THY    HP459210   2.901   4.650   4.136  0.6889  1.2627  1.8620
 2369THY    CP359211   2.643   4.628   4.047 -0.1776 -0.5842  0.0864
 2369THY    HP559212   2.637   4.606   3.939 -1.3441  0.3092 -0.0484
 2369THY    HP659213   2.668   4.541   4.108  2.5298  1.3494  1.9663
 2369THY    HP759214   2.539   4.653   4.068 -0.3266 -0.6049 -0.6037
 2369THY    CA359215   2.700   4.725   4.325 -0.3025  0.5557  0.3439
 2369THY    HA359216   2.707   4.617   4.315 -0.5088  0.7057 -1.7862
 2369THY    CA459217   2.665   4.773   4.455  0.3644  0.2120  0.1627
 2369THY    HA459218   2.652   4.715   4.546 -0.0303 -0.7916 -0.5209
 2369THY    CA559219   2.655   4.913   4.477 -0.2493 -0.3656  0.4176
 2369THY    CM159220   2.615   4.962   4.618  0.5339  0.1773 -0.3353
 2369THY    HM159221   2.671   4.909   4.696 -0.4292 -0.3475  0.0109
 2369THY    HM259222   2.637   5.069   4.628 -0.1790  0.4020 -1.0930
 2369THY    HM359223   2.512   4.941   4.647  1.0939 -1.5224  0.5695
 2369THY    CA659224   2.656   5.003   4.367  0.5196 -0.4837 -1.1037
 2369THY    HA659225   2.633   5.108   4.382 -0.4907 -0.0281 -4.8158
 2370THY      O59226   0.094   2.764   1.669  0.0548  0.5054  0.4193
 2370THY     HO59227   0.034   2.752   1.745  1.7953  0.9152  1.9169
 2370THY    CA159228   0.174   2.648   1.675  0.2559  0.0906  0.3932
 2370THY    CA259229   0.268   2.614   1.574  0.2554  0.2163 -0.1526
 2370THY    CP159230   0.282   2.709   1.455 -0.6825  0.5755 -0.2967
 2370THY    HP159231   0.190   2.764   1.434 -0.1969  2.6312  2.4022
 2370THY    CP259232   0.388   2.814   1.477  0.5770 -0.5241 -0.2431
 2370THY    HP259233   0.477   2.765   1.520  1.8938 -0.6975 -2.9657
 2370THY    HP359234   0.428   2.858   1.385  2.2334 -0.9929  0.2028
 2370THY    HP459235   0.349   2.887   1.548 -0.6724 -2.3666  1.0610
 2370THY    CP359236   0.324   2.633   1.328 -0.1494  0.4912  0.6852
 2370THY    HP559237   0.244   2.561   1.305  1.2908 -1.6382  2.0354
 2370THY    HP659238   0.336   2.702   1.244 -0.7070  1.6643  1.5387
 2370THY    HP759239   0.418   2.579   1.342 -0.0327 -0.1943 -2.1226
 2370THY    CA359240   0.362   2.513   1.606 -0.0379 -0.0087  0.3267
 2370THY    HA359241   0.444   2.481   1.542 -2.2496 -3.8150 -0.9634
 2370THY    CA459242   0.332   2.426   1.711 -0.7125  0.0437  0.0216
 2370THY    HA459243   0.390   2.339   1.742 -0.6516  0.2239  0.4249
 2370THY    CA559244   0.228   2.450   1.799  0.6450  0.5334 -0.0224
 2370THY    CM159245   0.213   2.378   1.930 -0.4537 -0.1601  0.1257
 2370THY    HM159246   0.111   2.359   1.964 -0.4837  1.2719  0.9272
 2370THY    HM259247   0.274   2.289   1.914  1.0947  0.6298  1.3462
 2370THY    HM359248   0.259   2.438   2.009 -2.0631  1.0944  0.1789
 2370THY    CA659249   0.158   2.570   1.784 -0.5499  0.1336 -0.5303
 2370THY    HA659250   0.086   2.594   1.862  0.9576 -0.8267  1.2332
 2371THY      O59251   0.640   5.992   6.156 -0.2745  0.0779 -0.5958
 2371THY     HO59252   0.620   6.085   6.138 -0.2113  0.6810  1.9692
 2371THY    CA159253   0.559   5.949   6.253  0.7080 -0.4458 -0.1274
 2371THY    CA259254   0.542   5.815   6.278  0.1495  0.3041 -0.5377
 2371THY    CP159255   0.611   5.707   6.191  0.1441 -0.5943 -0.0392
 2371THY    HP159256   0.707   5.751   6.160  0.1403 -0.0801  0.6733
 2371THY    CP259257   0.636   5.576   6.263  0.1993 -0.2346  0.0346
 2371THY    HP259258   0.698   5.595   6.352  0.2628  2.9935 -0.5775
 2371THY    HP359259   0.543   5.525   6.290 -0.9573  2.3235  1.2082
 2371THY    HP459260   0.696   5.503   6.208 -1.7287 -0.8735 -1.3181
 2371THY    CP359261   0.528   5.670   6.071 -0.0697  0.6335  0.8612
 2371THY    HP559262   0.435   5.626   6.109  1.1649 -0.3475  2.8841
 2371THY    HP659263   0.502   5.766   6.024 -0.9143  0.2941  0.6098
 2371THY    HP759264   0.567   5.600   5.996 -2.5868 -1.3332  1.2733
 2371THY    CA359265   0.452   5.777   6.379 -0.1677 -0.1013 -0.6278
 2371THY    HA359266   0.440   5.670   6.396  1.9044 -0.6281 -2.0263
 2371THY    CA459267   0.388   5.882   6.459  0.2676  0.1032  0.6845
 2371THY    HA459268   0.306   5.855   6.526 -1.4997 -1.9325 -2.0407
 2371THY    CA559269   0.405   6.014   6.419  1.1368 -0.0966 -0.5128
 2371THY    CM159270   0.320   6.122   6.478 -0.1778  0.1659 -0.5589
 2371THY    HM159271   0.240   6.091   6.546  2.1248  2.2019  3.5005
 2371THY    HM259272   0.380   6.193   6.537  0.1008 -0.4654 -0.0638
 2371THY    HM359273   0.268   6.171   6.395  0.1681 -0.4549 -1.1535
 2371THY    CA659274   0.489   6.051   6.315  0.2485  0.4381 -0.5604
 2371THY    HA659275   0.504   6.157   6.294  2.7129 -0.0204 -1.3761
 2372THY      O59276   0.662   2.814   6.059 -0.6280 -0.3032  0.5412
 2372THY     HO59277   0.649   2.727   6.100 -0.3944  0.2469  1.8505
 2372THY    CA159278   0.776   2.862   6.111  0.3961 -0.1435 -0.4297
 2372THY    CA259279   0.852   2.969   6.055  0.0472  0.1659 -0.2147
 2372THY    CP159280   0.824   3.031   5.920  0.0091  0.3239 -0.4375
 2372THY    HP159281   0.745   2.977   5.868  0.4000 -0.7646  0.0790
 2372THY    CP259282   0.780   3.181   5.939 -0.1222  0.8687 -0.3777
 2372THY    HP259283   0.831   3.215   6.030 -2.1329  1.1497  0.7038
 2372THY    HP359284   0.810   3.242   5.853  2.8717 -0.0593 -0.0806
 2372THY    HP459285   0.675   3.191   5.970  0.3344  0.1783  1.5288
 2372THY    CP359286   0.948   3.019   5.836  0.1837  0.4684 -0.0285
 2372THY    HP559287   0.922   3.057   5.736 -0.8781  1.8031  0.7234
 2372THY    HP659288   1.033   3.073   5.878  0.3335  0.0276  0.2441
 2372THY    HP759289   0.979   2.916   5.810 -0.0939  0.1489  0.8808
 2372THY    CA359290   0.956   3.021   6.131 -0.2246  0.0368  0.1875
 2372THY    HA359291   1.009   3.104   6.086  1.5618 -1.1442 -0.0008
 2372THY    CA459292   0.981   2.969   6.260  0.7212 -0.2152  0.0665
 2372THY    HA459293   1.059   3.009   6.324 -0.2625 -0.0510  1.2217
 2372THY    CA559294   0.916   2.854   6.315  0.0824  0.1461 -0.0046
 2372THY    CM159295   0.950   2.791   6.442 -0.2912 -0.2827  0.7187
 2372THY    HM159296   0.926   2.861   6.522 -3.6443  1.8563 -1.9056
 2372THY    HM259297   0.896   2.697   6.461 -1.6961  0.6114  1.2771
 2372THY    HM359298   1.056   2.762   6.443  0.6943  3.0150  1.6792
 2372THY    CA659299   0.805   2.810   6.238  0.6580  0.1842  0.1431
 2372THY    HA659300   0.742   2.727   6.268 -0.9978  1.9099  1.6674
 2373THY      O59301   2.198   4.167   3.738 -0.4341 -0.0731  0.2812
 2373THY     HO59302   2.202   4.124   3.651  1.0962  0.0100  0.2764
 2373THY    CA159303   2.324   4.204   3.772  0.1801  0.8913  0.1449
 2373THY    CA259304   2.354   4.314   3.856  0.0958 -0.0937 -0.4959
 2373THY    CP159305   2.247   4.411   3.902 -0.2897  0.2030  0.1765
 2373THY    HP159306   2.150   4.399   3.853 -1.0293  2.4251  0.9824
 2373THY    CP259307   2.231   4.412   4.055 -0.2668 -0.3882  0.9231
 2373THY    HP259308   2.137   4.463   4.078 -0.7467  0.3916 -2.3619
 2373THY    HP359309   2.210   4.309   4.087  0.6033 -0.5055  1.1418
 2373THY    HP459310   2.322   4.429   4.114  0.3851  0.9012 -0.3737
 2373THY    CP359311   2.286   4.560   3.860  0.2843  0.2148  0.2019
 2373THY    HP559312   2.373   4.605   3.910 -1.1725  1.6535  1.5710
 2373THY    HP659313   2.302   4.571   3.753 -0.8983 -0.3626 -0.0429
 2373THY    HP759314   2.203   4.622   3.893 -1.1859 -1.0536 -0.9738
 2373THY    CA359315   2.487   4.324   3.902  0.2121  0.5891 -0.0777
 2373THY    HA359316   2.510   4.408   3.968  1.2528  1.4060 -1.4171
 2373THY    CA459317   2.584   4.236   3.860 -0.1785 -0.7002  0.1175
 2373THY    HA459318   2.683   4.249   3.903 -0.7866  0.0451  1.3683
 2373THY    CA559319   2.552   4.141   3.769 -0.1075  0.6049 -0.0518
 2373THY    CM159320   2.658   4.043   3.721 -0.0768  0.7845 -0.1256
 2373THY    HM159321   2.759   4.078   3.747  0.6672 -0.2227 -1.5012
 2373THY    HM259322   2.644   3.940   3.753 -0.0310  0.2422 -1.7737
 2373THY    HM359323   2.659   4.047   3.611 -1.2802  1.9456 -0.1205
 2373THY    CA659324   2.422   4.121   3.728 -0.3509  0.1425 -0.2274
 2373THY    HA659325   2.394   4.044   3.656 -1.7262  0.2882  0.1205
 2374THY      O59326   8.526   1.611   6.945 -0.3676  0.0852 -0.0046
 2374THY     HO59327   8.596   1.546   6.928 -1.1766 -0.7875 -0.0335
 2374THY    CA159328   8.425   1.541   7.003 -0.6887 -0.2128  0.0347
 2374THY    CA259329   8.289   1.577   7.016 -0.1296  0.2425  0.2467
 2374THY    CP159330   8.245   1.708   6.948 -0.7510  0.1754  0.0164
 2374THY    HP159331   8.331   1.751   6.894 -0.8774  0.9841  0.4520
 2374THY    CP259332   8.151   1.681   6.839 -0.4264  0.4202  0.5386
 2374THY    HP259333   8.196   1.617   6.762  1.3452  0.9134  1.0991
 2374THY    HP359334   8.067   1.620   6.875  0.4740  0.2478  2.5248
 2374THY    HP459335   8.123   1.770   6.783  0.6919  0.5368  0.1418
 2374THY    CP359336   8.189   1.802   7.053  0.2269  0.5590  0.2487
 2374THY    HP559337   8.270   1.830   7.121 -1.1447 -2.8313  3.6117
 2374THY    HP659338   8.149   1.893   7.005  1.3773  0.3377 -1.2000
 2374THY    HP759339   8.100   1.768   7.108  2.1734 -0.9935  2.6027
 2374THY    CA359340   8.200   1.496   7.082  0.6649  0.1701 -0.4269
 2374THY    HA359341   8.095   1.524   7.082 -0.1411 -2.5980 -0.1967
 2374THY    CA459342   8.241   1.366   7.130 -0.1721 -0.0432 -0.0831
 2374THY    HA459343   8.168   1.291   7.158  0.7213 -0.0832  2.3422
 2374THY    CA559344   8.375   1.323   7.105  0.3188 -0.0624 -0.9808
 2374THY    CM159345   8.406   1.188   7.145 -0.0435  0.1121 -0.1156
 2374THY    HM159346   8.454   1.198   7.243  0.9954 -2.2246 -0.3268
 2374THY    HM259347   8.312   1.131   7.146  0.3559 -0.5576  1.0752
 2374THY    HM359348   8.475   1.138   7.076  0.0060  0.2723 -0.1833
 2374THY    CA659349   8.466   1.412   7.056 -0.1332 -0.0698  0.7613
 2374THY    HA659350   8.568   1.376   7.053 -0.4696 -1.2805  2.7178
 2375THY      O59351   7.395   1.458   3.145  0.1150 -0.0863  0.2002
 2375THY     HO59352   7.394   1.404   3.064  3.4890 -0.4356  0.2488
 2375THY    CA159353   7.289   1.544   3.134  0.1284 -0.2654 -0.3721
 2375THY    CA259354   7.215   1.591   3.246 -0.4245 -0.6233  0.0420
 2375THY    CP159355   7.249   1.534   3.380  0.4750  0.1018  0.3369
 2375THY    HP159356   7.353   1.504   3.363 -0.1037 -0.9369 -1.7554
 2375THY    CP259357   7.248   1.639   3.486  0.0860 -0.3937 -0.8480
 2375THY    HP259358   7.317   1.625   3.569 -0.9141 -2.4861 -0.2925
 2375THY    HP359359   7.274   1.738   3.447 -1.0051  0.1176 -0.3344
 2375THY    HP459360   7.148   1.646   3.531  0.0499 -1.5126 -0.7296
 2375THY    CP359361   7.173   1.405   3.395  0.5183 -0.2150  0.1655
 2375THY    HP559362   7.193   1.366   3.496  0.9596  0.1544  0.2237
 2375THY    HP659363   7.069   1.427   3.370  1.6387  2.3426 -2.8650
 2375THY    HP759364   7.208   1.342   3.312 -0.5687  0.1538 -0.6019
 2375THY    CA359365   7.108   1.679   3.228  0.1021  0.3422  0.4165
 2375THY    HA359366   7.038   1.710   3.306 -1.3709  0.4141 -0.8785
 2375THY    CA459367   7.077   1.716   3.099  0.6781 -0.2194 -0.1079
 2375THY    HA459368   6.993   1.782   3.084  2.2029  2.5665  2.5205
 2375THY    CA559369   7.148   1.672   2.990 -0.1632 -0.3970 -0.6870
 2375THY    CM159370   7.100   1.704   2.854 -0.0649 -0.0238  0.0776
 2375THY    HM159371   7.171   1.766   2.797 -0.0712  0.6672  0.8016
 2375THY    HM259372   7.099   1.613   2.793  0.8815 -0.2525  0.3961
 2375THY    HM359373   6.998   1.745   2.854  0.2652  0.8668 -0.9843
 2375THY    CA659374   7.254   1.587   3.009 -0.0256  0.4331 -0.1453
 2375THY    HA659375   7.300   1.539   2.923 -0.6399 -0.4747  0.0088
 2376THY      O59376   9.561   4.346   6.093  0.1092  0.5777 -0.8309
 2376THY     HO59377   9.599   4.343   6.183 -0.6184  3.4844 -0.3358
 2376THY    CA159378   9.637   4.259   6.025  1.3956 -0.1924  0.0528
 2376THY    CA259379   9.640   4.267   5.891  0.1887  0.1463 -0.4156
 2376THY    CP159380   9.570   4.374   5.813  0.3726 -0.5976 -0.2353
 2376THY    HP159381   9.472   4.384   5.861  0.6347 -1.7366  0.5444
 2376THY    CP259382   9.646   4.507   5.822 -0.6455 -0.9160 -0.2152
 2376THY    HP259383   9.600   4.587   5.763  1.5653  0.6748  0.0778
 2376THY    HP359384   9.648   4.554   5.922 -2.6834 -1.3328  0.0792
 2376THY    HP459385   9.745   4.478   5.785 -0.6042  0.3154 -1.1317
 2376THY    CP359386   9.522   4.328   5.675  0.4132  0.0978 -0.5263
 2376THY    HP559387   9.440   4.399   5.656  0.9284  1.1066  0.8936
 2376THY    HP659388   9.597   4.333   5.595  1.6615 -0.2367  0.5940
 2376THY    HP759389   9.483   4.226   5.686 -0.5811  0.6232  1.2506
 2376THY    CA359390   9.726   4.181   5.825 -0.5269  0.6288  0.5710
 2376THY    HA359391   9.736   4.195   5.718 -1.1601 -1.6447  0.1863
 2376THY    CA459392   9.787   4.077   5.888  0.0688 -0.6746  0.1234
 2376THY    HA459393   9.849   4.009   5.830 -1.1377 -2.3903  0.7348
 2376THY    CA559394   9.785   4.077   6.030 -0.2636  0.0630  0.4452
 2376THY    CM159395   9.840   3.962   6.104  0.1808  0.3493 -0.3576
 2376THY    HM159396   9.940   3.980   6.146 -0.8053  1.3578  1.7078
 2376THY    HM259397   9.762   3.935   6.177  0.6960 -2.9504 -0.8631
 2376THY    HM359398   9.838   3.882   6.029 -1.8619 -2.1956  2.1979
 2376THY    CA659399   9.699   4.166   6.100  0.3947  0.1117  0.6803
 2376THY    HA659400   9.677   4.169   6.206 -0.8284 -0.6502  0.4664
 2377THY      O59401   6.138   9.580   2.775 -0.3216 -0.0227 -1.1656
 2377THY     HO59402   6.221   9.553   2.732  0.3059  1.2896 -0.8314
 2377THY    CA159403   6.095   9.688   2.709 -0.1667 -0.1810 -1.2489
 2377THY    CA259404   5.962   9.735   2.716 -1.2278 -0.1137 -0.3305
 2377THY    CP159405   5.862   9.661   2.808  0.9579  0.4215 -0.3802
 2377THY    HP159406   5.911   9.635   2.903  2.1754 -0.4294 -1.2208
 2377THY    CP259407   5.741   9.750   2.843 -0.0759  0.5460  0.1533
 2377THY    HP259408   5.689   9.710   2.931 -0.9755 -0.3848 -0.7629
 2377THY    HP359409   5.764   9.853   2.872 -1.3589  0.8098  0.2852
 2377THY    HP459410   5.674   9.761   2.757  1.1463  0.3585 -0.8499
 2377THY    CP359411   5.814   9.526   2.746 -0.5982  0.1066 -0.1160
 2377THY    HP559412   5.722   9.552   2.692 -1.2348 -0.3198  0.7350
 2377THY    HP659413   5.884   9.478   2.676  2.5821  0.5083  2.5495
 2377THY    HP759414   5.787   9.444   2.812  0.6396 -0.9000 -0.8143
 2377THY    CA359415   5.925   9.839   2.633  0.2120  0.2478  0.3435
 2377THY    HA359416   5.829   9.890   2.641  0.1580  0.3459 -0.8247
 2377THY    CA459417   6.021   9.913   2.569 -0.6449  0.0847 -0.0017
 2377THY    HA459418   6.002  10.008   2.520 -1.2722 -0.6368 -1.2056
 2377THY    CA559419   6.153   9.868   2.567 -0.7179  0.4116 -0.5229
 2377THY    CM159420   6.258   9.950   2.495 -0.4127 -0.1843  0.0970
 2377THY    HM159421   6.270   9.922   2.389  0.8673 -0.6717  0.3498
 2377THY    HM259422   6.221  10.053   2.489 -0.5306 -0.2631 -0.7553
 2377THY    HM359423   6.358   9.942   2.538  0.5410 -3.3395 -2.2911
 2377THY    CA659424   6.187   9.750   2.636  0.9314  0.0886  1.3384
 2377THY    HA659425   6.290   9.716   2.627  0.3250 -1.2380 -1.7145
 2378THY      O59426   5.769   6.101   5.954  0.7008 -0.2278 -0.0512
 2378THY     HO59427   5.854   6.071   5.990  0.2413 -0.7425  0.6503
 2378THY    CA159428   5.788   6.068   5.827 -0.2740 -0.5641  0.4538
 2378THY    CA259429   5.687   6.064   5.731  0.1517  0.6101  0.6182
 2378THY    CP159430   5.541   6.058   5.781 -0.2562  0.4256 -0.1880
 2378THY    HP159431   5.534   6.112   5.876  1.5536 -0.8176  0.7154
 2378THY    CP259432   5.440   6.139   5.689 -0.1188 -0.2303  0.5581
 2378THY    HP259433   5.420   6.094   5.591  2.0698  0.1081 -0.1042
 2378THY    HP359434   5.343   6.154   5.739 -0.5428  3.3601 -1.1035
 2378THY    HP459435   5.474   6.240   5.665 -1.0801  0.3005  1.3271
 2378THY    CP359436   5.488   5.913   5.799 -0.0034 -0.4265  0.2530
 2378THY    HP559437   5.534   5.854   5.878 -1.3178 -3.8318 -1.2983
 2378THY    HP659438   5.380   5.902   5.813  0.0989 -1.5369  0.1914
 2378THY    HP759439   5.502   5.853   5.708 -1.2446  1.8134 -1.5376
 2378THY    CA359440   5.724   6.049   5.594 -0.7798 -0.2547  0.1825
 2378THY    HA359441   5.647   6.035   5.518 -1.0020  2.2659 -0.1325
 2378THY    CA459442   5.865   6.029   5.555  0.8316  0.2217 -0.4097
 2378THY    HA459443   5.899   6.026   5.452  1.7925 -0.2823 -0.0950
 2378THY    CA559444   5.962   6.025   5.661 -0.4418 -0.5491 -0.1775
 2378THY    CM159445   6.107   5.995   5.638 -0.9921  0.4105 -0.0095
 2378THY    HM159446   6.176   6.044   5.708  0.2446  0.8177 -1.4574
 2378THY    HM259447   6.128   5.889   5.656 -2.2100  0.4557  1.9983
 2378THY    HM359448   6.139   6.012   5.535  0.4638 -0.3536  0.2976
 2378THY    CA659449   5.920   6.036   5.795 -0.3863 -0.4458  0.2717
 2378THY    HA659450   5.990   6.029   5.877 -1.3857  1.9047  1.4487
 2379THY      O59451   5.606   9.543   9.780  0.1119 -0.0282  0.6538
 2379THY     HO59452   5.638   9.462   9.823  0.2778  0.2823  1.1274
 2379THY    CA159453   5.564   9.514   9.657  0.3187  0.3147  0.1170
 2379THY    CA259454   5.558   9.613   9.561 -0.0373  0.1436 -0.4193
 2379THY    CP159455   5.592   9.756   9.591  0.4046 -0.2787 -0.1929
 2379THY    HP159456   5.609   9.779   9.697  0.9312  2.3290 -0.7693
 2379THY    CP259457   5.722   9.793   9.532 -0.2385 -0.7395 -0.4318
 2379THY    HP259458   5.728   9.796   9.423 -1.9160  3.0115 -0.5705
 2379THY    HP359459   5.754   9.891   9.569 -1.1891 -0.3958 -0.5025
 2379THY    HP459460   5.797   9.720   9.566  1.7496  1.0258 -0.8031
 2379THY    CP359461   5.479   9.854   9.548 -0.0088  0.2181 -0.0922
 2379THY    HP559462   5.398   9.857   9.621  0.5397  1.7742  0.4767
 2379THY    HP659463   5.512   9.958   9.543  0.6103  0.0500  0.3621
 2379THY    HP759464   5.445   9.840   9.444 -0.6153  1.3457 -0.0571
 2379THY    CA359465   5.519   9.577   9.434 -0.4240  0.0638  0.3427
 2379THY    HA359466   5.525   9.639   9.345  0.7113 -0.5763 -0.0535
 2379THY    CA459467   5.503   9.438   9.400 -0.5570  0.3332  0.3350
 2379THY    HA459468   5.478   9.431   9.295 -1.3793  3.5481  0.2142
 2379THY    CA559469   5.512   9.340   9.499 -1.3123  0.3062  0.3251
 2379THY    CM159470   5.482   9.197   9.464 -0.8493 -0.7502  0.1232
 2379THY    HM159471   5.430   9.146   9.546 -1.8342  0.2507  0.1421
 2379THY    HM259472   5.416   9.187   9.377 -0.4443 -0.7751 -0.1854
 2379THY    HM359473   5.574   9.143   9.439 -0.4214  0.7935 -1.9220
 2379THY    CA659474   5.541   9.381   9.631 -0.2077  0.0392 -0.5995
 2379THY    HA659475   5.550   9.306   9.708  1.1467  0.2978 -0.4807
 2380THY      O59476   4.271   0.181   0.184  0.3232  0.0853 -0.8625
 2380THY     HO59477   4.261   0.094   0.140  1.4584 -0.2663 -0.4845
 2380THY    CA159478   4.173   0.191   0.281 -0.2245 -0.3215 -0.0981
 2380THY    CA259479   4.162   0.308   0.362 -0.6716 -0.2163  0.0930
 2380THY    CP159480   4.248   0.428   0.310 -0.4898  0.4241  0.4806
 2380THY    HP159481   4.288   0.413   0.209 -0.3151  0.3184  0.5655
 2380THY    CP259482   4.151   0.548   0.307  0.3274 -1.2666  0.2526
 2380THY    HP259483   4.068   0.525   0.239  0.0031 -0.9981  0.5579
 2380THY    HP359484   4.117   0.590   0.402 -1.7576 -0.8755 -0.6184
 2380THY    HP459485   4.209   0.639   0.288  0.4975 -1.1678  1.1998
 2380THY    CP359486   4.359   0.459   0.406 -0.6929  0.7216  0.4553
 2380THY    HP559487   4.398   0.560   0.389  2.5289 -0.3385  0.9118
 2380THY    HP659488   4.335   0.442   0.512 -0.6295 -1.5832  0.1310
 2380THY    HP759489   4.438   0.389   0.380 -0.0621  1.8301 -0.7215
 2380THY    CA359490   4.076   0.315   0.474  0.1104  0.7285  0.4093
 2380THY    HA359491   4.086   0.401   0.539  0.7855  0.7923  0.2277
 2380THY    CA459492   3.998   0.202   0.496  0.3889 -0.7224 -0.1799
 2380THY    HA459493   3.935   0.203   0.585  0.1640  0.2243 -0.3364
 2380THY    CA559494   4.007   0.084   0.418 -0.0881 -0.3119  0.0314
 2380THY    CM159495   3.926  -0.037   0.447 -0.5095 -0.3356  0.0474
 2380THY    HM159496   3.904  -0.098   0.359  1.0642  0.2957 -0.8260
 2380THY    HM259497   3.985  -0.099   0.516  1.6930  1.5549 -0.0319
 2380THY    HM359498   3.834  -0.013   0.502 -1.2162 -0.7713 -0.9286
 2380THY    CA659499   4.102   0.077   0.309 -0.3180  0.6522 -0.7794
 2380THY    HA659500   4.104  -0.012   0.248 -1.6937 -1.6309  2.2735
 2381THY      O59501   9.298   1.154   3.255  0.4123 -0.7220 -0.5790
 2381THY     HO59502   9.341   1.202   3.182  3.9294 -0.4808  1.4219
 2381THY    CA159503   9.274   1.019   3.232 -0.3504  0.4328  0.1951
 2381THY    CA259504   9.216   0.932   3.324 -0.0868  0.0756 -1.1097
 2381THY    CP159505   9.175   0.986   3.461 -0.1313  0.1398 -0.7997
 2381THY    HP159506   9.231   1.076   3.490 -0.4548 -0.0252  0.4029
 2381THY    CP259507   9.024   1.031   3.459  0.4541 -0.3790  0.3401
 2381THY    HP259508   8.964   0.942   3.438  3.1953 -1.7358 -2.5339
 2381THY    HP359509   8.981   1.080   3.547 -0.5744  0.1928 -0.4506
 2381THY    HP459510   9.011   1.104   3.378  0.1866 -0.9007 -0.0921
 2381THY    CP359511   9.195   0.890   3.575 -0.5098 -0.0541 -0.1771
 2381THY    HP559512   9.287   0.833   3.555 -0.5724 -0.2647  0.1237
 2381THY    HP659513   9.201   0.935   3.675 -1.1736 -1.8219  0.6983
 2381THY    HP759514   9.112   0.819   3.583  0.2426 -1.0012 -0.5702
 2381THY    CA359515   9.199   0.787   3.291  0.4949  0.3380  0.0481
 2381THY    HA359516   9.171   0.714   3.367  3.7297 -1.0434  0.1049
 2381THY    CA459517   9.227   0.752   3.155  0.4077  0.2628 -1.0714
 2381THY    HA459518   9.226   0.649   3.119  1.4645  0.2069 -0.9692
 2381THY    CA559519   9.270   0.843   3.063 -0.1970 -0.5955  1.1284
 2381THY    CM159520   9.287   0.798   2.918 -0.1632 -0.2010 -0.2754
 2381THY    HM159521   9.235   0.705   2.896  1.1695 -1.2956  1.0090
 2381THY    HM259522   9.267   0.875   2.842 -1.5750 -1.3073 -1.0658
 2381THY    HM359523   9.395   0.779   2.910 -0.1021 -0.9418  1.7589
 2381THY    CA659524   9.297   0.977   3.100  0.0811  0.6024 -0.0246
 2381THY    HA659525   9.329   1.053   3.029  1.9356  1.0556  1.2425
 2382THY      O59526   9.203   3.041   6.229  0.3744  0.2077 -0.6855
 2382THY     HO59527   9.273   3.068   6.291 -2.3890 -0.0853  2.9032
 2382THY    CA159528   9.156   2.930   6.284 -0.1163 -0.7569  0.6510
 2382THY    CA259529   9.043   2.868   6.232  0.3986 -0.4713 -0.2565
 2382THY    CP159530   8.981   2.929   6.104  0.2238  0.1010 -0.5053
 2382THY    HP159531   8.997   3.038   6.103  1.5207 -0.0267  1.4551
 2382THY    CP259532   9.041   2.865   5.980 -0.1310  0.5006  0.2824
 2382THY    HP259533   9.150   2.853   5.979 -0.2756 -3.3759 -3.9771
 2382THY    HP359534   9.002   2.764   5.960  1.1682  0.3657 -1.7482
 2382THY    HP459535   9.019   2.921   5.888 -1.2082 -2.4155 -1.3783
 2382THY    CP359536   8.829   2.913   6.091  0.0043  0.3139 -0.7873
 2382THY    HP559537   8.808   2.805   6.091  0.9292  0.1205 -0.2731
 2382THY    HP659538   8.769   2.969   6.164  1.7217  1.4138 -0.1580
 2382THY    HP759539   8.797   2.943   5.990  2.4277 -0.1292 -1.7638
 2382THY    CA359540   9.008   2.740   6.279  0.0944 -0.1560 -0.4662
 2382THY    HA359541   8.927   2.690   6.225 -0.0243 -0.5712  0.0871
 2382THY    CA459542   9.076   2.683   6.384 -0.7085 -0.0808 -0.4104
 2382THY    HA459543   9.053   2.588   6.432 -0.1214 -0.2759 -0.5026
 2382THY    CA559544   9.184   2.752   6.440 -0.5606  0.9216 -0.1905
 2382THY    CM159545   9.273   2.691   6.542 -0.3040 -0.5007 -0.4299
 2382THY    HM159546   9.219   2.674   6.635  1.7143  0.5618  1.0026
 2382THY    HM259547   9.318   2.599   6.503  1.7259  1.0031 -1.8446
 2382THY    HM359548   9.360   2.753   6.565  0.2208  0.2132 -3.7653
 2382THY    CA659549   9.217   2.874   6.391  0.0931 -0.3253 -0.3690
 2382THY    HA659550   9.306   2.921   6.431 -1.6928  1.7770  1.4702
 2383THY      O59551   7.748   6.861   8.490  0.2153 -0.7271  0.5191
 2383THY     HO59552   7.669   6.874   8.546 -0.0089 -0.7160  0.2023
 2383THY    CA159553   7.835   6.957   8.540  0.7221 -0.3249 -0.3105
 2383THY    CA259554   7.943   7.005   8.466 -0.3172 -1.0078 -0.8897
 2383THY    CP159555   7.969   6.945   8.327  0.4254 -0.3316 -0.4081
 2383THY    HP159556   7.932   6.844   8.307  1.3526 -0.6578 -0.5088
 2383THY    CP259557   7.898   7.037   8.231 -1.1873 -0.2810 -0.6795
 2383THY    HP259558   7.895   7.004   8.126 -0.5607 -1.9990 -0.1883
 2383THY    HP359559   7.793   7.048   8.262 -1.3631  0.8725 -1.5995
 2383THY    HP459560   7.937   7.139   8.231  0.9328 -1.0474 -1.4808
 2383THY    CP359561   8.118   6.937   8.285  0.6062 -0.2854 -0.8097
 2383THY    HP559562   8.172   6.862   8.344  2.2795  0.8130 -0.8845
 2383THY    HP659563   8.123   6.901   8.182  0.7680  0.8395 -1.2100
 2383THY    HP759564   8.171   7.032   8.290  0.6452 -0.2834 -1.2664
 2383THY    CA359565   8.014   7.107   8.520 -0.4845 -0.2817  0.5645
 2383THY    HA359566   8.091   7.157   8.463 -1.9617  0.7833 -0.5958
 2383THY    CA459567   7.985   7.159   8.643  0.3990 -0.6627 -0.0374
 2383THY    HA459568   8.042   7.244   8.680  0.9761 -0.7700 -0.6721
 2383THY    CA559569   7.876   7.109   8.719 -0.2167  0.0307 -0.1529
 2383THY    CM159570   7.845   7.162   8.850 -0.8866 -0.3164  0.3051
 2383THY    HM159571   7.914   7.244   8.875 -0.3813 -0.1658 -1.4907
 2383THY    HM259572   7.751   7.218   8.854 -1.0982 -0.5907 -0.6766
 2383THY    HM359573   7.830   7.083   8.924 -2.8400 -1.6762 -1.4328
 2383THY    CA659574   7.808   7.005   8.665 -0.4541  0.7484  0.3366
 2383THY    HA659575   7.725   6.969   8.726 -0.5639  1.2860  0.5034
 2384THY      O59576   5.958   2.890   4.030  0.3630  0.4374  1.0958
 2384THY     HO59577   6.037   2.906   4.085  1.4863 -0.0869 -0.3052
 2384THY    CA159578   5.973   2.783   3.941 -0.0571 -0.3564  0.3669
 2384THY    CA259579   5.876   2.760   3.838  0.2401 -0.3511 -0.3557
 2384THY    CP159580   5.740   2.833   3.830  0.1120  0.1834  0.2507
 2384THY    HP159581   5.729   2.911   3.906 -0.3313  0.1824  0.1926
 2384THY    CP259582   5.737   2.916   3.697 -0.0822 -0.3869  0.1728
 2384THY    HP259583   5.815   2.992   3.682  0.1126 -0.5448  0.3694
 2384THY    HP359584   5.742   2.846   3.612  0.3789  0.1846 -0.2759
 2384THY    HP459585   5.645   2.975   3.696  0.0745 -0.1396  0.3197
 2384THY    CP359586   5.632   2.720   3.846 -0.2930 -1.3525 -0.8650
 2384THY    HP559587   5.535   2.769   3.833  0.3756  0.5147  0.6338
 2384THY    HP659588   5.647   2.641   3.771  1.5375 -2.4276  0.5323
 2384THY    HP759589   5.637   2.669   3.944  0.5170  0.6308  0.1837
 2384THY    CA359590   5.908   2.663   3.743 -0.2041  0.0092 -0.2925
 2384THY    HA359591   5.831   2.631   3.674 -1.7940  2.1800  0.3423
 2384THY    CA459592   6.018   2.585   3.755 -0.2949  0.1827  0.2320
 2384THY    HA459593   6.035   2.501   3.689  0.7633 -0.7359  1.5944
 2384THY    CA559594   6.109   2.611   3.854  0.0513 -0.0236  0.3174
 2384THY    CM159595   6.230   2.520   3.870  0.0308 -0.7532 -0.2434
 2384THY    HM159596   6.313   2.581   3.907  0.2553  0.6693 -2.8459
 2384THY    HM259597   6.214   2.442   3.946 -0.3219  1.3355  1.9596
 2384THY    HM359598   6.257   2.469   3.777 -1.9818 -2.5527  0.0974
 2384THY    CA659599   6.090   2.714   3.944 -0.1334  0.9613  0.6916
 2384THY    HA659600   6.159   2.734   4.025  0.7232 -0.1270  0.2538
 2385THY      O59601   4.172   2.400   3.594 -0.2093 -0.2666  0.0506
 2385THY     HO59602   4.188   2.428   3.503  2.2863 -2.3475 -0.3042
 2385THY    CA159603   4.255   2.479   3.672  0.9903 -0.2632  0.4067
 2385THY    CA259604   4.244   2.475   3.814 -0.7978  0.6092 -0.0386
 2385THY    CP159605   4.162   2.359   3.876 -0.7396  0.3481 -0.5100
 2385THY    HP159606   4.179   2.270   3.815  0.9250  0.4879 -0.3010
 2385THY    CP259607   4.214   2.319   4.019  0.3340  0.0738  0.4404
 2385THY    HP259608   4.158   2.227   4.037 -0.8302  0.3568 -1.4989
 2385THY    HP359609   4.320   2.290   4.019  0.3182  0.0162  0.4944
 2385THY    HP459610   4.198   2.399   4.092  0.3373  1.3168 -0.8761
 2385THY    CP359611   4.011   2.390   3.890 -1.0067  0.6426 -0.7659
 2385THY    HP559612   3.955   2.304   3.929  0.3154  0.8578  1.8191
 2385THY    HP659613   4.010   2.480   3.952  0.3905 -0.3262  0.7627
 2385THY    HP759614   3.985   2.421   3.788  3.0497  1.9757 -1.6004
 2385THY    CA359615   4.308   2.580   3.883  0.3134  0.1902  0.4943
 2385THY    HA359616   4.302   2.588   3.991 -0.9627  0.7988  0.3950
 2385THY    CA459617   4.379   2.675   3.809 -0.2145 -0.0906 -0.2140
 2385THY    HA459618   4.432   2.751   3.866 -1.0112  1.3753 -1.3931
 2385THY    CA559619   4.395   2.670   3.672  0.2746 -0.6582  0.5393
 2385THY    CM159620   4.466   2.769   3.592 -0.0570  0.2929 -0.5322
 2385THY    HM159621   4.559   2.791   3.646  1.1829 -1.6946 -1.7498
 2385THY    HM259622   4.491   2.737   3.490 -2.2193  0.2248 -1.1022
 2385THY    HM359623   4.412   2.864   3.598  1.2841  1.0025  2.3319
 2385THY    CA659624   4.327   2.576   3.598 -0.8755  0.2049 -0.4554
 2385THY    HA659625   4.336   2.574   3.489 -1.4097  0.4590 -0.5078
 2386THY      O59626   4.748   3.375   5.525  0.9673 -0.2508  0.0060
 2386THY     HO59627   4.813   3.447   5.529  1.8900 -0.9899 -1.0465
 2386THY    CA159628   4.807   3.264   5.576  0.3930 -0.2401  0.6283
 2386THY    CA259629   4.734   3.139   5.576 -0.5620 -0.7119 -0.0168
 2386THY    CP159630   4.589   3.135   5.529  0.4718  0.2690  0.0337
 2386THY    HP159631   4.554   3.223   5.474 -1.3424 -0.5115 -0.1429
 2386THY    CP259632   4.586   3.023   5.417  0.3219 -0.1681 -0.3598
 2386THY    HP259633   4.558   2.931   5.470 -1.1466  0.3277 -0.2405
 2386THY    HP359634   4.498   3.041   5.355  0.1501 -1.5949 -0.5708
 2386THY    HP459635   4.674   3.006   5.354  0.4036 -1.2707  0.0245
 2386THY    CP359636   4.485   3.118   5.644 -0.2544  0.0067 -0.3311
 2386THY    HP559637   4.499   3.191   5.725  1.0110  0.2049 -0.7071
 2386THY    HP659638   4.377   3.120   5.627 -0.6824  2.3465  1.9881
 2386THY    HP759639   4.503   3.024   5.699 -3.9846  0.0752  1.3465
 2386THY    CA359640   4.802   3.027   5.614 -0.1164  0.6272 -0.2411
 2386THY    HA359641   4.760   2.927   5.612  0.2092  0.4818 -0.0464
 2386THY    CA459642   4.934   3.034   5.655 -0.8889 -0.1751  0.2376
 2386THY    HA459643   4.982   2.949   5.702 -1.2351 -1.3337 -1.4141
 2386THY    CA559644   4.997   3.152   5.653 -0.6027  0.1274  0.1742
 2386THY    CM159645   5.142   3.147   5.689  0.4036  0.4701  0.7246
 2386THY    HM159646   5.170   3.072   5.763 -1.4444 -1.7591 -0.7189
 2386THY    HM259647   5.199   3.131   5.596  0.2667  0.6134  0.6146
 2386THY    HM359648   5.179   3.243   5.728 -0.1655  1.2044 -0.4672
 2386THY    CA659649   4.937   3.272   5.615  0.4778 -0.1211 -0.3640
 2386THY    HA659650   4.994   3.363   5.599  0.8906 -0.2693  0.2451
 2387THY      O59651   9.594   9.881   1.781  0.4633  0.0689 -0.0370
 2387THY     HO59652   9.541   9.802   1.763  2.5217 -1.6482  1.0402
 2387THY    CA159653   9.609   9.883   1.918  0.9809 -0.2656 -0.4085
 2387THY    CA259654   9.724   9.919   1.990  0.8648  0.4291 -0.0443
 2387THY    CP159655   9.861   9.927   1.929 -0.4260  0.1550  0.6901
 2387THY    HP159656   9.858   9.920   1.819  2.4282  1.1598  0.4705
 2387THY    CP259657   9.915  10.064   1.960  0.2417  0.3586 -0.2911
 2387THY    HP259658   9.932  10.084   2.067  0.3503 -0.8694 -0.0686
 2387THY    HP359659  10.013  10.078   1.912  1.4188 -0.8530  1.5779
 2387THY    HP459660   9.842  10.141   1.933 -0.7636 -0.4561  0.0527
 2387THY    CP359661   9.963   9.817   1.983 -0.1606  0.0289 -0.3011
 2387THY    HP559662  10.063   9.822   1.939  1.1720 -1.1789  2.3561
 2387THY    HP659663   9.977   9.825   2.091  0.5450  0.0294 -0.3887
 2387THY    HP759664   9.917   9.717   1.976  1.5041 -0.7339 -1.0131
 2387THY    CA359665   9.711   9.945   2.129 -0.2364 -0.5234 -0.1799
 2387THY    HA359666   9.801   9.965   2.187 -0.0186  1.9497 -1.2340
 2387THY    CA459667   9.586   9.951   2.191 -0.0219 -0.3939  0.4374
 2387THY    HA459668   9.581   9.989   2.293 -2.5077 -1.0183  0.6295
 2387THY    CA559669   9.471   9.922   2.116 -0.1849 -0.5675  0.1947
 2387THY    CM159670   9.340   9.935   2.186  0.7435  0.5358  0.0725
 2387THY    HM159671   9.271   9.970   2.108  1.9188 -3.1628 -2.9374
 2387THY    HM259672   9.305   9.839   2.224  0.7490 -0.2377 -1.7793
 2387THY    HM359673   9.348  10.018   2.258  0.1576  1.9428 -1.4145
 2387THY    CA659674   9.483   9.879   1.981 -0.9120 -0.2027 -0.1257
 2387THY    HA659675   9.396   9.867   1.917  1.2702  1.1303 -3.5982
 2388THY      O59676   8.825   0.365   4.658  0.4500  0.6708  0.1639
 2388THY     HO59677   8.732   0.342   4.677 -0.0838  1.8264 -0.9497
 2388THY    CA159678   8.817   0.496   4.669 -0.2071  0.7182  0.2229
 2388THY    CA259679   8.881   0.583   4.579  0.0330  0.3738  0.4536
 2388THY    CP159680   8.977   0.527   4.467  0.8606  0.5209  0.3481
 2388THY    HP159681   8.931   0.430   4.442  1.3791  0.2558  0.4004
 2388THY    CP259682   8.971   0.632   4.351  0.8843  0.6626 -0.1296
 2388THY    HP259683   8.864   0.649   4.333  0.8733  0.5120 -0.2085
 2388THY    HP359684   9.038   0.718   4.363 -0.3317  1.6672 -0.2301
 2388THY    HP459685   9.001   0.582   4.259  2.0199 -0.5209  0.8503
 2388THY    CP359686   9.117   0.515   4.519  0.6898  0.0089  0.0588
 2388THY    HP559687   9.184   0.494   4.434  0.3090  0.5987 -0.3986
 2388THY    HP659688   9.145   0.611   4.565 -0.7662  1.8588 -2.6249
 2388THY    HP759689   9.115   0.431   4.589 -3.1035 -0.8940 -0.9277
 2388THY    CA359690   8.864   0.722   4.595  0.0923  0.0973 -0.0736
 2388THY    HA359691   8.892   0.801   4.526 -0.2756  1.0201  0.8068
 2388THY    CA459692   8.783   0.768   4.709  0.3582  0.6110 -0.3091
 2388THY    HA459693   8.760   0.873   4.723 -0.5882  0.3720  0.0080
 2388THY    CA559694   8.720   0.678   4.792  0.4166  0.5398 -0.0650
 2388THY    CM159695   8.618   0.728   4.887  0.2765 -0.1890 -0.4931
 2388THY    HM159696   8.550   0.793   4.830 -1.8298 -1.2975  0.6255
 2388THY    HM259697   8.552   0.654   4.933  1.3627  1.2781  3.8905
 2388THY    HM359698   8.671   0.790   4.960  1.3838  0.8215 -2.1049
 2388THY    CA659699   8.737   0.538   4.770  0.2038  0.3361 -0.3769
 2388THY    HA659700   8.687   0.460   4.826 -2.4329  1.3778 -1.1230
 2389THY      O59701   0.024   6.998   5.503  0.2225 -0.5645 -0.2394
 2389THY     HO59702  -0.069   6.970   5.510  0.4095 -1.5368 -1.2366
 2389THY    CA159703   0.036   6.967   5.374 -0.1283  0.6929  0.5244
 2389THY    CA259704   0.155   6.928   5.317 -0.0513 -0.1552 -0.4260
 2389THY    CP159705   0.279   6.932   5.410  0.6625 -0.0382  0.1064
 2389THY    HP159706   0.253   6.942   5.516 -0.1542 -2.3403  0.1963
 2389THY    CP259707   0.366   6.796   5.398  0.1546 -0.2336 -0.3676
 2389THY    HP259708   0.305   6.711   5.428 -0.1758  1.1775  3.4773
 2389THY    HP359709   0.401   6.772   5.296 -0.1712  0.1053 -0.5631
 2389THY    HP459710   0.443   6.809   5.475 -1.0296  0.9921  0.6594
 2389THY    CP359711   0.374   7.047   5.375 -0.5662 -0.2214  0.4311
 2389THY    HP559712   0.343   7.090   5.279 -1.1731  0.7015  1.0259
 2389THY    HP659713   0.372   7.129   5.448 -0.5938  1.9347 -1.8668
 2389THY    HP759714   0.479   7.017   5.369 -0.0695  0.7939  2.6876
 2389THY    CA359715   0.158   6.885   5.182  0.2086  0.5521  0.0776
 2389THY    HA359716   0.248   6.866   5.124  1.1079  1.4237  1.1448
 2389THY    CA459717   0.045   6.889   5.104 -0.7889  0.4503  0.3372
 2389THY    HA459718   0.055   6.875   4.996  1.4640  0.2884  0.5398
 2389THY    CA559719  -0.070   6.939   5.156 -0.0424  0.9663  0.5165
 2389THY    CM159720  -0.189   6.969   5.069 -0.4808 -0.0080  0.5783
 2389THY    HM159721  -0.215   6.882   5.008 -1.0331  0.2243  0.4716
 2389THY    HM259722  -0.286   6.994   5.114 -1.4073  1.6745 -2.1143
 2389THY    HM359723  -0.159   7.049   5.001 -1.5298 -0.5867 -0.5997
 2389THY    CA659724  -0.073   6.985   5.293  0.3890  0.5000 -0.4652
 2389THY    HA659725  -0.166   7.019   5.337  0.3193 -0.8587  0.5057
 2390THY      O59726   8.975   7.149   0.821 -0.9866  0.1280 -0.1550
 2390THY     HO59727   8.898   7.188   0.866 -0.8207  2.3566 -1.6264
 2390THY    CA159728   8.926   7.071   0.719 -0.0464  0.5524 -0.6673
 2390THY    CA259729   8.961   6.935   0.713 -0.2271 -0.4217  0.4431
 2390THY    CP159730   9.078   6.881   0.803  0.5188 -0.0179  0.0704
 2390THY    HP159731   9.101   6.948   0.886 -1.8635  1.5133 -0.3968
 2390THY    CP259732   9.030   6.747   0.867 -0.0276 -0.0518  0.0260
 2390THY    HP259733   9.096   6.735   0.954  0.7445  2.4613 -0.1307
 2390THY    HP359734   8.929   6.754   0.908  0.6112  0.0320  1.6508
 2390THY    HP459735   9.039   6.669   0.790  0.8013  0.9146 -0.8957
 2390THY    CP359736   9.216   6.863   0.730  0.6819  0.1556  0.6084
 2390THY    HP559737   9.256   6.946   0.672  0.7504 -1.3214 -1.5718
 2390THY    HP659738   9.288   6.844   0.811 -0.1550 -1.4526  1.0174
 2390THY    HP759739   9.193   6.781   0.661 -0.7675  2.1970 -1.4313
 2390THY    CA359740   8.895   6.852   0.614 -0.0448  0.0946  0.0993
 2390THY    HA359741   8.922   6.749   0.592  0.5411  0.5080 -1.2359
 2390THY    CA459742   8.789   6.906   0.534 -0.1850 -0.0380 -0.5187
 2390THY    HA459743   8.744   6.853   0.451 -0.8700  0.4976 -0.4998
 2390THY    CA559744   8.746   7.040   0.565  0.2990  0.4510 -0.3174
 2390THY    CM159745   8.632   7.096   0.481  0.2284 -0.0539  0.8127
 2390THY    HM159746   8.617   7.204   0.488 -1.7289 -0.1387 -0.8981
 2390THY    HM259747   8.651   7.064   0.377  0.9399  2.0735  0.2439
 2390THY    HM359748   8.543   7.039   0.510 -0.8387  0.7125 -0.7969
 2390THY    CA659749   8.821   7.119   0.646  0.6005 -0.6204 -0.3311
 2390THY    HA659750   8.786   7.221   0.659 -0.6758 -1.2577  1.7204
 2391THY      O59751   9.933   1.608   3.058 -0.1740 -0.0265 -0.2375
 2391THY     HO59752   9.844   1.570   3.064 -0.2163  0.1964  0.7829
 2391THY    CA159753   9.942   1.688   3.170  0.2716 -0.2508 -0.0690
 2391THY    CA259754  10.048   1.780   3.177  0.1436 -0.3416  0.6332
 2391THY    CP159755  10.127   1.815   3.050 -0.8251  0.0765  0.1633
 2391THY    HP159756  10.138   1.722   2.993 -2.3058 -0.7296  1.1117
 2391THY    CP259757  10.048   1.911   2.968  0.5031 -0.1357 -0.5802
 2391THY    HP259758   9.982   1.855   2.900 -0.9186  2.4061 -1.4207
 2391THY    HP359759   9.972   1.962   3.028 -1.4949 -1.7139 -1.6295
 2391THY    HP459760  10.116   1.970   2.907  0.9416  0.6671  0.6513
 2391THY    CP359761  10.263   1.879   3.085  0.1563  0.0858 -0.1767
 2391THY    HP559762  10.263   1.983   3.119  1.1258  1.6795 -4.3684
 2391THY    HP659763  10.313   1.811   3.155 -0.3858  1.5807  1.7213
 2391THY    HP759764  10.327   1.880   2.996  0.1722  2.1500 -0.1758
 2391THY    CA359765  10.048   1.859   3.300  0.4020  0.1882 -0.1037
 2391THY    HA359766  10.126   1.932   3.315 -0.9353  1.5179  0.6574
 2391THY    CA459767   9.955   1.826   3.404  0.1102  0.3363  0.4736
 2391THY    HA459768   9.959   1.882   3.497  0.0226  2.1088 -0.5436
 2391THY    CA559769   9.867   1.719   3.397  0.1544 -0.8830  0.3490
 2391THY    CM159770   9.768   1.692   3.509 -0.2422  0.1960  0.1389
 2391THY    HM159771   9.785   1.753   3.598  0.5459 -0.0456  0.1643
 2391THY    HM259772   9.668   1.710   3.468 -0.0938  1.1893  0.1674
 2391THY    HM359773   9.760   1.585   3.530  0.3680  0.2828  0.8672
 2391THY    CA659774   9.861   1.649   3.278 -0.0336  0.0904 -0.0314
 2391THY    HA659775   9.787   1.570   3.272 -1.2610  1.0729  1.4573
 2392THY      O59776   5.959   6.625   2.435 -0.1129  0.1675  0.0621
 2392THY     HO59777   5.931   6.665   2.351  1.4530 -0.4863 -0.8000
 2392THY    CA159778   5.951   6.722   2.525 -0.4877 -0.4293  0.3568
 2392THY    CA259779   5.981   6.703   2.668 -0.6050  0.2043  0.7567
 2392THY    CP159780   6.029   6.561   2.716  0.8764 -0.0551  0.3095
 2392THY    HP159781   6.058   6.508   2.625  0.9035  0.7240 -0.1388
 2392THY    CP259782   6.133   6.561   2.825 -0.2970  0.9122  0.1240
 2392THY    HP259783   6.154   6.454   2.834 -1.3662  0.6262 -0.5120
 2392THY    HP359784   6.220   6.614   2.786 -0.3662  2.8513  2.4208
 2392THY    HP459785   6.101   6.590   2.925  0.4971 -2.9638  1.6713
 2392THY    CP359786   5.904   6.493   2.776 -0.1700  0.6770 -0.2755
 2392THY    HP559787   5.878   6.537   2.873  0.8541 -1.1479  0.8963
 2392THY    HP659788   5.826   6.492   2.699 -0.0381  1.8826 -0.4324
 2392THY    HP759789   5.925   6.389   2.804  1.7257  0.0454 -3.4944
 2392THY    CA359790   5.972   6.816   2.762  0.3075  0.1639  1.0595
 2392THY    HA359791   5.976   6.807   2.870  0.3407  3.4519  1.4318
 2392THY    CA459792   5.941   6.942   2.711 -0.3209 -0.1545  0.6171
 2392THY    HA459793   5.936   7.030   2.775  2.9155  0.9807 -0.4775
 2392THY    CA559794   5.933   6.958   2.572  0.7821  0.0861 -0.1656
 2392THY    CM159795   5.897   7.096   2.519  0.2109  0.6054 -0.3077
 2392THY    HM159796   5.933   7.112   2.417 -1.4780  1.2731 -0.8251
 2392THY    HM259797   5.791   7.120   2.529  0.1577  0.2041  0.1190
 2392THY    HM359798   5.948   7.172   2.579  1.1050  0.3503 -0.7278
 2392THY    CA659799   5.931   6.851   2.481 -0.2113  0.1590 -0.1656
 2392THY    HA659800   5.913   6.873   2.376  0.9759 -0.6002 -0.5384
 2393THY      O59801   3.481   1.619   1.601 -0.1825 -0.1754 -0.4486
 2393THY     HO59802   3.440   1.539   1.640  2.1426 -1.0889  0.3514
 2393THY    CA159803   3.602   1.581   1.540  0.5007 -0.5719  0.3594
 2393THY    CA259804   3.681   1.675   1.475 -0.4287 -0.2326  0.6028
 2393THY    CP159805   3.633   1.828   1.461 -0.5582 -0.1514  0.2794
 2393THY    HP159806   3.537   1.849   1.511  0.3582  2.3136  1.1919
 2393THY    CP259807   3.728   1.923   1.519 -0.0635 -0.5855 -0.1077
 2393THY    HP259808   3.835   1.908   1.497  0.5167 -1.0091  2.5932
 2393THY    HP359809   3.697   2.024   1.490  2.3097 -0.8249 -4.1962
 2393THY    HP459810   3.716   1.915   1.628 -0.9509  1.6207  0.0149
 2393THY    CP359811   3.589   1.862   1.320 -0.4673  0.9168  0.8930
 2393THY    HP559812   3.498   1.806   1.295  0.6252  0.0661 -1.4434
 2393THY    HP659813   3.560   1.966   1.299 -1.8055  0.2711 -0.7379
 2393THY    HP759814   3.678   1.844   1.260 -1.2641 -1.5242  0.3483
 2393THY    CA359815   3.796   1.634   1.415  0.5926 -0.5720 -0.2023
 2393THY    HA359816   3.855   1.696   1.348 -0.2204 -0.2773 -0.6622
 2393THY    CA459817   3.831   1.501   1.427 -0.0751 -0.4495 -0.6366
 2393THY    HA459818   3.929   1.465   1.396  0.4887 -1.0485  1.6659
 2393THY    CA559819   3.753   1.409   1.493  0.1482  0.3863  0.4771
 2393THY    CM159820   3.802   1.263   1.491  0.6749 -0.3537 -0.6847
 2393THY    HM159821   3.717   1.195   1.503  0.5598  0.2061  3.0286
 2393THY    HM259822   3.852   1.234   1.398  0.2406 -3.3058 -0.1170
 2393THY    HM359823   3.883   1.255   1.565  2.2935  3.3807 -1.8023
 2393THY    CA659824   3.630   1.451   1.545  0.6452 -0.5674  0.0105
 2393THY    HA659825   3.570   1.376   1.597 -1.5864  2.0901  1.6013
 2394THY      O59826   5.856   4.548   7.892  0.2659  0.0880 -0.2807
 2394THY     HO59827   5.910   4.621   7.928 -1.6709  0.9195  1.1144
 2394THY    CA159828   5.745   4.617   7.877  0.0460  0.1710  0.3911
 2394THY    CA259829   5.623   4.567   7.818  0.1743 -0.7053  0.1047
 2394THY    CP159830   5.628   4.427   7.762  0.7314  0.3190  0.1731
 2394THY    HP159831   5.691   4.366   7.828  0.5991  0.6578  0.6220
 2394THY    CP259832   5.489   4.356   7.766 -0.1602 -0.2395 -1.0697
 2394THY    HP259833   5.448   4.357   7.867 -0.0735  0.4152 -1.0385
 2394THY    HP359834   5.413   4.393   7.697 -0.2309 -0.0229 -0.8753
 2394THY    HP459835   5.509   4.252   7.735 -2.4453 -1.6409  1.7077
 2394THY    CP359836   5.681   4.421   7.620  0.5811 -0.4320  0.1781
 2394THY    HP559837   5.629   4.503   7.568  1.9923  0.2113 -0.2712
 2394THY    HP659838   5.787   4.448   7.606  0.7614 -1.4059 -0.4043
 2394THY    HP759839   5.668   4.327   7.565  1.2887  0.4139 -1.5176
 2394THY    CA359840   5.514   4.657   7.800 -0.9902  0.9671  0.3060
 2394THY    HA359841   5.430   4.619   7.742  0.4508  0.6585 -1.6907
 2394THY    CA459842   5.522   4.791   7.849  0.1162 -0.4414 -0.4766
 2394THY    HA459843   5.440   4.861   7.837  0.3795 -0.0687 -0.1451
 2394THY    CA559844   5.644   4.835   7.910  0.0343 -0.2425 -0.4145
 2394THY    CM159845   5.648   4.976   7.960 -0.3667 -0.3814  0.5552
 2394THY    HM159846   5.611   4.991   8.062  0.2113 -0.4439  0.7787
 2394THY    HM259847   5.750   5.016   7.962 -0.2375 -0.7255  1.2629
 2394THY    HM359848   5.599   5.045   7.890 -0.5009  0.3882  1.3870
 2394THY    CA659849   5.752   4.750   7.920  0.6651  0.1107 -0.9201
 2394THY    HA659850   5.836   4.790   7.977  0.5096 -1.7646  0.7111
 2395THY      O59851   7.959   0.488   3.624 -0.4289 -0.0370  0.1930
 2395THY     HO59852   8.005   0.453   3.545  0.8139  0.1345  0.8227
 2395THY    CA159853   7.863   0.564   3.576 -0.1520 -0.2128  0.4156
 2395THY    CA259854   7.875   0.681   3.497  0.0125 -0.0285  0.7072
 2395THY    CP159855   8.018   0.733   3.455  0.4858  0.0135  0.0451
 2395THY    HP159856   8.094   0.671   3.504  0.2000 -0.7666 -0.4823
 2395THY    CP259857   8.041   0.719   3.304 -0.1151  0.0257 -0.1759
 2395THY    HP259858   7.951   0.757   3.255 -1.2755 -0.1595  1.7259
 2395THY    HP359859   8.130   0.775   3.274  0.0470 -0.3572 -0.4228
 2395THY    HP459860   8.060   0.614   3.280 -1.6678 -1.0918  2.9690
 2395THY    CP359861   8.024   0.876   3.489 -0.6411  0.1398  0.2457
 2395THY    HP559862   8.008   0.949   3.410  0.3171  0.8586  0.6892
 2395THY    HP659863   7.959   0.898   3.574  1.7073  1.4640  1.8378
 2395THY    HP759864   8.125   0.902   3.523 -0.3589  1.4073 -1.4268
 2395THY    CA359865   7.764   0.755   3.464  0.1809 -0.5009  0.2779
 2395THY    HA359866   7.763   0.852   3.414 -2.0845 -1.9377 -2.8336
 2395THY    CA459867   7.637   0.713   3.504  0.0713  0.0107  0.9645
 2395THY    HA459868   7.552   0.774   3.477  0.5848  0.2076 -0.2678
 2395THY    CA559869   7.623   0.597   3.577  0.5469 -0.0777 -0.2652
 2395THY    CM159870   7.474   0.566   3.625 -0.9226  0.3363 -0.0602
 2395THY    HM159871   7.399   0.555   3.546 -2.8775 -0.9858  1.8740
 2395THY    HM259872   7.487   0.469   3.674 -1.3589  0.0285 -0.5429
 2395THY    HM359873   7.441   0.634   3.704  1.2942  0.7298  0.5926
 2395THY    CA659874   7.733   0.525   3.614  0.3658 -0.0388  0.2073
 2395THY    HA659875   7.724   0.441   3.682 -0.6015  0.6601  0.9788
 2396THY      O59876   5.324   2.065   9.483  0.4758  0.4301 -0.0155
 2396THY     HO59877   5.345   2.079   9.389  2.4762 -1.7706  0.0268
 2396THY    CA159878   5.384   1.943   9.501  0.9159  0.0818 -0.4894
 2396THY    CA259879   5.357   1.863   9.612 -0.4720 -0.2036 -0.7918
 2396THY    CP159880   5.256   1.914   9.710  0.4989 -0.5272 -0.0550
 2396THY    HP159881   5.184   1.985   9.668  1.0737  0.1001  0.0055
 2396THY    CP259882   5.168   1.791   9.766  0.0399 -0.0649  0.1101
 2396THY    HP259883   5.070   1.831   9.795  0.9413  2.0235  0.5059
 2396THY    HP359884   5.141   1.717   9.690 -3.6680 -0.3457  1.5099
 2396THY    HP459885   5.214   1.740   9.851  0.5734 -2.9325 -1.7742
 2396THY    CP359886   5.296   1.990   9.838 -0.3355 -0.2156  0.4094
 2396THY    HP559887   5.206   2.010   9.897 -1.4655  1.0131 -1.6026
 2396THY    HP659888   5.366   1.927   9.894 -0.9426 -0.2994  1.0881
 2396THY    HP759889   5.353   2.080   9.814 -0.9195 -0.0574 -0.4002
 2396THY    CA359890   5.426   1.739   9.616  0.1874  0.2296 -0.1245
 2396THY    HA359891   5.408   1.662   9.691 -0.0897 -2.0555 -2.3816
 2396THY    CA459892   5.515   1.699   9.514 -0.3696  0.0953 -0.5703
 2396THY    HA459893   5.557   1.599   9.512  0.9926  0.6559 -1.3915
 2396THY    CA559894   5.546   1.782   9.411  0.0183 -1.0005  0.6369
 2396THY    CM159895   5.638   1.737   9.296  0.1431 -0.2752 -0.2585
 2396THY    HM159896   5.618   1.797   9.206 -0.4046 -0.1740 -0.0719
 2396THY    HM259897   5.740   1.746   9.334  0.7215 -1.2442 -1.4807
 2396THY    HM359898   5.616   1.634   9.266 -0.3102 -0.4848  0.7796
 2396THY    CA659899   5.477   1.903   9.402 -0.0804  0.8101 -0.5046
 2396THY    HA659900   5.497   1.965   9.315 -0.5908  1.3985 -0.2139
 2397THY      O59901   1.413   1.053   2.090 -0.2623  0.2488 -0.0084
 2397THY     HO59902   1.381   0.988   2.155  3.0914 -1.9501 -0.2845
 2397THY    CA159903   1.321   1.049   1.989 -0.1335 -0.1354 -0.3049
 2397THY    CA259904   1.294   1.158   1.904  0.0493 -1.2544 -0.4770
 2397THY    CP159905   1.354   1.293   1.939 -0.4404  0.4571 -0.0466
 2397THY    HP159906   1.442   1.278   2.003 -1.8488 -1.1027  1.6487
 2397THY    CP259907   1.387   1.377   1.812 -0.0182 -0.0646  0.2747
 2397THY    HP259908   1.291   1.402   1.764 -0.5327  0.4105  1.5008
 2397THY    HP359909   1.436   1.473   1.832 -1.4123  0.6378  0.4728
 2397THY    HP459910   1.453   1.326   1.741  0.0554  0.9512 -0.4079
 2397THY    CP359911   1.253   1.371   2.018  0.7194 -0.0711 -0.5045
 2397THY    HP559912   1.297   1.465   2.055  1.4372 -1.5159  2.5935
 2397THY    HP659913   1.164   1.394   1.958  0.2180 -0.1074  0.2169
 2397THY    HP759914   1.213   1.310   2.099 -1.2560 -0.2907 -1.5797
 2397THY    CA359915   1.199   1.138   1.797  0.3416 -0.3375 -0.1207
 2397THY    HA359916   1.170   1.222   1.734 -1.4155  1.8147  3.2771
 2397THY    CA459917   1.141   1.014   1.772  0.6199 -0.4889 -0.3293
 2397THY    HA459918   1.084   1.003   1.680 -0.1973 -1.9688  0.3203
 2397THY    CA559919   1.163   0.905   1.856 -0.2435 -0.1526 -0.1240
 2397THY    CM159920   1.109   0.769   1.832 -0.5775 -0.1088  0.2254
 2397THY    HM159921   1.002   0.763   1.857 -0.7439 -1.3130 -0.6611
 2397THY    HM259922   1.120   0.740   1.726  0.9379  1.0842  0.0364
 2397THY    HM359923   1.165   0.700   1.895 -1.1100  0.2653  1.1285
 2397THY    CA659924   1.263   0.920   1.959 -0.0888 -0.1439  0.0801
 2397THY    HA659925   1.301   0.836   2.016  0.5790  1.6393  2.4304
 2398THY      O59926   5.946   0.720   8.214 -0.1518 -0.1140  0.0223
 2398THY     HO59927   5.927   0.652   8.147  1.0643 -0.0230 -0.4459
 2398THY    CA159928   5.885   0.840   8.187  0.2167  0.3297  0.1199
 2398THY    CA259929   5.896   0.941   8.288  0.3862  0.3616  1.1057
 2398THY    CP159930   5.984   0.935   8.405  0.4375 -0.3877 -0.5089
 2398THY    HP159931   5.983   0.830   8.438  2.1755 -1.0474 -2.3046
 2398THY    CP259932   6.123   0.963   8.352  0.4624 -0.0609 -0.6069
 2398THY    HP259933   6.193   0.974   8.435 -0.9898  2.3558  0.4210
 2398THY    HP359934   6.151   0.893   8.272 -0.4631 -0.5719 -0.5038
 2398THY    HP459935   6.123   1.063   8.306 -1.5781  1.4136  2.3037
 2398THY    CP359936   5.969   1.030   8.515 -0.1337 -0.4832 -0.2982
 2398THY    HP559937   5.982   1.136   8.487  1.4773 -0.8589 -1.0835
 2398THY    HP659938   5.872   1.021   8.564 -0.4880  1.1554 -0.6348
 2398THY    HP759939   6.047   1.019   8.592  0.6906  1.2927 -0.8237
 2398THY    CA359940   5.817   1.056   8.265  0.1366 -0.2092 -0.5353
 2398THY    HA359941   5.825   1.134   8.340  1.2507 -0.4215 -0.4207
 2398THY    CA459942   5.746   1.076   8.141 -0.3971  0.3070  0.1341
 2398THY    HA459943   5.702   1.172   8.114 -1.2385 -0.4530 -1.2972
 2398THY    CA559944   5.739   0.972   8.048  0.9308  0.5569  0.4882
 2398THY    CM159945   5.669   0.994   7.917  0.1145  0.0077  0.9441
 2398THY    HM159946   5.569   0.952   7.928 -0.2863  0.4546 -0.7843
 2398THY    HM259947   5.647   1.097   7.885 -0.9302 -0.4193  0.2276
 2398THY    HM359948   5.718   0.954   7.827 -3.7541  0.0412 -1.3775
 2398THY    CA659949   5.807   0.853   8.076  0.2909  0.5481 -0.1988
 2398THY    HA659950   5.790   0.772   8.006  0.8502 -1.2127  1.6427
 2399THY      O59951   4.727   0.815   5.601 -0.3327 -0.0581  0.4060
 2399THY     HO59952   4.650   0.759   5.581  0.0446 -0.6105  0.4629
 2399THY    CA159953   4.702   0.876   5.718  0.3349 -0.3711  0.6238
 2399THY    CA259954   4.810   0.916   5.801 -0.1144  0.1238  0.2071
 2399THY    CP159955   4.953   0.886   5.767  0.2064  0.6315 -0.1090
 2399THY    HP159956   4.961   0.879   5.658  0.6603  1.9177 -0.1731
 2399THY    CP259957   5.039   0.998   5.810  0.0662 -0.1990 -0.3090
 2399THY    HP259958   5.004   1.086   5.755  0.1379  0.6437  0.9599
 2399THY    HP359959   5.028   1.029   5.914 -1.4339 -0.5789 -0.3312
 2399THY    HP459960   5.146   0.978   5.797  0.4069  0.0701  1.7718
 2399THY    CP359961   4.995   0.747   5.833  0.2462  0.1282  0.0526
 2399THY    HP559962   5.093   0.715   5.796  0.6041 -0.2554  1.3088
 2399THY    HP659963   4.988   0.777   5.938 -0.9434 -1.7626  0.5527
 2399THY    HP759964   4.915   0.679   5.804  1.3942 -1.6141  0.8289
 2399THY    CA359965   4.774   0.974   5.927 -0.0151  0.2412  0.3321
 2399THY    HA359966   4.840   1.006   6.006 -0.8017 -0.8743  1.4930
 2399THY    CA459967   4.632   0.988   5.964  0.2168  0.9034  0.1019
 2399THY    HA459968   4.615   1.038   6.058  0.4671 -1.3078  1.4047
 2399THY    CA559969   4.530   0.953   5.873  0.4400  0.1955  0.3941
 2399THY    CM159970   4.389   0.943   5.909 -0.1850  0.3268 -0.3293
 2399THY    HM159971   4.339   0.858   5.862  0.1368 -1.7252  2.8070
 2399THY    HM259972   4.381   0.937   6.018 -0.4206  1.0342 -0.3013
 2399THY    HM359973   4.335   1.033   5.874 -1.5947 -0.9362 -1.5507
 2399THY    CA659974   4.564   0.893   5.753 -0.5041  0.1813  0.5978
 2399THY    HA659975   4.497   0.848   5.681  0.1586 -1.7060  1.1101
 2400THY      O59976   4.999   1.095   1.447 -0.6832 -0.6554  0.7260
 2400THY     HO59977   4.998   1.189   1.474  0.3519 -0.3470 -0.2253
 2400THY    CA159978   5.118   1.045   1.485  0.1664  0.9260  0.6572
 2400THY    CA259979   5.144   0.904   1.481 -0.1414 -0.7451  0.5595
 2400THY    CP159980   5.028   0.809   1.432  0.5862 -0.2454  0.2650
 2400THY    HP159981   4.935   0.859   1.403 -0.2898 -1.7422  0.4471
 2400THY    CP259982   5.079   0.727   1.311 -0.0917 -0.5605 -1.2635
 2400THY    HP259983   4.998   0.657   1.284 -1.6405  0.0506  1.3957
 2400THY    HP359984   5.089   0.799   1.229  2.1978  0.3754 -0.2311
 2400THY    HP459985   5.175   0.680   1.333  0.1419  0.7773  0.8358
 2400THY    CP359986   5.003   0.717   1.555  0.7657  0.1482 -0.1389
 2400THY    HP559987   4.915   0.657   1.529 -1.5709  2.7153  1.2856
 2400THY    HP659988   5.085   0.644   1.564 -0.7856 -1.7580 -0.7814
 2400THY    HP759989   4.976   0.770   1.647  1.3677  1.8890 -0.9161
 2400THY    CA359990   5.264   0.852   1.528 -0.2373 -0.6586  0.3942
 2400THY    HA359991   5.280   0.744   1.531  2.3100 -0.4569 -1.8203
 2400THY    CA459992   5.360   0.946   1.572 -0.1279  0.7977  0.1951
 2400THY    HA459993   5.459   0.916   1.605 -0.7472  0.3285  1.7160
 2400THY    CA559994   5.341   1.084   1.565  0.3166 -0.3683 -0.1018
 2400THY    CM159995   5.455   1.181   1.589 -0.3368 -0.3333  0.5621
 2400THY    HM159996   5.480   1.239   1.500 -0.3434 -0.0309  0.7582
 2400THY    HM259997   5.436   1.257   1.665  0.3111 -0.3264  0.7233
 2400THY    HM359998   5.548   1.128   1.616 -0.5369 -1.5495 -0.9412
 2400THY    CA659999   5.220   1.134   1.527  0.5169 -0.2386 -0.5454
 2400THY    HA660000   5.198   1.240   1.537 -0.3243 -0.5103  0.7268
 2401THY      O60001   1.032   9.639   8.929  0.0848 -0.3905  0.2539
 2401THY     HO60002   0.953   9.693   8.910 -0.5591 -1.3695  0.0834
 2401THY    CA160003   1.051   9.639   9.061 -0.3863  0.2315  0.2226
 2401THY    CA260004   1.161   9.573   9.113 -0.0781 -0.6729  0.2974
 2401THY    CP160005   1.258   9.498   9.011  0.5353  0.9427 -0.1410
 2401THY    HP160006   1.217   9.485   8.911  1.7755 -0.5497 -0.4888
 2401THY    CP260007   1.383   9.580   9.001  0.1216  0.6766 -0.7600
 2401THY    HP260008   1.457   9.538   8.933 -0.5739 -1.9161 -0.0420
 2401THY    HP360009   1.358   9.683   8.972 -2.5271  1.0052  2.1238
 2401THY    HP460010   1.439   9.583   9.095  1.2912 -0.1355 -1.4083
 2401THY    CP360011   1.289   9.348   9.049  0.9166  0.6876 -0.6189
 2401THY    HP560012   1.355   9.344   9.137  1.3564 -0.7215 -0.9780
 2401THY    HP660013   1.203   9.285   9.074  1.7228 -0.3923 -0.4636
 2401THY    HP760014   1.349   9.301   8.970 -0.6382  0.2849 -1.6083
 2401THY    CA360015   1.167   9.562   9.254  0.5408 -0.3852 -0.3283
 2401THY    HA360016   1.256   9.518   9.299  1.0419  0.2595 -0.6742
 2401THY    CA460017   1.066   9.618   9.331 -0.3609  0.2811 -0.1378
 2401THY    HA460018   1.073   9.601   9.438  1.3068 -0.4783 -0.3367
 2401THY    CA560019   0.959   9.689   9.273  0.1387  0.4008 -0.3138
 2401THY    CM160020   0.854   9.739   9.364 -0.1670 -0.3652 -0.0296
 2401THY    HM160021   0.826   9.842   9.340  0.8315 -0.6738 -2.8453
 2401THY    HM260022   0.762   9.680   9.369 -0.9888  0.9735  2.9185
 2401THY    HM360023   0.898   9.735   9.464  0.8222 -2.5843 -0.4841
 2401THY    CA660024   0.949   9.701   9.135  0.1614  0.2534  0.7989
 2401THY    HA660025   0.867   9.747   9.081  1.3723 -1.8092 -3.2217
 2402THY      O60026   8.920   0.401   6.854  0.4637  0.2093 -0.1559
 2402THY     HO60027   8.996   0.367   6.805  0.3596  0.8308 -0.7602
 2402THY    CA160028   8.886   0.512   6.792 -0.3896 -0.7101  0.0332
 2402THY    CA260029   8.772   0.584   6.814 -0.4475  0.4106 -0.6217
 2402THY    CP160030   8.663   0.542   6.916  0.1790  0.3029  0.1092
 2402THY    HP160031   8.715   0.487   6.995 -0.3844 -1.4393 -0.6678
 2402THY    CP260032   8.586   0.660   6.973  0.5517 -0.0461  0.0217
 2402THY    HP260033   8.509   0.703   6.909 -0.6930 -0.0431  1.4619
 2402THY    HP360034   8.529   0.639   7.064  1.7324  0.8557  1.0056
 2402THY    HP460035   8.653   0.740   7.007  0.2831  0.4451 -0.5825
 2402THY    CP360036   8.564   0.435   6.856 -0.1214 -1.3607 -0.5613
 2402THY    HP560037   8.509   0.385   6.937 -1.4822 -0.9864 -1.2431
 2402THY    HP660038   8.492   0.490   6.794 -0.7179  0.8732  1.9200
 2402THY    HP760039   8.632   0.367   6.803  2.5190 -0.3495  1.3169
 2402THY    CA360040   8.767   0.711   6.748  0.3049  0.2718 -0.1012
 2402THY    HA360041   8.679   0.775   6.752  0.2872  0.1970  1.9845
 2402THY    CA460042   8.875   0.759   6.672 -0.6972  0.2848  0.3238
 2402THY    HA460043   8.867   0.860   6.633  0.2814 -0.0293 -0.7361
 2402THY    CA560044   8.983   0.684   6.651  0.3036  0.3018 -0.4786
 2402THY    CM160045   9.090   0.748   6.574 -0.0386  0.0109 -0.5366
 2402THY    HM160046   9.126   0.837   6.628  1.8498 -1.5184  0.8801
 2402THY    HM260047   9.180   0.685   6.578  0.7094  1.0933  0.6283
 2402THY    HM360048   9.060   0.767   6.471  1.4676 -2.1159 -1.4411
 2402THY    CA660049   8.988   0.562   6.711 -0.0645 -0.2630  0.7627
 2402THY    HA660050   9.085   0.515   6.695 -0.5385 -1.0462  0.1075
 2403THY      O60051   3.068   8.724   8.910 -0.2016 -0.1342 -0.1003
 2403THY     HO60052   3.041   8.652   8.970  1.6863 -1.0678 -0.2834
 2403THY    CA160053   3.042   8.841   8.974 -0.0359  0.2110 -0.2757
 2403THY    CA260054   3.109   8.961   8.940 -0.0375  0.5630  0.6892
 2403THY    CP160055   3.213   8.951   8.827  0.4670  0.1177 -0.1819
 2403THY    HP160056   3.242   8.851   8.793  0.7439  0.3146 -0.5384
 2403THY    CP260057   3.181   9.045   8.714  0.4821  0.0162 -0.0439
 2403THY    HP260058   3.168   9.148   8.748 -2.7530 -0.1346 -0.4271
 2403THY    HP360059   3.263   9.039   8.642  0.5489 -4.6353  0.0902
 2403THY    HP460060   3.092   9.012   8.659 -0.2610  1.3797  0.2956
 2403THY    CP360061   3.347   8.995   8.898  0.0855 -0.3826  0.1236
 2403THY    HP560062   3.433   8.996   8.829  1.2443  3.5018  1.3915
 2403THY    HP660063   3.349   9.098   8.934 -0.0471 -0.2827 -0.1539
 2403THY    HP760064   3.363   8.929   8.984 -1.4583  0.7958  1.3594
 2403THY    CA360065   3.087   9.070   9.024 -0.0174 -0.5114 -0.3436
 2403THY    HA360066   3.138   9.159   8.990  0.6206 -1.3686 -1.7184
 2403THY    CA460067   2.993   9.069   9.128  1.1208 -0.0211  0.4337
 2403THY    HA460068   2.954   9.160   9.172  0.8515  0.6438 -1.1150
 2403THY    CA560069   2.923   8.953   9.150  0.4429  0.5937 -0.2354
 2403THY    CM160070   2.812   8.957   9.261  0.0136  0.3446  1.1460
 2403THY    HM160071   2.718   9.002   9.229 -0.1293 -0.7269 -0.0507
 2403THY    HM260072   2.798   8.852   9.291  1.7476 -0.7979 -1.5323
 2403THY    HM360073   2.861   9.003   9.347  3.7378  1.7774 -1.4642
 2403THY    CA660074   2.956   8.835   9.082 -0.3114  0.4469 -0.4657
 2403THY    HA660075   2.902   8.745   9.108 -2.4322  1.8991  0.4756
 2404THY      O60076   0.512   3.196   0.766 -0.2873 -0.3227 -0.2660
 2404THY     HO60077   0.460   3.123   0.805  0.4408 -0.2319  0.9174
 2404THY    CA160078   0.633   3.150   0.734  0.2298  0.0363 -0.6271
 2404THY    CA260079   0.728   3.232   0.665  0.3126 -0.6686 -0.0290
 2404THY    CP160080   0.681   3.364   0.603  0.0147  0.2178 -0.5148
 2404THY    HP160081   0.595   3.408   0.656  0.6305  1.0949 -0.2046
 2404THY    CP260082   0.778   3.486   0.615  0.3071 -0.6651 -0.1703
 2404THY    HP260083   0.841   3.495   0.526  2.0253  0.2061  1.0471
 2404THY    HP360084   0.721   3.578   0.630  2.6264  0.6795  1.0431
 2404THY    HP460085   0.846   3.482   0.702  2.4002  0.0746 -1.6923
 2404THY    CP360086   0.651   3.350   0.457  0.8312 -0.2612 -0.2090
 2404THY    HP560087   0.566   3.286   0.431 -0.1347  1.0303 -0.3549
 2404THY    HP660088   0.636   3.453   0.421  0.1299  0.3464  1.6755
 2404THY    HP760089   0.742   3.304   0.418 -0.1567 -2.2102 -0.3373
 2404THY    CA360090   0.861   3.189   0.661 -0.3798 -0.4064  0.6874
 2404THY    HA360091   0.935   3.263   0.631  0.2222 -0.4423  2.0414
 2404THY    CA460092   0.895   3.055   0.698 -0.1003  0.5588 -0.1527
 2404THY    HA460093   0.999   3.025   0.683 -0.6024 -0.5207 -1.7280
 2404THY    CA560094   0.797   2.976   0.763 -0.2728 -0.7144 -0.0346
 2404THY    CM160095   0.823   2.836   0.814  0.4188 -0.2100 -0.7233
 2404THY    HM160096   0.835   2.840   0.923  1.3421  3.4415 -0.8432
 2404THY    HM260097   0.732   2.774   0.808 -0.1013  0.4122  0.3835
 2404THY    HM360098   0.908   2.795   0.760  2.0013  3.7057 -1.4929
 2404THY    CA660099   0.668   3.025   0.780  0.6397  0.2123  0.0776
 2404THY    HA660100   0.595   2.963   0.833  1.6122 -0.5757  0.5298
 2405THY      O60101   6.785   4.577   6.296 -0.7448  0.4834 -0.3826
 2405THY     HO60102   6.774   4.670   6.271  1.4566  0.6011 -1.1221
 2405THY    CA160103   6.666   4.525   6.307  0.3190 -0.6242 -1.0359
 2405THY    CA260104   6.651   4.386   6.320 -0.2110 -0.4861 -0.0255
 2405THY    CP160105   6.776   4.297   6.324 -0.0526  0.2442  0.4501
 2405THY    HP160106   6.856   4.321   6.254  0.0762 -2.6580 -0.5541
 2405THY    CP260107   6.837   4.302   6.463  0.4703 -0.0904 -0.2596
 2405THY    HP260108   6.932   4.247   6.466 -0.3945 -1.7886 -1.9591
 2405THY    HP360109   6.863   4.407   6.483  0.3287 -0.2479  0.8524
 2405THY    HP460110   6.768   4.279   6.545  0.6563  0.0467 -0.0625
 2405THY    CP360111   6.751   4.148   6.296 -0.3787  0.4557 -0.3980
 2405THY    HP560112   6.847   4.097   6.282  0.4963  1.5621  1.2485
 2405THY    HP660113   6.696   4.091   6.372  0.6517 -1.6731 -1.1821
 2405THY    HP760114   6.692   4.131   6.205 -0.8961 -0.6647  0.1275
 2405THY    CA360115   6.522   4.337   6.340  0.1124  0.0397  0.2182
 2405THY    HA360116   6.488   4.233   6.341 -1.0145  0.3804 -0.5388
 2405THY    CA460117   6.418   4.438   6.348 -0.9538  0.2076  0.2170
 2405THY    HA460118   6.316   4.404   6.360 -0.5053 -1.3290 -0.1085
 2405THY    CA560119   6.436   4.576   6.341  0.0082  0.0401  0.1578
 2405THY    CM160120   6.320   4.670   6.333 -0.3405  0.5224  0.1345
 2405THY    HM160121   6.291   4.713   6.430  1.5334  1.0319  0.5108
 2405THY    HM260122   6.350   4.758   6.274  0.7937  0.0119 -0.0740
 2405THY    HM360123   6.234   4.624   6.283 -1.2627 -1.0475  2.9475
 2405THY    CA660124   6.563   4.616   6.314 -0.3245 -0.0103 -0.5635
 2405THY    HA660125   6.581   4.723   6.312  2.0743 -0.2488  1.5296
 2406THY      O60126   0.236   9.665   9.952 -0.2316 -0.4372  0.1095
 2406THY     HO60127   0.198   9.735  10.008 -2.7952 -0.8541 -0.9850
 2406THY    CA160128   0.150   9.554   9.938 -0.1744  0.3878  0.4120
 2406THY    CA260129   0.194   9.423   9.897  0.2952 -0.4896  0.2846
 2406THY    CP160130   0.339   9.389   9.881 -0.4813  0.3729 -0.2439
 2406THY    HP160131   0.406   9.476   9.889  0.6295 -0.4503 -0.3577
 2406THY    CP260132   0.387   9.306  10.004  0.7562 -0.1889 -0.1168
 2406THY    HP260133   0.339   9.344  10.094 -1.7886 -1.5188 -0.8158
 2406THY    HP360134   0.368   9.200   9.985  0.1393  0.1993 -1.8580
 2406THY    HP460135   0.494   9.326  10.014  0.8214 -1.0745  1.0772
 2406THY    CP360136   0.373   9.319   9.747 -0.3072  0.6386  0.0070
 2406THY    HP560137   0.312   9.229   9.730  0.5658 -0.4035  1.9581
 2406THY    HP660138   0.362   9.392   9.667  0.8985 -0.7203 -1.4674
 2406THY    HP760139   0.479   9.288   9.744 -0.1956  1.1039 -1.1543
 2406THY    CA360140   0.097   9.318   9.895  0.0333  0.0701  0.6796
 2406THY    HA360141   0.127   9.216   9.875 -0.3888  0.1769 -0.5988
 2406THY    CA460142  -0.040   9.350   9.927  0.2071  0.1519  0.1573
 2406THY    HA460143  -0.097   9.258   9.937  1.5616 -0.4956  2.9302
 2406THY    CA560144  -0.078   9.480   9.954 -0.0187  0.4453  0.4827
 2406THY    CM160145  -0.223   9.508   9.987  0.3898 -0.5328 -0.1864
 2406THY    HM160146  -0.284   9.561   9.913 -0.2981 -0.3904  0.4757
 2406THY    HM260147  -0.283   9.416   9.980  1.4485 -1.1951 -0.9472
 2406THY    HM360148  -0.232   9.542  10.091  0.7922 -0.4344 -0.1834
 2406THY    CA660149   0.016   9.581   9.957  0.0609  0.2787 -0.6309
 2406THY    HA660150  -0.019   9.682   9.978  3.4304  1.0117  2.5777
 2407THY      O60151   1.666   7.059   8.380  0.0012  0.8703 -0.0088
 2407THY     HO60152   1.644   7.033   8.289  0.0603  0.8930 -0.0297
 2407THY    CA160153   1.569   7.011   8.453  0.3997  0.2864  0.5666
 2407THY    CA260154   1.599   6.962   8.585  0.0695 -0.0766  0.2308
 2407THY    CP160155   1.746   6.959   8.627  0.5334  0.2325  0.1855
 2407THY    HP160156   1.806   7.028   8.567 -1.2733  1.0436 -0.7633
 2407THY    CP260157   1.770   6.994   8.779 -0.1141  0.2306 -0.1624
 2407THY    HP260158   1.748   6.906   8.840 -1.9181 -0.9222 -2.3702
 2407THY    HP360159   1.873   7.018   8.811  0.2606 -0.4767 -0.8078
 2407THY    HP460160   1.711   7.084   8.802  2.3562  1.4789  1.8927
 2407THY    CP360161   1.812   6.817   8.598  0.3427 -0.1243 -0.1661
 2407THY    HP560162   1.813   6.794   8.491  0.7268 -3.1354  0.3862
 2407THY    HP660163   1.917   6.811   8.629 -0.1287 -1.9169  1.2811
 2407THY    HP760164   1.760   6.742   8.658 -0.8601  3.0067  3.0827
 2407THY    CA360165   1.490   6.916   8.665 -0.4248  0.0883  0.2185
 2407THY    HA360166   1.498   6.877   8.766  1.8134  0.3004  0.1627
 2407THY    CA460167   1.363   6.905   8.600 -0.0389 -0.8480  0.0762
 2407THY    HA460168   1.277   6.861   8.649 -0.9700 -2.1956 -2.6057
 2407THY    CA560169   1.340   6.957   8.470  0.7644  0.8225  0.5436
 2407THY    CM160170   1.201   6.941   8.417 -0.3994  0.7727  0.4198
 2407THY    HM160171   1.131   7.010   8.464 -2.2771  0.8695 -2.2628
 2407THY    HM260172   1.203   6.945   8.307  1.9721  1.3400  0.4282
 2407THY    HM360173   1.167   6.839   8.441 -0.0887  0.3910 -0.7017
 2407THY    CA660174   1.443   6.998   8.392 -0.2417 -0.7811  0.0244
 2407THY    HA660175   1.431   7.039   8.292  2.3290 -0.7675 -0.3479
 2408THY      O60176   9.428   8.751   4.915  0.3314  0.5195  0.5262
 2408THY     HO60177   9.474   8.766   4.999  1.6205  0.1116 -0.0842
 2408THY    CA160178   9.432   8.872   4.846 -0.1791 -0.5286 -0.3598
 2408THY    CA260179   9.361   8.896   4.720 -0.3620 -0.4402  0.0119
 2408THY    CP160180   9.272   8.790   4.666  0.4690 -0.5685 -0.0196
 2408THY    HP160181   9.242   8.723   4.748  3.9804 -3.1275 -0.6171
 2408THY    CP260182   9.136   8.838   4.624  0.1595 -0.7331  0.1923
 2408THY    HP260183   9.071   8.752   4.606 -2.5564  1.4598 -1.2980
 2408THY    HP360184   9.090   8.899   4.702  1.0121 -0.7116  0.6906
 2408THY    HP460185   9.129   8.902   4.535  0.8745 -1.3373 -0.3155
 2408THY    CP360186   9.349   8.705   4.565 -0.4882  1.0761  0.0192
 2408THY    HP560187   9.369   8.761   4.474 -1.1873  2.8526  0.9134
 2408THY    HP660188   9.444   8.678   4.612 -0.2919 -0.6127 -1.2447
 2408THY    HP760189   9.294   8.611   4.549  1.5962  0.0561 -1.5328
 2408THY    CA360190   9.378   9.022   4.653  0.1198 -0.4669  0.6617
 2408THY    HA360191   9.313   9.043   4.568 -0.3155 -3.0164  0.2722
 2408THY    CA460192   9.463   9.115   4.709 -0.0729  0.2812  0.1024
 2408THY    HA460193   9.482   9.206   4.653  1.0862  0.0986  0.1746
 2408THY    CA560194   9.537   9.089   4.829 -0.0224  0.4157  0.2622
 2408THY    CM160195   9.619   9.200   4.891 -0.2335  0.4097 -0.0433
 2408THY    HM160196   9.552   9.286   4.900  0.2047  0.5253  3.5644
 2408THY    HM260197   9.651   9.180   4.994 -1.0158 -0.4593  0.0458
 2408THY    HM360198   9.705   9.226   4.828 -0.8454  1.4012 -0.5044
 2408THY    CA660199   9.512   8.972   4.903  0.9242  0.4629 -0.3195
 2408THY    HA660200   9.571   8.944   4.989 -2.6749  1.5074  2.7507
 2409THY      O60201   2.930   0.526   9.221  0.1188 -0.0819  0.4298
 2409THY     HO60202   2.984   0.511   9.142 -1.6633  1.3895 -1.1482
 2409THY    CA160203   2.992   0.635   9.278  0.4107 -0.4028  0.0619
 2409THY    CA260204   2.976   0.669   9.407  0.1899 -0.4345  0.2185
 2409THY    CP160205   2.872   0.580   9.490  0.2096  0.4011 -0.2815
 2409THY    HP160206   2.790   0.543   9.428 -0.4364 -0.0806  0.8330
 2409THY    CP260207   2.933   0.451   9.557 -0.7344  0.6322 -0.2965
 2409THY    HP260208   3.019   0.462   9.623 -0.3331  0.7188 -0.8282
 2409THY    HP360209   2.854   0.409   9.621  0.5168  1.3044  1.7807
 2409THY    HP460210   2.964   0.377   9.483  0.5236  0.9802 -0.1361
 2409THY    CP360211   2.804   0.662   9.600  0.0945 -0.2721  0.2374
 2409THY    HP560212   2.724   0.602   9.643  0.5446 -1.4419 -0.4945
 2409THY    HP660213   2.873   0.684   9.682 -0.1332 -1.7952  0.8716
 2409THY    HP760214   2.765   0.753   9.552  0.6123  0.5634  1.3431
 2409THY    CA360215   3.045   0.783   9.455 -0.1102  0.2500  0.4317
 2409THY    HA360216   3.039   0.806   9.561  1.3052 -0.7753  0.7601
 2409THY    CA460217   3.123   0.860   9.365 -0.3806 -0.4194 -0.5064
 2409THY    HA460218   3.173   0.948   9.404 -1.2878  0.6260 -1.6332
 2409THY    CA560219   3.137   0.822   9.237  0.4268  0.1488  0.0516
 2409THY    CM160220   3.230   0.900   9.142  0.3555 -0.4022 -0.1903
 2409THY    HM160221   3.308   0.836   9.099  2.2056  1.9572 -0.5114
 2409THY    HM260222   3.170   0.952   9.067  1.2512  0.7468 -0.1230
 2409THY    HM360223   3.276   0.978   9.203  0.5013 -2.2762  2.2435
 2409THY    CA660224   3.076   0.703   9.194 -0.2826  0.3666 -0.7349
 2409THY    HA660225   3.088   0.663   9.094 -0.5377 -0.9053 -0.2700
 2410THY      O60226   7.416   4.061   1.444  0.6353  0.4947 -0.2399
 2410THY     HO60227   7.365   4.111   1.509 -2.2053 -1.6306 -0.6347
 2410THY    CA160228   7.317   4.008   1.371  1.2145  0.0775 -0.2923
 2410THY    CA260229   7.335   3.967   1.235  0.4788 -0.7917 -0.1325
 2410THY    CP160230   7.464   3.995   1.150 -0.4201 -0.1031  0.5700
 2410THY    HP160231   7.531   4.072   1.189  0.9671 -0.4579 -1.0273
 2410THY    CP260232   7.536   3.859   1.143 -0.1521  0.5381 -0.4258
 2410THY    HP260233   7.468   3.789   1.093 -2.6206  2.3227  0.2234
 2410THY    HP360234   7.633   3.877   1.095 -0.3780  1.6925 -0.4927
 2410THY    HP460235   7.551   3.822   1.245 -2.0516 -0.3983 -0.4286
 2410THY    CP360236   7.430   4.041   1.005 -0.0974  0.2847 -0.2415
 2410THY    HP560237   7.373   4.132   1.023  0.2863  0.4740  0.0312
 2410THY    HP660238   7.520   4.070   0.950 -0.3895  4.1123  1.0172
 2410THY    HP760239   7.366   3.974   0.946 -3.0980  3.2122 -0.5775
 2410THY    CA360240   7.227   3.919   1.167 -0.3681  0.5310 -0.0759
 2410THY    HA360241   7.239   3.891   1.063 -1.2380  1.6486 -0.4994
 2410THY    CA460242   7.103   3.915   1.232  0.4784  0.0614  0.3002
 2410THY    HA460243   7.023   3.878   1.169  1.0179 -2.3693  0.9654
 2410THY    CA560244   7.081   3.940   1.363 -0.1468  0.3160 -0.3890
 2410THY    CM160245   6.941   3.929   1.422 -0.5472 -0.1595  0.6892
 2410THY    HM160246   6.874   3.998   1.370 -1.8108 -1.0725  1.0750
 2410THY    HM260247   6.899   3.833   1.391 -1.5750  0.8447 -1.2185
 2410THY    HM360248   6.935   3.938   1.531 -0.1463 -0.8382  0.7748
 2410THY    CA660249   7.190   3.996   1.436  0.6121 -0.4231 -0.3008
 2410THY    HA660250   7.171   4.022   1.540 -2.7830 -0.6313 -0.7452
 2411THY      O60251   2.584   4.163   4.672  0.2456  0.0749  0.3486
 2411THY     HO60252   2.621   4.088   4.722 -2.1494 -1.5671 -0.1772
 2411THY    CA160253   2.648   4.164   4.552 -0.6917  0.0663 -0.4082
 2411THY    CA260254   2.589   4.220   4.437 -0.2181  0.4588  0.3235
 2411THY    CP160255   2.460   4.304   4.459 -0.4945 -0.3563  0.0472
 2411THY    HP160256   2.437   4.315   4.566 -0.2543 -0.9542  0.1627
 2411THY    CP260257   2.467   4.447   4.389 -0.2478  0.4836  0.9420
 2411THY    HP260258   2.390   4.519   4.420 -3.4029 -3.1884  2.5557
 2411THY    HP360259   2.562   4.488   4.424  1.1472 -2.0999  0.4484
 2411THY    HP460260   2.474   4.447   4.280  0.3551  2.1044  0.9639
 2411THY    CP360261   2.334   4.238   4.395 -0.7435  0.3379  0.1944
 2411THY    HP560262   2.251   4.310   4.398  0.2510  1.6231 -1.0577
 2411THY    HP660263   2.357   4.228   4.288  0.5642  0.5206  0.4410
 2411THY    HP760264   2.313   4.139   4.434  1.4430 -0.1639  0.2100
 2411THY    CA360265   2.647   4.199   4.307 -0.3143 -0.7267 -0.1091
 2411THY    HA360266   2.618   4.248   4.215 -1.5499 -1.0815  0.0715
 2411THY    CA460267   2.773   4.144   4.309  0.0868  0.6837 -0.4598
 2411THY    HA460268   2.823   4.111   4.218  1.4615 -3.0737  1.4384
 2411THY    CA560269   2.827   4.082   4.425 -0.3347  1.1548 -0.0238
 2411THY    CM160270   2.952   4.001   4.396  0.8839  0.3092 -0.6326
 2411THY    HM160271   2.924   3.925   4.323 -0.1068 -1.1019  1.1297
 2411THY    HM260272   3.034   4.064   4.358  1.0285 -0.3078 -1.3459
 2411THY    HM360273   2.992   3.941   4.479 -1.3054 -2.6908 -1.5802
 2411THY    CA660274   2.767   4.088   4.551 -0.3668 -0.0940  0.4653
 2411THY    HA660275   2.797   4.050   4.648 -2.9236  3.7285  3.0522
 2412THY      O60276   1.421   7.418   9.604 -0.8721 -0.1124  0.0383
 2412THY     HO60277   1.515   7.394   9.607 -0.3723  1.7295  1.1118
 2412THY    CA160278   1.377   7.394   9.730 -0.0765 -0.0626 -0.7384
 2412THY    CA260279   1.239   7.397   9.755 -0.4659  0.5247 -0.0238
 2412THY    CP160280   1.154   7.448   9.642 -0.5064 -0.4493 -0.1376
 2412THY    HP160281   1.171   7.375   9.562  0.5537 -1.4976  1.0004
 2412THY    CP260282   1.002   7.435   9.657  0.3881 -0.0719 -0.2082
 2412THY    HP260283   0.978   7.335   9.693 -0.8007 -0.3140 -1.6192
 2412THY    HP360284   0.962   7.509   9.728 -0.9676 -2.7393  1.9642
 2412THY    HP460285   0.957   7.450   9.559  2.1314 -0.7436 -1.1621
 2412THY    CP360286   1.188   7.593   9.591  0.7740 -0.0216  0.8317
 2412THY    HP560287   1.118   7.627   9.515  1.4694  1.7992  0.9689
 2412THY    HP660288   1.189   7.667   9.671 -2.6914 -1.3089  2.2939
 2412THY    HP760289   1.283   7.594   9.537 -0.1514  0.6862 -0.8250
 2412THY    CA360290   1.201   7.361   9.888  0.6501 -0.1367 -0.6869
 2412THY    HA360291   1.095   7.373   9.908  0.6318  1.2201 -1.4069
 2412THY    CA460292   1.292   7.313   9.988 -0.7933  0.2305  0.5124
 2412THY    HA460293   1.255   7.289  10.086 -1.2026 -1.0191  0.0682
 2412THY    CA560294   1.428   7.309   9.959  1.0082 -0.1950 -0.5339
 2412THY    CM160295   1.528   7.263  10.063  0.1696  0.4849 -0.1488
 2412THY    HM160296   1.624   7.316  10.054 -0.2580  1.8466  2.3814
 2412THY    HM260297   1.491   7.275  10.165  1.6529  0.3268  0.4253
 2412THY    HM360298   1.545   7.155  10.053  1.9005  0.1502  4.3759
 2412THY    CA660299   1.465   7.349   9.831 -0.4235 -0.2461 -0.1067
 2412THY    HA660300   1.571   7.345   9.806 -0.3494 -0.7670  0.2763
 2413THY      O60301   5.352   7.531   5.213 -0.1237  0.7038 -0.3694
 2413THY     HO60302   5.392   7.475   5.145 -0.5048  2.2803 -1.9679
 2413THY    CA160303   5.250   7.452   5.249 -0.2800 -0.6424  0.2746
 2413THY    CA260304   5.124   7.505   5.289  0.2305  0.4034  0.2085
 2413THY    CP160305   5.106   7.659   5.300  0.0716 -0.2612 -0.6009
 2413THY    HP160306   5.197   7.712   5.268 -0.8891  0.7424 -1.7869
 2413THY    CP260307   4.993   7.700   5.213 -0.4361  0.4297 -0.2697
 2413THY    HP260308   4.974   7.807   5.228  1.5794  0.9213 -0.9259
 2413THY    HP360309   5.022   7.690   5.107 -1.8729 -0.4545 -0.6070
 2413THY    HP460310   4.909   7.630   5.225  0.6834 -0.7221  1.2641
 2413THY    CP360311   5.077   7.689   5.442 -0.4848  0.3250 -0.1757
 2413THY    HP560312   5.166   7.664   5.501 -0.8142  0.7172  0.5056
 2413THY    HP660313   5.061   7.795   5.465  0.2770 -0.1627  3.2025
 2413THY    HP760314   4.986   7.638   5.476 -1.3381  0.9712 -1.4050
 2413THY    CA360315   5.029   7.415   5.332 -0.8009  0.0440  0.4400
 2413THY    HA360316   4.928   7.447   5.356 -0.3134  2.6200 -0.6386
 2413THY    CA460317   5.062   7.274   5.337 -0.7993 -0.4035 -0.1680
 2413THY    HA460318   4.981   7.206   5.360 -0.3397 -1.1749 -0.7556
 2413THY    CA560319   5.184   7.222   5.298 -0.1973  1.0085 -0.1720
 2413THY    CM160320   5.225   7.068   5.303  0.0543 -0.3790 -0.1717
 2413THY    HM160321   5.186   7.028   5.397 -0.0027  3.2580  1.5096
 2413THY    HM260322   5.195   7.018   5.210 -0.1468 -0.7169  0.0734
 2413THY    HM360323   5.334   7.068   5.303  0.1009  1.5972 -0.0653
 2413THY    CA660324   5.279   7.319   5.264  0.4541  0.0301 -0.1283
 2413THY    HA660325   5.382   7.287   5.263  0.2134 -0.7601 -0.2365
 2414THY      O60326   7.313   1.694   1.795  0.1911 -0.3169  0.6615
 2414THY     HO60327   7.330   1.742   1.879  0.5559 -0.4602  0.6724
 2414THY    CA160328   7.358   1.775   1.701  0.1174 -0.5755  0.3733
 2414THY    CA260329   7.371   1.738   1.562 -0.3151 -0.8745 -0.3801
 2414THY    CP160330   7.349   1.598   1.523 -0.0170  1.1346  0.2525
 2414THY    HP160331   7.412   1.538   1.591 -0.3148 -0.5111 -0.8615
 2414THY    CP260332   7.191   1.564   1.527 -0.4221 -0.0296  0.7773
 2414THY    HP260333   7.128   1.638   1.477  0.2379 -0.9283 -1.5296
 2414THY    HP360334   7.165   1.461   1.498 -1.5730 -0.0025  1.6608
 2414THY    HP460335   7.157   1.577   1.630 -0.0836  1.3226  0.7403
 2414THY    CP360336   7.394   1.550   1.383  0.2196 -0.3175  0.8585
 2414THY    HP560337   7.312   1.573   1.314 -1.7498 -3.8119  1.7503
 2414THY    HP660338   7.489   1.584   1.341 -0.2131 -0.0536  0.0618
 2414THY    HP760339   7.397   1.440   1.379  0.7247 -0.2862  0.0670
 2414THY    CA360340   7.395   1.839   1.471  0.4363 -0.9761  0.3875
 2414THY    HA360341   7.395   1.823   1.364  0.0310  0.4099  0.1619
 2414THY    CA460342   7.427   1.970   1.517 -0.4888  0.0743 -0.4618
 2414THY    HA460343   7.459   2.040   1.441 -0.3350  1.3888  0.7707
 2414THY    CA560344   7.417   2.007   1.661 -0.3633  0.6336 -0.2025
 2414THY    CM160345   7.427   2.151   1.711 -0.0787 -0.3842 -0.1817
 2414THY    HM160346   7.415   2.142   1.819 -0.2506 -0.4042 -0.2030
 2414THY    HM260347   7.520   2.207   1.692 -1.7405  2.9540  0.7535
 2414THY    HM360348   7.349   2.217   1.670  0.4241  0.1033 -0.3689
 2414THY    CA660349   7.377   1.906   1.743  0.1072  0.0865 -0.3780
 2414THY    HA660350   7.361   1.930   1.847 -1.0349 -0.6537 -0.3748
 2415THY      O60351   7.099   6.887   1.408  0.2382 -0.7076  0.1785
 2415THY     HO60352   7.154   6.825   1.358  2.0229  1.1416 -0.3026
 2415THY    CA160353   7.188   6.945   1.496  0.5302 -0.4093 -0.0600
 2415THY    CA260354   7.168   7.081   1.549 -1.1279 -0.8297  0.1923
 2415THY    CP160355   7.048   7.159   1.515  0.2704 -0.2872  0.8861
 2415THY    HP160356   7.030   7.129   1.411  0.3858 -1.1380  1.1100
 2415THY    CP260357   6.934   7.114   1.602  0.5684 -0.4876 -0.5825
 2415THY    HP260358   6.971   7.128   1.704 -2.6968  1.1500  0.5136
 2415THY    HP360359   6.844   7.177   1.605 -0.5933 -2.1164  0.4857
 2415THY    HP460360   6.916   7.006   1.598 -0.3596 -0.4017  0.7482
 2415THY    CP360361   7.057   7.318   1.507 -0.5654 -0.0678 -0.4113
 2415THY    HP560362   7.077   7.359   1.606 -0.1903 -0.1123 -0.4680
 2415THY    HP660363   7.133   7.349   1.434  0.5282 -1.0453  0.2698
 2415THY    HP760364   6.954   7.353   1.490 -1.1806 -1.9438 -0.8431
 2415THY    CA360365   7.268   7.131   1.633  0.0485 -0.0197 -0.3536
 2415THY    HA360366   7.255   7.233   1.669 -0.3116  0.0220 -0.6004
 2415THY    CA460367   7.386   7.055   1.656  0.0624 -1.0135  0.8814
 2415THY    HA460368   7.468   7.105   1.708  1.9154 -0.7063 -2.1075
 2415THY    CA560369   7.399   6.931   1.611 -1.1320  0.1226 -0.1003
 2415THY    CM160370   7.518   6.848   1.646 -0.1119 -0.0698 -0.5324
 2415THY    HM160371   7.496   6.742   1.667  0.0231 -0.3688 -1.7990
 2415THY    HM260372   7.586   6.825   1.563  0.2495  1.1820 -0.6022
 2415THY    HM360373   7.570   6.889   1.733 -0.9248 -0.4864  0.1643
 2415THY    CA660374   7.302   6.874   1.529  0.5403 -0.3880 -0.0385
 2415THY    HA660375   7.310   6.773   1.490 -0.4376 -0.2423 -0.6411
 2416THY      O60376   7.551   0.940   1.841  0.1228  0.3737  0.2338
 2416THY     HO60377   7.548   1.008   1.910  1.1862  0.0098  0.6590
 2416THY    CA160378   7.437   0.874   1.840 -0.2556  0.2099  0.5752
 2416THY    CA260379   7.391   0.789   1.741  0.8906  0.4059  0.8268
 2416THY    CP160380   7.475   0.756   1.617 -0.1013  0.1363  0.1006
 2416THY    HP160381   7.577   0.790   1.640  0.0204 -0.3573  0.3006
 2416THY    CP260382   7.490   0.604   1.608  1.0813  0.1363  0.1508
 2416THY    HP260383   7.412   0.551   1.552 -0.9635  0.7417  2.2388
 2416THY    HP360384   7.584   0.571   1.562  1.7746  0.7854  1.0789
 2416THY    HP460385   7.490   0.554   1.706 -0.3131 -0.8937 -0.3385
 2416THY    CP360386   7.429   0.823   1.489 -0.3430  0.4351 -0.5710
 2416THY    HP560387   7.436   0.753   1.404 -3.5055  1.6757 -2.0256
 2416THY    HP660388   7.326   0.859   1.487 -0.1515  0.9856 -0.6263
 2416THY    HP760389   7.497   0.906   1.466 -2.2394  2.4366  0.6968
 2416THY    CA360390   7.257   0.749   1.738  0.1637 -0.0020 -0.4138
 2416THY    HA360391   7.223   0.687   1.656  0.3910 -1.5340  0.5972
 2416THY    CA460392   7.171   0.778   1.847  0.1122  0.1078  0.0009
 2416THY    HA460393   7.070   0.740   1.848 -0.3183  1.0165  3.8866
 2416THY    CA560394   7.223   0.858   1.954 -0.4385 -0.3232  0.3525
 2416THY    CM160395   7.151   0.886   2.082 -0.3792 -0.0136  0.0378
 2416THY    HM160396   7.137   0.798   2.146  3.4674 -1.2988 -0.5814
 2416THY    HM260397   7.201   0.958   2.149  2.6293 -1.2197 -0.7196
 2416THY    HM360398   7.049   0.923   2.068 -0.7225 -1.4075 -1.5300
 2416THY    CA660399   7.352   0.910   1.942 -0.0200  0.0589  0.6672
 2416THY    HA660400   7.397   0.964   2.024  1.4925 -1.1358  0.6752
 2417THY      O60401   5.279   7.395   3.759  0.2306 -0.0121  0.1429
 2417THY     HO60402   5.276   7.309   3.804  0.3931  0.1167  0.4012
 2417THY    CA160403   5.225   7.368   3.638 -0.0741 -0.2275  0.1742
 2417THY    CA260404   5.128   7.458   3.577  0.5017 -0.1643  0.5871
 2417THY    CP160405   5.071   7.582   3.647  0.6865 -0.0623 -0.3413
 2417THY    HP160406   5.022   7.542   3.737  1.2561 -0.4751 -0.2128
 2417THY    CP260407   5.177   7.695   3.681  0.7178 -0.8893  0.2458
 2417THY    HP260408   5.264   7.663   3.739  1.6778  0.7976 -0.1887
 2417THY    HP360409   5.209   7.745   3.589 -2.7078  1.1690  0.0059
 2417THY    HP460410   5.126   7.773   3.738 -2.6207 -1.0693 -2.2151
 2417THY    CP360411   4.968   7.654   3.569  0.0525 -0.0385  0.6201
 2417THY    HP560412   4.872   7.602   3.553 -0.3262 -0.1528  2.9522
 2417THY    HP660413   4.938   7.753   3.606  2.1471  0.2106  1.7865
 2417THY    HP760414   5.011   7.687   3.474  0.4368  0.4483  0.9570
 2417THY    CA360415   5.076   7.407   3.459 -0.5789  0.2971 -0.1281
 2417THY    HA360416   4.997   7.455   3.403  0.3656  0.0498 -1.7410
 2417THY    CA460417   5.121   7.281   3.408  0.3109  0.3757 -0.1943
 2417THY    HA460418   5.087   7.249   3.311  2.4983  0.4876 -1.0578
 2417THY    CA560419   5.232   7.204   3.460  0.9454 -0.0654  0.2336
 2417THY    CM160420   5.264   7.065   3.403  0.1657  0.1738  0.8696
 2417THY    HM160421   5.351   7.025   3.457 -1.2395 -3.1392  0.9145
 2417THY    HM260422   5.185   6.995   3.434 -1.0666  1.1121 -0.0549
 2417THY    HM360423   5.276   7.068   3.295 -0.3844  2.1255  0.8317
 2417THY    CA660424   5.280   7.255   3.579  0.5605  0.7248 -0.0501
 2417THY    HA660425   5.361   7.204   3.631 -0.0184  0.1116  0.2641
 2418THY      O60426   1.672   0.378   2.140  0.1202  0.0099  0.0252
 2418THY     HO60427   1.728   0.389   2.219 -0.0401 -0.5462  0.2188
 2418THY    CA160428   1.633   0.498   2.095 -0.3722  0.3226  0.3930
 2418THY    CA260429   1.558   0.513   1.980  0.2463  0.3399  0.9143
 2418THY    CP160430   1.522   0.383   1.891 -0.0944 -0.2939  0.5326
 2418THY    HP160431   1.614   0.326   1.872  1.0293  1.6387 -0.1078
 2418THY    CP260432   1.418   0.296   1.956  0.2043 -0.2515 -0.3774
 2418THY    HP260433   1.383   0.217   1.888  0.9870 -0.0349 -1.0415
 2418THY    HP360434   1.468   0.244   2.039  0.8860 -0.5928 -0.9970
 2418THY    HP460435   1.327   0.348   1.989 -1.0176 -1.9818 -0.8341
 2418THY    CP360436   1.473   0.406   1.749 -0.1578 -0.6418  0.2704
 2418THY    HP560437   1.542   0.475   1.699  2.5464 -1.8564  2.1010
 2418THY    HP660438   1.459   0.310   1.697  1.9991 -0.3923 -0.9255
 2418THY    HP760439   1.376   0.454   1.766  1.0053  1.9263  0.1662
 2418THY    CA360440   1.530   0.646   1.935  0.4604  0.1775 -0.1882
 2418THY    HA360441   1.477   0.669   1.843  0.3231  0.8006  0.0397
 2418THY    CA460442   1.563   0.749   2.022 -0.1239 -0.0218  0.4850
 2418THY    HA460443   1.567   0.848   1.978  0.3221  0.7302  2.1445
 2418THY    CA560444   1.628   0.724   2.145  0.1719  0.1538  0.5818
 2418THY    CM160445   1.672   0.836   2.235  0.2994  0.4761  0.2351
 2418THY    HM160446   1.706   0.801   2.333 -0.1240 -2.9037 -0.6773
 2418THY    HM260447   1.748   0.894   2.182  1.0871 -0.4680  0.3115
 2418THY    HM360448   1.584   0.898   2.255 -1.0921 -1.7183  1.3525
 2418THY    CA660449   1.671   0.599   2.180 -0.1472  0.6186 -0.1297
 2418THY    HA660450   1.714   0.580   2.278  0.4220  0.0782 -0.4747
 2419THY      O60451   1.446   4.311   3.660 -0.5532 -0.3683 -0.4856
 2419THY     HO60452   1.375   4.374   3.680 -1.0425 -0.6951 -1.1509
 2419THY    CA160453   1.483   4.257   3.779  0.3859  0.0649 -0.0994
 2419THY    CA260454   1.599   4.178   3.775 -0.2101 -0.1997 -0.0217
 2419THY    CP160455   1.681   4.144   3.651 -0.6574  0.2384  0.0391
 2419THY    HP160456   1.650   4.201   3.563 -0.2412  0.4230  0.0124
 2419THY    CP260457   1.837   4.144   3.671  0.3945 -0.1137 -0.2602
 2419THY    HP260458   1.890   4.212   3.603  1.4417  0.5072  1.1341
 2419THY    HP360459   1.858   4.180   3.772  2.0797 -1.5562 -0.0695
 2419THY    HP460460   1.878   4.045   3.648 -1.6263 -1.1526  0.4027
 2419THY    CP360461   1.628   4.002   3.614  0.5545 -0.5673  0.8754
 2419THY    HP560462   1.661   3.938   3.697  0.5366  1.6305  2.6838
 2419THY    HP660463   1.519   4.011   3.609  0.6857  0.9070 -0.2765
 2419THY    HP760464   1.663   3.964   3.517 -0.6346  2.4065 -0.8525
 2419THY    CA360465   1.631   4.122   3.895  0.7324 -0.3504 -0.7059
 2419THY    HA360466   1.709   4.046   3.899  0.0029 -1.1711 -1.5785
 2419THY    CA460467   1.567   4.148   4.016  0.9274  0.6399  0.8949
 2419THY    HA460468   1.593   4.095   4.108  0.0845 -0.8526  0.3043
 2419THY    CA560469   1.462   4.239   4.014 -0.1276  0.3535 -0.3476
 2419THY    CM160470   1.398   4.284   4.142  0.2830 -1.0552 -0.5052
 2419THY    HM160471   1.447   4.257   4.236 -0.4925  1.1363  0.6104
 2419THY    HM260472   1.389   4.393   4.147 -2.0518 -1.2501  1.6652
 2419THY    HM360473   1.296   4.244   4.153 -0.4959  0.5033 -1.4887
 2419THY    CA660474   1.406   4.285   3.896 -0.0863 -1.2027 -0.4132
 2419THY    HA660475   1.310   4.333   3.911 -0.1495 -1.6284  0.5694
 2420THY      O60476   5.971   2.951   2.704  0.2504 -0.2018 -0.2076
 2420THY     HO60477   6.000   2.994   2.786  0.2938  0.3630 -0.5130
 2420THY    CA160478   6.027   3.019   2.601  0.1631  0.0687 -0.0621
 2420THY    CA260479   6.006   2.991   2.465  0.1981 -0.3424  0.0750
 2420THY    CP160480   5.914   2.880   2.410 -0.0861 -0.7478  0.3228
 2420THY    HP160481   5.849   2.844   2.491 -0.4598 -2.2930 -0.6108
 2420THY    CP260482   5.821   2.926   2.297  0.0874  0.5053 -0.5916
 2420THY    HP260483   5.759   3.012   2.328  2.6797  1.3959  2.7360
 2420THY    HP360484   5.871   2.945   2.202 -1.3812  0.2932 -1.4441
 2420THY    HP460485   5.749   2.846   2.278  0.0481 -0.1293  1.8266
 2420THY    CP360486   5.994   2.758   2.353  0.2423  0.0881  0.3960
 2420THY    HP560487   6.070   2.729   2.426  0.5477 -2.4244 -0.8039
 2420THY    HP660488   5.929   2.671   2.334  1.2308 -0.1531 -2.4481
 2420THY    HP760489   6.051   2.770   2.260 -1.8684  0.2891 -0.9437
 2420THY    CA360490   6.080   3.064   2.369  0.1709 -0.6729 -0.7240
 2420THY    HA360491   6.060   3.058   2.262 -0.6547  0.1641 -0.6321
 2420THY    CA460492   6.167   3.166   2.408 -0.0060 -0.1788 -0.5210
 2420THY    HA460493   6.205   3.235   2.334 -1.4089  1.8738  0.5721
 2420THY    CA560494   6.194   3.186   2.546 -0.4870 -0.3145  0.1413
 2420THY    CM160495   6.304   3.284   2.586  0.0904 -0.4669 -0.0329
 2420THY    HM160496   6.274   3.379   2.540  0.2727 -1.1317 -1.5853
 2420THY    HM260497   6.312   3.298   2.695 -0.8425  1.2431 -0.1402
 2420THY    HM360498   6.401   3.251   2.549 -0.0337 -1.8479  0.7962
 2420THY    CA660499   6.118   3.118   2.640  1.0473 -0.3905 -0.7035
 2420THY    HA660500   6.136   3.131   2.747  2.8428 -1.8694 -0.7739
 2421THY      O60501   9.727   1.661   0.482  0.0901 -0.4839  0.1169
 2421THY     HO60502   9.752   1.575   0.445 -1.5332 -0.9185 -0.0385
 2421THY    CA160503   9.834   1.699   0.552  0.3190 -0.4139 -0.7243
 2421THY    CA260504   9.888   1.828   0.554  0.4504 -0.7727  0.6114
 2421THY    CP160505   9.820   1.932   0.474  0.7621 -0.0646 -0.3921
 2421THY    HP160506   9.724   1.906   0.427 -0.5796  2.4730  0.7427
 2421THY    CP260507   9.799   2.064   0.558  0.0952 -0.7454  0.2310
 2421THY    HP260508   9.892   2.113   0.587 -1.3863  2.0515  0.5695
 2421THY    HP360509   9.746   2.133   0.491 -0.1982 -1.2800 -0.0993
 2421THY    HP460510   9.729   2.027   0.635 -1.8252  0.5091 -0.8210
 2421THY    CP360511   9.905   1.967   0.350  0.3144 -0.1697  0.0620
 2421THY    HP560512   9.953   1.879   0.303  2.9911  2.0874 -1.7507
 2421THY    HP660513   9.845   2.031   0.285 -0.3577 -0.4009  0.4452
 2421THY    HP760514   9.992   2.032   0.363  1.0467 -0.7874 -1.3988
 2421THY    CA360515  10.012   1.857   0.616  0.1142 -0.1229 -0.1098
 2421THY    HA360516  10.057   1.954   0.596 -0.3854  0.4145  1.2105
 2421THY    CA460517  10.081   1.754   0.683  0.6020  0.2032 -0.0490
 2421THY    HA460518  10.180   1.775   0.723  0.7046 -0.8656  0.3142
 2421THY    CA560519  10.013   1.634   0.699  0.3565  0.7419  0.0554
 2421THY    CM160520  10.093   1.515   0.761  0.0513 -0.4333 -0.1056
 2421THY    HM160521  10.146   1.455   0.687 -1.5251 -1.6650 -0.2961
 2421THY    HM260522  10.162   1.547   0.840  1.5458 -4.0198  0.2221
 2421THY    HM360523  10.022   1.442   0.801 -1.1117 -0.5072 -2.1718
 2421THY    CA660524   9.900   1.604   0.623 -0.4111 -0.8291 -0.2112
 2421THY    HA660525   9.852   1.506   0.626 -1.6785 -0.2419 -0.6743
 2422THY      O60526   7.814   6.703   4.117 -0.0551  0.4947 -0.5163
 2422THY     HO60527   7.867   6.763   4.172  1.2694 -0.9221 -0.1516
 2422THY    CA160528   7.811   6.765   3.995  0.2625  0.2327 -0.7129
 2422THY    CA260529   7.755   6.711   3.872 -0.2797  0.1234 -0.2970
 2422THY    CP160530   7.688   6.565   3.868 -0.1225 -0.1322  0.3098
 2422THY    HP160531   7.677   6.536   3.973 -1.2767 -0.2144  0.1764
 2422THY    CP260532   7.544   6.567   3.810  0.3118  0.3131 -0.1859
 2422THY    HP260533   7.477   6.628   3.870  0.2055 -1.1580  1.2886
 2422THY    HP360534   7.542   6.625   3.717 -4.2209 -2.6228 -2.2717
 2422THY    HP460535   7.502   6.470   3.781  2.3208 -0.5540 -0.3679
 2422THY    CP360536   7.770   6.467   3.798 -0.0597  1.1040 -0.6135
 2422THY    HP560537   7.873   6.481   3.833 -0.4554  1.4843  0.4550
 2422THY    HP660538   7.730   6.365   3.801  0.2255  0.9670 -1.2505
 2422THY    HP760539   7.782   6.493   3.692  1.5641  0.0281 -0.7178
 2422THY    CA360540   7.758   6.790   3.757  0.9370 -0.1442 -0.5665
 2422THY    HA360541   7.721   6.746   3.665  0.0174  0.5377 -0.5309
 2422THY    CA460542   7.817   6.918   3.762  0.7913  0.0577 -0.2171
 2422THY    HA460543   7.814   6.987   3.678  0.3592 -1.2943 -1.3356
 2422THY    CA560544   7.869   6.969   3.882 -0.7882 -0.3689 -0.0193
 2422THY    CM160545   7.933   7.103   3.887 -0.3034 -0.7949 -0.5128
 2422THY    HM160546   8.000   7.124   3.803  2.5050  1.7417  2.0558
 2422THY    HM260547   7.858   7.182   3.872  1.7910  1.5429  0.4051
 2422THY    HM360548   7.983   7.119   3.984 -0.6546  0.0171 -0.4562
 2422THY    CA660549   7.880   6.890   3.994 -0.1156 -0.4633  0.6378
 2422THY    HA660550   7.927   6.934   4.082  1.0874  1.2964 -0.8175
 2423THY      O60551   3.210   4.737   8.559 -0.0391 -0.0979 -0.2292
 2423THY     HO60552   3.302   4.744   8.591  1.1133 -2.0832 -2.7134
 2423THY    CA160553   3.224   4.668   8.445  0.2257  0.5083 -0.1810
 2423THY    CA260554   3.120   4.644   8.360  0.4744 -0.2345  0.5439
 2423THY    CP160555   2.982   4.710   8.391 -0.1652 -0.8827  0.2169
 2423THY    HP160556   2.971   4.745   8.495 -1.5056  0.7368 -0.4204
 2423THY    CP260557   2.983   4.845   8.315  0.5043  0.7188  0.4240
 2423THY    HP260558   2.977   4.830   8.207 -1.2680  0.5275  0.5108
 2423THY    HP360559   2.893   4.903   8.338 -0.5072 -0.5355 -0.2415
 2423THY    HP460560   3.071   4.899   8.351  1.6424 -0.1956 -0.9229
 2423THY    CP360561   2.860   4.626   8.364 -0.2274  0.3922 -0.6140
 2423THY    HP560562   2.761   4.665   8.392 -1.1953 -2.2122 -0.0955
 2423THY    HP660563   2.850   4.607   8.257 -1.2862 -1.6385 -0.2173
 2423THY    HP760564   2.861   4.527   8.412  0.1776 -0.2859 -1.9750
 2423THY    CA360565   3.150   4.576   8.237 -0.9980  0.8238 -0.1223
 2423THY    HA360566   3.071   4.558   8.164 -0.2072  1.4598 -1.1593
 2423THY    CA460567   3.281   4.534   8.209 -0.3438  0.4545 -0.2635
 2423THY    HA460568   3.306   4.476   8.121  0.7362 -0.1589  0.4178
 2423THY    CA560569   3.384   4.548   8.301 -0.0248 -1.2240  0.2140
 2423THY    CM160570   3.533   4.503   8.284 -0.6818 -0.1809 -0.4068
 2423THY    HM160571   3.545   4.397   8.307  1.3094  0.1823  0.4272
 2423THY    HM260572   3.551   4.513   8.176  1.0912 -0.4392 -0.1736
 2423THY    HM360573   3.613   4.558   8.336  1.3786 -0.3381 -3.1802
 2423THY    CA660574   3.352   4.613   8.423  0.4937  0.5432 -0.0558
 2423THY    HA660575   3.426   4.614   8.503  0.4202 -1.1737  0.0709
 2424THY      O60576   2.720   5.236   0.193  0.8391 -0.7298  0.2253
 2424THY     HO60577   2.671   5.188   0.124  1.0423  1.3633 -1.4865
 2424THY    CA160578   2.790   5.143   0.261 -0.5314  0.6199  0.2884
 2424THY    CA260579   2.877   5.173   0.366 -0.1821  0.3461 -1.1853
 2424THY    CP160580   2.878   5.320   0.420  0.4516 -0.0291  0.4838
 2424THY    HP160581   2.773   5.350   0.411 -0.3054 -2.6082 -0.2715
 2424THY    CP260582   2.894   5.336   0.569  0.0531 -0.4821  0.4786
 2424THY    HP260583   2.991   5.296   0.602  1.8051  0.8535 -2.5734
 2424THY    HP360584   2.885   5.441   0.598  0.1201 -0.2368 -0.3557
 2424THY    HP460585   2.812   5.288   0.623  0.0917 -1.2940 -0.1604
 2424THY    CP360586   2.965   5.408   0.336  0.3147 -0.0453  0.3291
 2424THY    HP560587   3.066   5.375   0.362  0.1198 -0.9287  0.0184
 2424THY    HP660588   2.947   5.393   0.229 -1.5171  0.0433  0.5910
 2424THY    HP760589   2.960   5.513   0.365 -0.2451 -0.4611  1.8924
 2424THY    CA360590   2.947   5.069   0.433 -0.0994  0.3296  0.7506
 2424THY    HA360591   3.008   5.094   0.519  1.3089 -0.6364  0.0672
 2424THY    CA460592   2.929   4.934   0.387  0.0780  0.1074  0.5324
 2424THY    HA460593   2.982   4.849   0.430  0.5430 -0.7277 -1.5710
 2424THY    CA560594   2.833   4.910   0.285  0.0379 -0.3220  0.7016
 2424THY    CM160595   2.807   4.769   0.240 -0.2560  0.2154  0.0570
 2424THY    HM160596   2.900   4.716   0.215 -1.5018 -3.1245  1.9148
 2424THY    HM260597   2.749   4.710   0.312  0.7745  0.3991  1.0702
 2424THY    HM360598   2.747   4.761   0.149 -1.7745 -1.2048  1.1365
 2424THY    CA660599   2.767   5.010   0.223 -0.2028  0.0308  0.3784
 2424THY    HA660600   2.698   4.977   0.146  1.6773 -2.7616 -0.2611
 2425THY      O60601   4.803   2.676   4.889  0.5643  0.2239 -0.1591
 2425THY     HO60602   4.867   2.748   4.874  1.5074 -0.5438  0.1008
 2425THY    CA160603   4.727   2.653   4.775  0.0247  0.1844 -0.5372
 2425THY    CA260604   4.591   2.600   4.783 -0.1817  0.3268  0.9869
 2425THY    CP160605   4.527   2.588   4.931  0.0623  0.2178  0.2465
 2425THY    HP160606   4.604   2.572   5.007 -0.3737 -0.1971  0.6062
 2425THY    CP260607   4.465   2.721   4.964  0.3908  0.0256  0.3241
 2425THY    HP260608   4.422   2.704   5.064  0.4140  0.1376  0.3534
 2425THY    HP360609   4.541   2.799   4.949  1.1130 -0.4394  1.4260
 2425THY    HP460610   4.379   2.741   4.900  0.1441 -1.3311  0.1932
 2425THY    CP360611   4.430   2.470   4.942  0.2360 -0.6998 -0.1927
 2425THY    HP560612   4.345   2.489   4.876  0.0596 -1.7820 -0.2907
 2425THY    HP660613   4.488   2.383   4.909  3.0081  0.7790  0.4891
 2425THY    HP760614   4.380   2.450   5.038 -0.3152 -0.9175 -0.5184
 2425THY    CA360615   4.522   2.578   4.658  0.3187 -0.2885 -0.0445
 2425THY    HA360616   4.416   2.556   4.664  0.8651 -2.9671  1.3416
 2425THY    CA460617   4.582   2.614   4.540 -0.7507  0.0066  0.3378
 2425THY    HA460618   4.525   2.604   4.448 -0.5853  1.0569  0.1127
 2425THY    CA560619   4.712   2.676   4.532  0.2082  0.5979  0.3930
 2425THY    CM160620   4.776   2.716   4.403  0.3487  0.4579  0.5928
 2425THY    HM160621   4.705   2.752   4.328  0.3154  1.3670  1.0564
 2425THY    HM260622   4.834   2.808   4.395 -1.7433  1.9545  1.7882
 2425THY    HM360623   4.832   2.631   4.362  0.1096 -0.1040  1.3980
 2425THY    CA660624   4.784   2.693   4.653  1.5365 -0.5413 -0.0416
 2425THY    HA660625   4.881   2.741   4.642  0.7402  1.7389  1.9447
 2426THY      O60626   3.536   7.775   0.032  0.6945 -0.3850 -0.0190
 2426THY     HO60627   3.460   7.804   0.086 -2.6262 -2.0953 -3.3044
 2426THY    CA160628   3.487   7.743  -0.084 -0.0639 -0.5627  0.2083
 2426THY    CA260629   3.564   7.732  -0.206  0.5784 -0.3285 -0.0154
 2426THY    CP160630   3.715   7.742  -0.197 -0.1968 -0.0292  0.2236
 2426THY    HP160631   3.744   7.790  -0.103 -0.7831  2.6571 -0.8871
 2426THY    CP260632   3.776   7.602  -0.210 -0.5903 -0.1124 -0.4003
 2426THY    HP260633   3.876   7.606  -0.166 -0.3506  3.2007 -0.9853
 2426THY    HP360634   3.721   7.534  -0.143  2.1830 -1.4815  0.6305
 2426THY    HP460635   3.774   7.568  -0.314 -1.6699  1.3684 -0.8933
 2426THY    CP360636   3.774   7.840  -0.297  0.2474  1.2564  0.1022
 2426THY    HP560637   3.882   7.824  -0.304  0.4265  2.0998  0.7855
 2426THY    HP660638   3.744   7.800  -0.394 -2.1898 -2.1308  2.0489
 2426THY    HP760639   3.742   7.944  -0.280  1.0992  1.4906  0.3064
 2426THY    CA360640   3.494   7.706  -0.330  0.2134  0.1089  0.0811
 2426THY    HA360641   3.549   7.685  -0.421 -0.2880  1.0873 -0.4645
 2426THY    CA460642   3.354   7.676  -0.325  0.0841  0.6323  0.2420
 2426THY    HA460643   3.303   7.640  -0.414  4.3142  0.1496 -2.2704
 2426THY    CA560644   3.287   7.684  -0.202 -0.0705 -1.4144 -0.7924
 2426THY    CM160645   3.147   7.646  -0.191  0.6646  0.0121 -0.0108
 2426THY    HM160646   3.154   7.537  -0.188  0.7847  0.0409  1.4454
 2426THY    HM260647   3.084   7.674  -0.106  0.9819 -2.0507  0.9641
 2426THY    HM360648   3.096   7.672  -0.285  1.2464  0.1867 -0.2817
 2426THY    CA660649   3.352   7.737  -0.087  0.2795  0.2106 -0.2511
 2426THY    HA660650   3.295   7.755   0.004 -1.7031 -0.8262 -1.2226
 2427THY      O60651   3.474   4.134   4.452 -0.3160 -0.2770 -0.4432
 2427THY     HO60652   3.401   4.153   4.514 -0.4161  0.2149 -0.7054
 2427THY    CA160653   3.597   4.152   4.518 -0.3220 -1.1504 -0.7396
 2427THY    CA260654   3.707   4.215   4.455  0.4669 -0.4366 -0.6382
 2427THY    CP160655   3.699   4.277   4.315  0.1324  0.5469 -0.1176
 2427THY    HP160656   3.593   4.270   4.286 -0.1784 -1.2072  1.2985
 2427THY    CP260657   3.739   4.424   4.307 -1.0833 -0.1089 -0.6345
 2427THY    HP260658   3.726   4.467   4.207  0.6757  1.3659 -0.2911
 2427THY    HP360659   3.676   4.484   4.373  1.3642  1.6071  0.3036
 2427THY    HP460660   3.845   4.444   4.326 -0.2930 -2.5578 -1.9876
 2427THY    CP360661   3.766   4.198   4.208  0.4205 -0.7941  0.0683
 2427THY    HP560662   3.735   4.229   4.108  0.9811 -0.9837 -0.1705
 2427THY    HP660663   3.874   4.220   4.214  0.2756 -0.0071 -0.1495
 2427THY    HP760664   3.756   4.093   4.241  2.1069 -1.7123 -2.0744
 2427THY    CA360665   3.837   4.218   4.520  2.1250 -0.2598 -0.0134
 2427THY    HA360666   3.914   4.275   4.468  1.2942  0.5275 -0.4195
 2427THY    CA460667   3.850   4.176   4.650  0.4127  0.1753  0.2157
 2427THY    HA460668   3.947   4.174   4.699 -0.4045 -1.4658  1.8853
 2427THY    CA560669   3.737   4.114   4.717  0.0731  0.1503 -0.1574
 2427THY    CM160670   3.754   4.049   4.856  0.0549 -0.3007 -0.5214
 2427THY    HM160671   3.842   4.085   4.911  0.6233  1.4300 -2.4477
 2427THY    HM260672   3.667   4.070   4.920  0.5355 -2.3794  0.9314
 2427THY    HM360673   3.777   3.943   4.845 -0.1466 -0.2102 -2.0044
 2427THY    CA660674   3.613   4.109   4.646 -0.8370 -0.1316  0.1988
 2427THY    HA660675   3.531   4.045   4.677 -0.9500 -1.4371 -2.4753
 2428THY      O60676   5.385   0.916   7.232  0.2243 -0.1424  0.3912
 2428THY     HO60677   5.364   0.857   7.158 -0.8472 -0.1336  0.6825
 2428THY    CA160678   5.367   0.875   7.361  0.3496  1.0515  0.4631
 2428THY    CA260679   5.394   0.962   7.472  0.4792 -0.1728  0.0063
 2428THY    CP160680   5.432   1.106   7.440 -0.7115  0.2671  0.2490
 2428THY    HP160681   5.441   1.118   7.332  1.4118  0.0516  0.3616
 2428THY    CP260682   5.317   1.199   7.489  0.5018  0.1181  0.1485
 2428THY    HP260683   5.223   1.151   7.459  0.4581  0.4227 -0.1994
 2428THY    HP360684   5.318   1.229   7.595  2.0745  3.3691 -0.6711
 2428THY    HP460685   5.329   1.293   7.435  1.7634  1.7900  3.1263
 2428THY    CP360686   5.563   1.141   7.497 -0.8072 -0.4574 -0.3235
 2428THY    HP560687   5.643   1.068   7.480  0.2916 -0.1231  2.7862
 2428THY    HP660688   5.587   1.240   7.457 -1.9826 -0.5812 -1.4083
 2428THY    HP760689   5.555   1.154   7.605 -2.6813  0.1460 -0.5166
 2428THY    CA360690   5.389   0.918   7.606 -0.1872 -0.6392  0.4446
 2428THY    HA360691   5.428   0.966   7.696  1.0462 -0.8857  0.0586
 2428THY    CA460692   5.350   0.785   7.628  0.6534  0.7181 -0.6127
 2428THY    HA460693   5.348   0.750   7.731  2.5451  0.5463 -0.6034
 2428THY    CA560694   5.337   0.693   7.513  0.3317 -0.2917 -0.8151
 2428THY    CM160695   5.307   0.547   7.537 -0.3203 -0.8805  0.3399
 2428THY    HM160696   5.400   0.492   7.515  1.5259  2.0116  0.3552
 2428THY    HM260697   5.248   0.531   7.628  1.0735 -0.9717  1.2592
 2428THY    HM360698   5.241   0.504   7.461  2.9972  0.1082 -3.4395
 2428THY    CA660699   5.341   0.740   7.381 -0.5372  0.1165  0.1051
 2428THY    HA660700   5.330   0.666   7.301 -0.6620 -1.3939  1.4606
 2429THY      O60701   1.704   0.043   8.331 -0.2261  0.0158 -0.0196
 2429THY     HO60702   1.763   0.015   8.259  0.6407  1.4199  0.1113
 2429THY    CA160703   1.622   0.131   8.265 -0.0722  0.2867 -0.3262
 2429THY    CA260704   1.528   0.205   8.328  0.2498 -0.1256  0.2690
 2429THY    CP160705   1.518   0.207   8.480  0.0792  0.0753 -0.3108
 2429THY    HP160706   1.556   0.116   8.528 -2.2116 -0.6153  0.3322
 2429THY    CP260707   1.593   0.336   8.533  0.6157 -0.0839  0.8416
 2429THY    HP260708   1.603   0.338   8.642  1.4616  3.2952  0.8055
 2429THY    HP360709   1.695   0.337   8.493  1.0663  0.6232  1.9706
 2429THY    HP460710   1.545   0.429   8.502  0.7617  0.4191  2.0885
 2429THY    CP360711   1.375   0.212   8.539 -0.0285  0.1237 -0.6687
 2429THY    HP560712   1.394   0.166   8.637  2.0747 -0.3900 -1.2546
 2429THY    HP660713   1.328   0.311   8.535  0.3278  0.3015 -0.4939
 2429THY    HP760714   1.322   0.139   8.477 -0.2982  1.4055 -1.9932
 2429THY    CA360715   1.440   0.291   8.251 -0.4741  0.8516  0.2265
 2429THY    HA360716   1.365   0.353   8.299 -2.2620 -2.0501  1.4325
 2429THY    CA460717   1.457   0.306   8.117  0.0384  0.0240  0.7311
 2429THY    HA460718   1.395   0.372   8.057  2.0163 -0.9870 -2.7492
 2429THY    CA560719   1.553   0.224   8.050 -0.0489 -0.3159  0.0494
 2429THY    CM160720   1.571   0.248   7.905  0.1305 -0.1437  0.9455
 2429THY    HM160721   1.650   0.182   7.865 -0.4071 -1.8155  2.5082
 2429THY    HM260722   1.477   0.222   7.854  1.8768 -2.1818 -1.5548
 2429THY    HM360723   1.606   0.351   7.889 -2.3088  0.2661 -3.4627
 2429THY    CA660724   1.628   0.136   8.124 -0.3087  0.3668  0.4483
 2429THY    HA660725   1.695   0.073   8.066 -1.3355 -0.3308 -0.0266
 2430THY      O60726   4.099   5.918   6.909  0.3522 -0.0790 -0.4850
 2430THY     HO60727   4.184   5.956   6.938  1.0197 -1.8871  0.0693
 2430THY    CA160728   4.120   5.786   6.914  0.4237 -0.3688  0.5637
 2430THY    CA260729   4.020   5.700   6.857 -1.1481 -0.1660 -0.1127
 2430THY    CP160730   3.877   5.757   6.824 -0.1075 -0.6818  0.5319
 2430THY    HP160731   3.871   5.865   6.835  1.0059 -0.6872  1.3364
 2430THY    CP260732   3.851   5.740   6.674 -0.4821  0.1269 -0.3702
 2430THY    HP260733   3.943   5.766   6.620  0.6285 -1.3346  0.7453
 2430THY    HP360734   3.826   5.635   6.656  1.7177 -0.6423  0.6753
 2430THY    HP460735   3.771   5.797   6.625 -0.5321 -1.0548 -1.7443
 2430THY    CP360736   3.769   5.691   6.912 -0.5222 -0.4096 -0.4198
 2430THY    HP560737   3.766   5.582   6.924  2.2223 -0.3956  1.1622
 2430THY    HP660738   3.775   5.726   7.016 -0.8367  1.5464 -1.0312
 2430THY    HP760739   3.667   5.718   6.884 -1.4822 -0.2781  2.8141
 2430THY    CA360740   4.056   5.559   6.835  0.4054  0.1446  0.2279
 2430THY    HA360741   3.988   5.487   6.790 -1.3335  2.3452 -0.8130
 2430THY    CA460742   4.179   5.516   6.880 -0.4502  0.2189  0.2017
 2430THY    HA460743   4.209   5.412   6.874  0.6061  0.5101  0.1345
 2430THY    CA560744   4.270   5.605   6.936 -0.5193 -0.0653 -0.4267
 2430THY    CM160745   4.402   5.549   6.983 -0.5088 -0.3658  0.2378
 2430THY    HM160746   4.475   5.624   6.951 -0.2701 -0.8905 -0.4687
 2430THY    HM260747   4.407   5.531   7.091  0.6482  0.6619  0.3801
 2430THY    HM360748   4.437   5.458   6.934  0.3204 -0.1521  0.4268
 2430THY    CA660749   4.242   5.739   6.952 -0.0979 -0.3552  0.3218
 2430THY    HA660750   4.312   5.818   6.978 -1.3638  0.7009  0.6515
 2431THY      O60751   7.989   8.352   2.937 -0.4625 -0.0957 -0.1894
 2431THY     HO60752   8.028   8.275   2.893 -0.4260  0.0668 -0.4450
 2431THY    CA160753   8.041   8.348   3.065 -0.5644 -0.0827 -0.3100
 2431THY    CA260754   8.035   8.467   3.150 -0.4658  0.5550  0.3625
 2431THY    CP160755   7.976   8.593   3.093 -0.1790 -0.1196 -0.8118
 2431THY    HP160756   7.973   8.585   2.984  1.8270 -0.7365 -0.8695
 2431THY    CP260757   7.825   8.613   3.143  0.3516 -0.3726  0.1114
 2431THY    HP260758   7.781   8.703   3.100 -0.4377 -1.6231 -1.8591
 2431THY    HP360759   7.761   8.528   3.117  2.3886 -1.7235 -0.8089
 2431THY    HP460760   7.826   8.635   3.250  1.1866 -1.9917  0.4837
 2431THY    CP360761   8.060   8.723   3.123  0.5343  0.1500  0.4459
 2431THY    HP560762   8.019   8.769   3.213  0.1340  0.0546  0.3130
 2431THY    HP660763   8.166   8.693   3.128  0.0659 -1.4568  1.5282
 2431THY    HP760764   8.051   8.783   3.032 -0.5531 -0.8189 -0.1034
 2431THY    CA360765   8.086   8.460   3.277  0.1501 -0.7076 -0.8916
 2431THY    HA360766   8.074   8.543   3.345 -0.6127  0.2582 -2.1823
 2431THY    CA460767   8.141   8.347   3.321 -0.7662  0.4863  0.6937
 2431THY    HA460768   8.190   8.344   3.418 -1.3200  1.6358  1.0313
 2431THY    CA560769   8.165   8.239   3.239  0.8166  0.1082 -0.0933
 2431THY    CM160770   8.246   8.120   3.290  0.3994 -0.2400  0.4073
 2431THY    HM160771   8.353   8.119   3.267  0.7553  0.2496  1.8932
 2431THY    HM260772   8.233   8.104   3.398  0.8162 -0.4992  0.4196
 2431THY    HM360773   8.206   8.031   3.240 -0.6471  0.5550 -0.2153
 2431THY    CA660774   8.108   8.235   3.111  0.3533 -0.4806 -0.0998
 2431THY    HA660775   8.126   8.147   3.051  2.3145  0.7129 -1.3951
 2432THY      O60776   7.745   7.419   0.396 -0.0165  0.8817 -0.2281
 2432THY     HO60777   7.816   7.472   0.357  0.2364  0.1981 -0.7186
 2432THY    CA160778   7.724   7.320   0.306 -0.5282  0.6334 -0.5429
 2432THY    CA260779   7.638   7.339   0.196  0.7633  0.6137  0.6193
 2432THY    CP160780   7.557   7.473   0.182 -0.4847 -0.2927 -0.2867
 2432THY    HP160781   7.557   7.529   0.277 -1.5358  0.2119 -0.5644
 2432THY    CP260782   7.610   7.562   0.068  0.1115  0.4402  0.0263
 2432THY    HP260783   7.548   7.545  -0.021 -1.3829  0.6463  0.9782
 2432THY    HP360784   7.596   7.665   0.103 -0.5404 -0.5451  2.9429
 2432THY    HP460785   7.718   7.552   0.053 -0.0835  0.6813 -1.8429
 2432THY    CP360786   7.408   7.441   0.163  0.1807 -0.3590 -0.9145
 2432THY    HP560787   7.390   7.391   0.067  0.1630 -2.0659 -0.0483
 2432THY    HP660788   7.384   7.377   0.248 -0.6767  0.5059 -0.4906
 2432THY    HP760789   7.357   7.538   0.169  1.8481  0.4696  1.3293
 2432THY    CA360790   7.640   7.251   0.085 -0.1303  0.3922 -0.2158
 2432THY    HA360791   7.569   7.257   0.003 -0.0297 -2.7169 -0.6463
 2432THY    CA460792   7.710   7.129   0.098  0.4407 -0.1642  0.4409
 2432THY    HA460793   7.700   7.062   0.013 -0.9821  1.1517 -0.4925
 2432THY    CA560794   7.789   7.105   0.206  0.6042  0.1978  0.7015
 2432THY    CM160795   7.857   6.966   0.219  0.3473  0.1972  0.4678
 2432THY    HM160796   7.938   6.947   0.147  1.6842  1.8660  1.4525
 2432THY    HM260797   7.885   6.950   0.324 -0.3916 -0.3466  0.5887
 2432THY    HM360798   7.791   6.881   0.202  4.4116 -3.2066 -0.0399
 2432THY    CA660799   7.807   7.208   0.300 -0.0118  0.7305 -0.1248
 2432THY    HA660800   7.876   7.185   0.381  0.4204 -1.3248 -1.0253
 2433THY      O60801   9.496   0.117   2.740  0.1342  0.3325  0.2479
 2433THY     HO60802   9.561   0.054   2.776  0.5236  0.6194  0.0509
 2433THY    CA160803   9.556   0.191   2.648  0.8308  0.0596 -0.5348
 2433THY    CA260804   9.481   0.285   2.570  0.4901  0.4841  1.6004
 2433THY    CP160805   9.328   0.293   2.605  0.0336 -0.3940  1.1147
 2433THY    HP160806   9.292   0.192   2.629  1.6240 -1.2884 -0.0329
 2433THY    CP260807   9.317   0.390   2.724  0.5138  0.3148  0.0708
 2433THY    HP260808   9.215   0.428   2.739  0.6363  0.6659  0.0337
 2433THY    HP360809   9.355   0.335   2.810  1.1037 -0.5193 -0.7056
 2433THY    HP460810   9.372   0.485   2.712 -0.2578  0.9574  1.4342
 2433THY    CP360811   9.244   0.352   2.489  0.5875 -0.2917  0.6392
 2433THY    HP560812   9.143   0.381   2.520  0.2267  2.4410 -2.4821
 2433THY    HP660813   9.280   0.446   2.444  0.3417 -0.1669  0.6993
 2433THY    HP760814   9.220   0.278   2.411 -3.0936  0.4709  0.8348
 2433THY    CA360815   9.544   0.357   2.463 -0.3845  0.0068 -0.0856
 2433THY    HA360816   9.492   0.420   2.391  1.7452  1.2299 -0.6637
 2433THY    CA460817   9.685   0.345   2.442 -0.1541  0.4475  0.4252
 2433THY    HA460818   9.739   0.400   2.366  1.3192 -1.4209  0.0501
 2433THY    CA560819   9.757   0.259   2.532  0.1183  0.4054  0.1559
 2433THY    CM160820   9.905   0.244   2.509 -0.3727  0.2363 -0.4655
 2433THY    HM160821   9.924   0.154   2.451  2.1440  0.2365  0.2551
 2433THY    HM260822   9.935   0.329   2.446 -1.9973  0.1191 -1.4732
 2433THY    HM360823   9.953   0.246   2.607 -1.5993 -0.9766  0.1992
 2433THY    CA660824   9.693   0.172   2.619  0.3871 -0.1990 -0.0886
 2433THY    HA660825   9.751   0.095   2.670  1.1230 -2.1522 -3.5219
 2434THY      O60826   4.074   3.759   6.388  0.6049 -0.2446  0.0413
 2434THY     HO60827   4.056   3.785   6.296  0.5249 -2.0455 -0.4932
 2434THY    CA160828   4.183   3.672   6.381  0.9637  0.0310 -0.3870
 2434THY    CA260829   4.253   3.626   6.496 -0.1573 -0.1695  0.5954
 2434THY    CP160830   4.205   3.646   6.632 -0.8969 -0.3174 -1.0596
 2434THY    HP160831   4.131   3.727   6.640  0.8544  1.5909 -2.9176
 2434THY    CP260832   4.142   3.515   6.689 -0.0411 -0.3104  0.1551
 2434THY    HP260833   4.099   3.530   6.789  0.4525  1.9144  0.0828
 2434THY    HP360834   4.065   3.490   6.614  0.5710  0.9698 -0.9398
 2434THY    HP460835   4.218   3.436   6.685 -0.5185 -0.7933  0.4929
 2434THY    CP360836   4.317   3.686   6.720 -0.7107  0.9107 -0.0087
 2434THY    HP560837   4.366   3.777   6.683 -1.3548  0.7530 -1.2862
 2434THY    HP660838   4.268   3.723   6.811 -1.9758  0.7506 -0.6133
 2434THY    HP760839   4.388   3.610   6.754 -0.7464  0.9869  0.2390
 2434THY    CA360840   4.371   3.540   6.477  0.4405 -0.0289 -0.6882
 2434THY    HA360841   4.422   3.499   6.563  0.1441 -0.6549 -0.8099
 2434THY    CA460842   4.406   3.505   6.342  0.0399 -0.3009 -0.1814
 2434THY    HA460843   4.500   3.452   6.331  0.9239  1.2592 -0.5409
 2434THY    CA560844   4.334   3.546   6.237  0.5477 -0.1374 -0.1185
 2434THY    CM160845   4.381   3.523   6.100  0.1530 -0.5223  0.9031
 2434THY    HM160846   4.302   3.471   6.045 -2.1381  0.6374  2.9138
 2434THY    HM260847   4.404   3.614   6.045 -1.0359 -0.7537 -0.0275
 2434THY    HM360848   4.458   3.446   6.085 -1.3497 -1.8860 -0.1540
 2434THY    CA660849   4.224   3.636   6.256 -0.6416  0.5394 -0.2860
 2434THY    HA660850   4.176   3.675   6.167 -2.6527  2.1598  1.4045
 2435THY      O60851   9.728   3.981   2.922  0.3508  0.4127 -0.2777
 2435THY     HO60852   9.779   3.914   2.971 -0.8738 -0.7499 -0.5229
 2435THY    CA160853   9.681   4.071   3.013 -0.2945  0.3313 -0.0113
 2435THY    CA260854   9.551   4.122   2.999  0.2682  0.3500  0.1455
 2435THY    CP160855   9.463   4.087   2.875  0.8391  0.2998  0.1811
 2435THY    HP160856   9.492   3.992   2.828 -1.3642  0.0044 -0.7276
 2435THY    CP260857   9.316   4.062   2.915  0.3670 -0.5217  0.4728
 2435THY    HP260858   9.299   3.976   2.981  0.8664 -1.1898 -0.2397
 2435THY    HP360859   9.274   4.154   2.956 -1.5144 -0.7045 -0.9277
 2435THY    HP460860   9.255   4.042   2.826  1.5230 -0.4143 -0.3743
 2435THY    CP360861   9.464   4.199   2.776  0.1774  0.0551  0.4458
 2435THY    HP560862   9.567   4.221   2.747 -0.2306  1.1476 -0.2358
 2435THY    HP660863   9.404   4.196   2.685 -0.3388 -1.2114  0.8013
 2435THY    HP760864   9.432   4.293   2.823 -2.2416 -0.3628 -0.2281
 2435THY    CA360865   9.499   4.208   3.100 -0.2761 -0.4116 -0.3017
 2435THY    HA360866   9.395   4.239   3.097 -0.4790 -0.8802  1.1835
 2435THY    CA460867   9.573   4.244   3.210  1.5527 -0.0942 -0.9486
 2435THY    HA460868   9.540   4.317   3.284  1.2351 -1.4609  0.2985
 2435THY    CA560869   9.697   4.180   3.228  0.7094 -0.0681  0.4037
 2435THY    CM160870   9.759   4.194   3.365  0.5229  0.0068 -0.1782
 2435THY    HM160871   9.795   4.296   3.385  1.1610  0.2811 -2.4686
 2435THY    HM260872   9.687   4.164   3.442  2.3512  0.2130  1.6882
 2435THY    HM360873   9.833   4.114   3.367  0.4926 -0.0271 -0.4297
 2435THY    CA660874   9.752   4.092   3.126 -0.6526  0.0462  0.0828
 2435THY    HA660875   9.846   4.039   3.143 -0.2417  1.2251  1.7731
 2436THY      O60876   3.669   4.441   3.493 -0.0404 -0.6910 -0.0659
 2436THY     HO60877   3.597   4.457   3.430 -0.1412  0.6687  0.3614
 2436THY    CA160878   3.744   4.360   3.429  0.2891 -0.0956  0.8134
 2436THY    CA260879   3.877   4.339   3.470 -0.5325  0.9418 -0.1548
 2436THY    CP160880   3.930   4.413   3.592  0.3851  0.6164 -0.4204
 2436THY    HP160881   3.842   4.447   3.648 -0.4541  0.3781 -1.5569
 2436THY    CP260882   4.001   4.323   3.685 -0.9406  0.1468  0.7055
 2436THY    HP260883   3.930   4.241   3.699 -2.0614  0.6279 -1.6219
 2436THY    HP360884   4.093   4.285   3.639 -1.6418 -0.5583 -0.1446
 2436THY    HP460885   4.019   4.371   3.782  0.0155 -1.1980  1.2252
 2436THY    CP360886   4.013   4.540   3.554  0.1378 -0.1074  0.6537
 2436THY    HP560887   4.077   4.571   3.637  0.9624 -0.6996  0.2547
 2436THY    HP660888   4.087   4.507   3.480 -0.1247  0.3265  0.1985
 2436THY    HP760889   3.961   4.625   3.508  0.1970  0.7799  2.1857
 2436THY    CA360890   3.955   4.258   3.390 -0.4218  0.5659  0.7390
 2436THY    HA360891   4.060   4.244   3.411 -0.1529 -0.8654 -1.2416
 2436THY    CA460892   3.902   4.198   3.278 -0.5377  0.1218  0.7431
 2436THY    HA460893   3.963   4.132   3.218 -3.6352 -1.9093 -0.3621
 2436THY    CA560894   3.769   4.215   3.245 -0.7026 -0.2652 -0.2489
 2436THY    CM160895   3.714   4.150   3.121  0.0365 -1.1572 -0.2528
 2436THY    HM160896   3.626   4.091   3.150 -1.8067  2.2671  1.7404
 2436THY    HM260897   3.661   4.210   3.045  0.8192 -1.1240 -0.7832
 2436THY    HM360898   3.778   4.079   3.067 -0.1314 -1.3104 -0.2514
 2436THY    CA660899   3.690   4.297   3.321  0.2734  0.3985  0.5086
 2436THY    HA660900   3.585   4.303   3.294  0.1036 -0.2418  1.0031
 2437THY      O60901   0.605   1.708   4.786  0.4491  0.1395 -0.5151
 2437THY     HO60902   0.697   1.707   4.755  0.6352  0.2456  0.0217
 2437THY    CA160903   0.605   1.781   4.896 -0.3334 -0.4049 -0.2314
 2437THY    CA260904   0.483   1.811   4.969 -0.1759  0.3117  0.8001
 2437THY    CP160905   0.351   1.753   4.924 -0.1036 -0.3855  0.2284
 2437THY    HP160906   0.338   1.763   4.815  1.3483  2.2702  0.2124
 2437THY    CP260907   0.338   1.601   4.957  0.5402  0.1037 -0.3869
 2437THY    HP260908   0.418   1.542   4.911 -0.7256 -1.2704 -0.9277
 2437THY    HP360909   0.356   1.595   5.065 -0.6488 -0.1765 -0.1905
 2437THY    HP460910   0.243   1.562   4.918  0.7616  0.6117 -1.4592
 2437THY    CP360911   0.223   1.825   4.974 -0.7016 -0.2579  0.1695
 2437THY    HP560912   0.214   1.810   5.082  0.6240  0.6195  0.4217
 2437THY    HP660913   0.238   1.933   4.959  0.4215  0.4364  4.7609
 2437THY    HP760914   0.130   1.787   4.930 -1.1340  1.1807 -0.2182
 2437THY    CA360915   0.499   1.885   5.092  0.1024 -0.4463 -0.3871
 2437THY    HA360916   0.413   1.899   5.158 -0.6098 -0.5492 -1.2662
 2437THY    CA460917   0.626   1.933   5.125  0.3020 -0.1918 -0.4306
 2437THY    HA460918   0.635   2.004   5.206  1.8256 -0.7919 -0.0405
 2437THY    CA560919   0.738   1.915   5.044  0.2065 -0.6133  0.6268
 2437THY    CM160920   0.876   1.963   5.085 -0.5568  0.3343  0.7024
 2437THY    HM160921   0.921   1.996   4.991 -2.5223 -0.4731 -0.6005
 2437THY    HM260922   0.879   2.033   5.169  0.5961  0.3327  0.6681
 2437THY    HM360923   0.925   1.875   5.127  0.7902  0.0202 -1.3874
 2437THY    CA660924   0.728   1.833   4.933 -0.4228  0.0597  0.3986
 2437THY    HA660925   0.813   1.792   4.880  0.3283 -1.3084  2.5526
 2438THY      O60926   9.669   6.331   8.764  0.6499 -0.2071  0.0296
 2438THY     HO60927   9.650   6.260   8.701 -1.3013  0.2193  0.0948
 2438THY    CA160928   9.804   6.355   8.758 -0.3813 -0.1394  0.5080
 2438THY    CA260929   9.866   6.464   8.826 -0.5059 -0.7040  0.3445
 2438THY    CP160930   9.774   6.555   8.910 -0.4096  0.0869  0.4823
 2438THY    HP160931   9.677   6.508   8.928 -0.2938  0.1776  1.3832
 2438THY    CP260932   9.840   6.569   9.054  1.0567 -0.3966  0.8190
 2438THY    HP260933   9.847   6.473   9.106 -1.3644 -0.3902  1.2383
 2438THY    HP360934   9.931   6.630   9.048 -0.6217  2.1980  0.1964
 2438THY    HP460935   9.757   6.618   9.107  0.5823 -0.9954  0.6409
 2438THY    CP360936   9.746   6.696   8.842  0.1221 -0.3828  0.1024
 2438THY    HP560937   9.692   6.702   8.747  1.6667 -0.3059 -0.8134
 2438THY    HP660938   9.685   6.754   8.911  1.9298 -0.4229  1.8118
 2438THY    HP760939   9.842   6.749   8.832 -0.3050  0.7669  1.7986
 2438THY    CA360940  10.008   6.480   8.814 -0.1042  0.2111 -0.0577
 2438THY    HA360941  10.055   6.566   8.862  1.1012  0.3904 -1.4869
 2438THY    CA460942  10.075   6.387   8.727  0.8365 -0.0620  0.0451
 2438THY    HA460943  10.183   6.377   8.722  0.6418 -2.6369 -0.5970
 2438THY    CA560944  10.005   6.288   8.660 -0.5256  0.5598  0.0719
 2438THY    CM160945  10.079   6.178   8.577 -0.5381 -0.4435  0.2870
 2438THY    HM160946  10.068   6.219   8.476 -0.8550 -3.1476 -0.8855
 2438THY    HM260947  10.182   6.161   8.608 -0.8560 -0.3192  1.4454
 2438THY    HM360948  10.031   6.079   8.582 -1.6825  0.1288  1.1808
 2438THY    CA660949   9.872   6.270   8.677 -0.0369  0.5994  0.1560
 2438THY    HA660950   9.815   6.189   8.633  1.4367 -1.2774  1.5207
 2439THY      O60951   0.334   0.245   1.582  0.3451 -0.0856  0.0987
 2439THY     HO60952   0.388   0.165   1.590 -0.6377 -0.8926 -1.1128
 2439THY    CA160953   0.209   0.206   1.568 -0.7990 -0.1599  0.6240
 2439THY    CA260954   0.107   0.284   1.618  1.0117  1.0629 -0.2171
 2439THY    CP160955   0.137   0.411   1.701  0.4572  0.2007 -0.4272
 2439THY    HP160956   0.237   0.445   1.669  0.9113 -1.1923 -0.5806
 2439THY    CP260957   0.051   0.521   1.656  0.0751 -0.2190  0.1419
 2439THY    HP260958   0.078   0.616   1.703 -1.9242 -0.1975  1.3661
 2439THY    HP360959   0.070   0.526   1.548 -1.7322 -0.8155 -0.2558
 2439THY    HP460960  -0.055   0.503   1.680 -0.2733 -0.8667 -1.7303
 2439THY    CP360961   0.137   0.382   1.856  0.5117 -0.4849 -0.3883
 2439THY    HP560962   0.202   0.294   1.862  1.2621  0.0556 -0.3281
 2439THY    HP660963   0.179   0.458   1.923  0.3551 -0.4178 -0.3667
 2439THY    HP760964   0.032   0.371   1.883  0.4798 -0.7375 -0.6158
 2439THY    CA360965  -0.026   0.230   1.599 -0.2897  0.7959  0.1079
 2439THY    HA360966  -0.116   0.278   1.636 -1.2459  0.7489 -2.0020
 2439THY    CA460967  -0.047   0.115   1.521 -0.0119  0.3455  0.0692
 2439THY    HA460968  -0.141   0.063   1.511  0.3886 -0.4963  0.5101
 2439THY    CA560969   0.062   0.050   1.460 -0.2890  0.0271  0.1983
 2439THY    CM160970   0.045  -0.079   1.386  0.0344 -0.3821 -0.1224
 2439THY    HM160971   0.100  -0.155   1.443 -0.9986 -1.0981 -0.0425
 2439THY    HM260972  -0.057  -0.117   1.400 -0.1432  0.1127 -0.0609
 2439THY    HM360973   0.077  -0.078   1.281 -1.9589 -0.0800 -0.7713
 2439THY    CA660974   0.189   0.090   1.490 -0.7003 -0.2921  0.4263
 2439THY    HA660975   0.271   0.035   1.445 -0.0691  0.1832  0.9796
 2440THY      O60976   3.971   3.630   3.714  0.2380  0.0762  0.7164
 2440THY     HO60977   3.989   3.546   3.668  0.5982 -0.4598  1.7987
 2440THY    CA160978   4.062   3.627   3.815  0.6633 -0.0161 -0.8657
 2440THY    CA260979   4.113   3.743   3.869  0.3023  0.4233 -0.6785
 2440THY    CP160980   4.063   3.886   3.820  0.0896  0.6932  0.1335
 2440THY    HP160981   3.975   3.882   3.754  0.0095  2.0317  0.1209
 2440THY    CP260982   4.012   3.971   3.928  0.4073 -0.8234 -0.1361
 2440THY    HP260983   3.936   3.920   3.990  1.0799 -2.5256 -0.6706
 2440THY    HP360984   4.088   4.011   3.997 -1.4833 -1.1356  2.2974
 2440THY    HP460985   3.955   4.057   3.891  0.0043 -0.9980  0.0685
 2440THY    CP360986   4.167   3.966   3.744  0.5638  0.0534 -0.5792
 2440THY    HP560987   4.203   3.907   3.659 -1.9468  0.8494 -2.2963
 2440THY    HP660988   4.127   4.067   3.731  0.6601  0.1845  0.1222
 2440THY    HP760989   4.256   3.990   3.804 -0.0544  1.9668 -0.3634
 2440THY    CA360990   4.201   3.735   3.980 -0.3620  0.2930  0.5951
 2440THY    HA360991   4.239   3.826   4.026 -1.1327  0.6801  0.4742
 2440THY    CA460992   4.232   3.610   4.032 -0.3232 -0.0213 -0.8005
 2440THY    HA460993   4.295   3.597   4.120 -1.1944 -0.9739 -0.3035
 2440THY    CA560994   4.180   3.499   3.980  0.0116 -0.1304 -0.7610
 2440THY    CM160995   4.189   3.365   4.046 -0.0733  0.2915  0.4686
 2440THY    HM160996   4.149   3.286   3.982 -0.3124  0.5104  0.3485
 2440THY    HM260997   4.287   3.342   4.089  0.5807  0.5327 -0.8484
 2440THY    HM360998   4.113   3.352   4.125 -0.8332 -2.0596 -0.5539
 2440THY    CA660999   4.101   3.509   3.869  0.1329  0.0251  0.4717
 2440THY    HA661000   4.057   3.417   3.831  1.3054  0.1237 -1.2307
 2441THY      O61001   0.798   3.635   6.809  0.2708 -0.1373 -0.2808
 2441THY     HO61002   0.869   3.684   6.764  2.2525 -2.7623 -0.2686
 2441THY    CA161003   0.860   3.524   6.851 -0.1210  0.8085 -0.4487
 2441THY    CA261004   0.802   3.430   6.948  1.0155 -0.0362  0.0920
 2441THY    CP161005   0.659   3.462   7.002 -0.1484  0.4005  0.0597
 2441THY    HP161006   0.589   3.480   6.919 -1.9676 -2.6152  0.7569
 2441THY    CP261007   0.588   3.346   7.062 -0.5485 -0.4849  0.4707
 2441THY    HP261008   0.644   3.295   7.141 -1.0829  1.5999  2.2739
 2441THY    HP361009   0.487   3.371   7.097 -0.1906 -0.4879  1.5366
 2441THY    HP461010   0.575   3.273   6.980  1.0059  0.2621 -0.4964
 2441THY    CP361011   0.652   3.578   7.095 -0.2222 -0.4546  0.0499
 2441THY    HP561012   0.728   3.657   7.093 -1.3538  0.6619 -1.4882
 2441THY    HP661013   0.550   3.617   7.082  0.7527  2.1304 -0.3935
 2441THY    HP761014   0.647   3.542   7.198 -4.1374  1.2514  0.6260
 2441THY    CA361015   0.880   3.319   6.994  0.1544  0.3298 -0.0443
 2441THY    HA361016   0.844   3.253   7.073 -0.3841  2.0013  1.1675
 2441THY    CA461017   1.007   3.312   6.945 -0.4871  0.6471 -0.2365
 2441THY    HA461018   1.066   3.229   6.982  1.2446  1.5817 -0.8068
 2441THY    CA561019   1.066   3.403   6.858 -0.1553 -1.0071  0.2100
 2441THY    CM161020   1.207   3.388   6.813 -0.5648  0.3900 -0.5210
 2441THY    HM161021   1.237   3.285   6.835  1.9834  1.3404  0.8362
 2441THY    HM261022   1.219   3.402   6.704 -1.8006 -0.5857 -0.8085
 2441THY    HM361023   1.278   3.459   6.857 -0.2074  0.9636 -1.9543
 2441THY    CA661024   0.991   3.508   6.816  0.5452 -0.2453  0.3596
 2441THY    HA661025   1.036   3.576   6.743 -3.3915  0.1075 -2.0710
 2442THY      O61026   2.579   4.777   6.074  0.2750 -0.0946 -0.2509
 2442THY     HO61027   2.524   4.827   6.011  0.4053  0.9056  0.4070
 2442THY    CA161028   2.696   4.763   6.006 -0.0189 -0.0757 -0.5975
 2442THY    CA261029   2.825   4.741   6.060 -0.0840 -0.5680  0.5988
 2442THY    CP161030   2.836   4.733   6.217 -0.0579 -0.2367 -0.7074
 2442THY    HP161031   2.741   4.734   6.272  0.0884 -2.5460 -0.2888
 2442THY    CP261032   2.922   4.611   6.264 -0.2377 -0.1078  0.5951
 2442THY    HP261033   2.907   4.536   6.186  0.4172  1.0751 -0.6980
 2442THY    HP361034   3.028   4.639   6.266  0.1295 -0.9825 -2.2401
 2442THY    HP461035   2.897   4.580   6.366  1.4957  0.2015  1.1497
 2442THY    CP361036   2.896   4.867   6.264 -0.4309  0.1946 -0.5467
 2442THY    HP561037   3.003   4.857   6.243 -0.7859  0.0552 -2.5330
 2442THY    HP661038   2.848   4.942   6.200  2.2308  0.9516 -1.7716
 2442THY    HP761039   2.866   4.894   6.366  0.6459  0.9590 -0.4256
 2442THY    CA361040   2.935   4.727   5.973 -0.7767 -0.1614 -0.0237
 2442THY    HA361041   3.034   4.703   6.009 -0.9158 -1.4312 -0.4130
 2442THY    CA461042   2.920   4.722   5.831  0.4165 -0.7171  0.4809
 2442THY    HA461043   3.005   4.703   5.767 -0.3296  0.3949 -0.8774
 2442THY    CA561044   2.789   4.740   5.774 -0.0966 -0.0509  0.0797
 2442THY    CM161045   2.759   4.758   5.629  0.3380  0.1492 -0.5243
 2442THY    HM161046   2.794   4.670   5.574  0.4284  0.9553 -1.7861
 2442THY    HM261047   2.653   4.772   5.605  0.0961  1.3758  1.0618
 2442THY    HM361048   2.818   4.847   5.604  0.5913  0.5271  1.2721
 2442THY    CA661049   2.681   4.761   5.866  0.2269  0.1312  0.5094
 2442THY    HA661050   2.582   4.778   5.826 -0.4239  0.5701  2.1956
 2443THY      O61051   9.295   5.890   5.676 -0.0530 -0.0365  0.0450
 2443THY     HO61052   9.237   5.835   5.620 -0.1118 -0.1555  0.2240
 2443THY    CA161053   9.263   5.849   5.799 -0.3457  0.0243  0.2516
 2443THY    CA261054   9.308   5.922   5.915 -0.8778  0.3974 -0.1704
 2443THY    CP161055   9.395   6.038   5.906 -0.4857  0.3278 -0.0538
 2443THY    HP161056   9.461   6.031   5.819  0.2458  1.8686  0.3349
 2443THY    CP261057   9.296   6.161   5.894 -0.2623  0.4398 -0.3797
 2443THY    HP261058   9.235   6.158   5.803 -0.1977  0.8308 -0.4375
 2443THY    HP361059   9.217   6.162   5.970 -0.7567  1.2419 -0.8951
 2443THY    HP461060   9.343   6.260   5.898 -2.9058  1.7156  2.0429
 2443THY    CP361061   9.502   6.056   6.019 -0.5840  0.6228 -0.7668
 2443THY    HP561062   9.450   6.055   6.116 -2.7159 -0.2864 -1.8718
 2443THY    HP661063   9.568   5.968   6.024 -0.1291  0.7644 -3.3029
 2443THY    HP761064   9.552   6.153   6.009  0.7234  0.3245  1.8069
 2443THY    CA361065   9.263   5.877   6.038  0.2466 -0.1717  0.4409
 2443THY    HA361066   9.287   5.930   6.130  2.7356 -0.6297  0.1064
 2443THY    CA461067   9.173   5.767   6.040  0.2603 -0.0171  0.9407
 2443THY    HA461068   9.144   5.724   6.136 -1.7041 -0.7102  0.0979
 2443THY    CA561069   9.137   5.698   5.927 -0.6369  0.1861 -0.2615
 2443THY    CM161070   9.036   5.593   5.930  0.3312  0.2200  0.4981
 2443THY    HM161071   9.054   5.522   5.848 -0.8768 -3.2013  2.9638
 2443THY    HM261072   9.041   5.535   6.023  0.1098  1.4660  1.3122
 2443THY    HM361073   8.935   5.630   5.911  0.2322 -0.5743 -0.6451
 2443THY    CA661074   9.176   5.741   5.804  0.1656 -0.3041  0.8129
 2443THY    HA661075   9.137   5.693   5.715  1.9052  2.0323 -1.3714
 2444THY      O61076   8.773   1.708   3.826  0.3076 -0.1978  0.0722
 2444THY     HO61077   8.739   1.786   3.872 -3.1026 -0.2193 -2.0705
 2444THY    CA161078   8.839   1.633   3.922 -0.0834  0.1421 -0.5538
 2444THY    CA261079   8.890   1.500   3.892  0.0206  0.1126  0.1277
 2444THY    CP161080   8.880   1.437   3.754 -0.3455 -0.0231  0.2202
 2444THY    HP161081   8.798   1.493   3.708  0.4056  0.9197 -0.0210
 2444THY    CP261082   9.005   1.461   3.664  0.0770  0.3214  0.3308
 2444THY    HP261083   9.015   1.567   3.638  0.6237  0.7417  2.1346
 2444THY    HP361084   9.106   1.436   3.700  1.0110  0.8593 -1.7407
 2444THY    HP461085   8.986   1.395   3.579 -0.0862 -0.3878  0.9100
 2444THY    CP361086   8.831   1.288   3.755 -0.5595 -0.5592 -0.2664
 2444THY    HP561087   8.762   1.271   3.838 -0.7225  2.4001  0.3108
 2444THY    HP661088   8.788   1.258   3.658 -2.5504  2.9862 -0.6520
 2444THY    HP761089   8.919   1.226   3.771  1.4003  1.7370 -1.4384
 2444THY    CA361090   8.958   1.439   3.995 -0.3941  0.2564 -0.6742
 2444THY    HA361091   8.994   1.336   3.992  0.9893  0.5147  2.6874
 2444THY    CA461092   8.977   1.494   4.121 -0.2395 -0.5528 -0.0684
 2444THY    HA461093   9.030   1.433   4.194  1.8439 -0.5720 -1.5191
 2444THY    CA561094   8.938   1.626   4.141  0.1998 -0.0974 -0.1520
 2444THY    CM161095   8.972   1.689   4.273  0.0800 -0.3891 -0.2821
 2444THY    HM161096   9.038   1.776   4.265  0.3521 -0.5436  0.2275
 2444THY    HM261097   8.882   1.725   4.324  1.1917 -1.6028  2.8088
 2444THY    HM361098   9.004   1.607   4.339 -1.5486 -0.5741  0.3272
 2444THY    CA661099   8.869   1.699   4.043  0.1858 -0.3580 -0.5137
 2444THY    HA661100   8.839   1.802   4.056  0.8603  0.1171 -2.3261
 2445THY      O61101   2.230   2.548   6.536 -0.1903  0.0359 -0.1802
 2445THY     HO61102   2.162   2.493   6.578 -0.5103 -1.3149 -2.2983
 2445THY    CA161103   2.315   2.469   6.460 -0.6386 -0.3727 -0.5815
 2445THY    CA261104   2.396   2.532   6.364  0.0609  0.3341  0.2371
 2445THY    CP161105   2.387   2.682   6.330  0.0458  0.4156 -0.0171
 2445THY    HP161106   2.313   2.729   6.396  1.4610  2.2621  0.3377
 2445THY    CP261107   2.512   2.766   6.364 -0.0402  0.2634  0.1568
 2445THY    HP261108   2.486   2.872   6.357 -0.5769  0.4183  3.1862
 2445THY    HP361109   2.550   2.738   6.463  0.1056  0.5799  0.1919
 2445THY    HP461110   2.588   2.741   6.289 -1.0551 -0.1575 -0.7563
 2445THY    CP361111   2.346   2.693   6.179  0.3678 -0.3778 -0.2180
 2445THY    HP561112   2.339   2.800   6.157  1.5048  0.1515  1.7358
 2445THY    HP661113   2.421   2.659   6.106 -0.0189  1.1409 -1.3672
 2445THY    HP761114   2.255   2.633   6.168 -0.4092  0.4214  1.5686
 2445THY    CA361115   2.497   2.455   6.301 -0.5058  0.3520 -1.0548
 2445THY    HA361116   2.568   2.505   6.236  1.8756 -0.4407  0.7806
 2445THY    CA461117   2.512   2.322   6.343 -0.1397  0.0514  0.5321
 2445THY    HA461118   2.584   2.252   6.299 -2.1094 -2.4198  1.0195
 2445THY    CA561119   2.430   2.261   6.440  0.8601 -0.2653  0.4765
 2445THY    CM161120   2.447   2.120   6.483 -0.0899 -0.5737 -0.1041
 2445THY    HM161121   2.348   2.073   6.485 -0.0498 -0.6436  0.3927
 2445THY    HM261122   2.516   2.080   6.408 -1.9892 -0.8939 -1.7659
 2445THY    HM361123   2.486   2.117   6.586 -0.5853 -0.8989  0.0808
 2445THY    CA661124   2.324   2.335   6.493 -0.2466  0.0127 -0.1793
 2445THY    HA661125   2.264   2.288   6.570 -1.1312 -1.2671 -1.6008
 2446THY      O61126   7.130   0.112   3.139 -0.8945  0.0476  0.3151
 2446THY     HO61127   7.182   0.052   3.195 -1.5432 -3.0432 -2.1164
 2446THY    CA161128   7.005   0.075   3.159  0.0533 -0.5595  0.0543
 2446THY    CA261129   6.891   0.142   3.111  0.1796 -0.2664 -0.2321
 2446THY    CP161130   6.905   0.275   3.034 -0.3762  0.4837  0.3827
 2446THY    HP161131   7.002   0.274   2.983 -0.7143 -2.9487 -0.4078
 2446THY    CP261132   6.810   0.297   2.916 -0.2793  0.1658  1.0312
 2446THY    HP261133   6.788   0.205   2.861  1.9727 -0.5089  1.1785
 2446THY    HP361134   6.710   0.328   2.948 -0.9694  1.0573 -1.7013
 2446THY    HP461135   6.856   0.370   2.849  0.5335 -0.4582  0.8932
 2446THY    CP361136   6.903   0.390   3.132 -0.0069  0.1521  0.7172
 2446THY    HP561137   6.929   0.475   3.067 -0.4291  0.3969  0.8614
 2446THY    HP661138   6.806   0.408   3.179 -0.0386 -0.9704  1.1124
 2446THY    HP761139   6.981   0.378   3.207  1.3582 -2.0129 -0.9444
 2446THY    CA361140   6.760   0.100   3.142  0.1206 -0.0530 -0.9282
 2446THY    HA361141   6.666   0.150   3.120 -2.6838 -3.6627  1.6189
 2446THY    CA461142   6.744  -0.021   3.204 -0.0427 -0.0387 -0.0549
 2446THY    HA461143   6.647  -0.064   3.228  0.3381 -0.4241  0.8413
 2446THY    CA561144   6.860  -0.089   3.251 -0.8203  0.4801  0.5049
 2446THY    CM161145   6.835  -0.211   3.333 -0.1015 -0.5239 -0.5051
 2446THY    HM161146   6.731  -0.245   3.335  0.1879 -2.3695 -4.6028
 2446THY    HM261147   6.893  -0.297   3.297 -0.3110 -1.3024  0.9211
 2446THY    HM361148   6.852  -0.181   3.437 -0.1313  1.8090 -1.1195
 2446THY    CA661149   6.987  -0.047   3.224  0.3477 -0.0430 -0.2975
 2446THY    HA661150   7.073  -0.108   3.252  0.8534  0.5244 -0.5997
 2447THY      O61151   8.235   4.251   3.363  0.4588  0.4928 -0.3277
 2447THY     HO61152   8.181   4.291   3.293 -1.7938  2.1533  2.1253
 2447THY    CA161153   8.171   4.277   3.485 -0.0405  0.1437  1.1865
 2447THY    CA261154   8.200   4.213   3.605  0.2957  0.0034 -0.0926
 2447THY    CP161155   8.310   4.113   3.617 -0.8084 -0.3366  0.4237
 2447THY    HP161156   8.352   4.094   3.517 -0.1861  1.1424  0.3791
 2447THY    CP261157   8.425   4.164   3.710 -0.4267  0.2620 -0.7733
 2447THY    HP261158   8.447   4.267   3.680  0.0641  0.5248  0.3986
 2447THY    HP361159   8.385   4.169   3.813  0.6670  0.8093 -0.3600
 2447THY    HP461160   8.520   4.115   3.689  0.1226  1.5385 -1.3333
 2447THY    CP361161   8.270   3.975   3.663  0.4360 -0.1464  0.5029
 2447THY    HP561162   8.243   3.979   3.770  4.0951  1.3376  1.5274
 2447THY    HP661163   8.186   3.938   3.603  1.6288 -0.1963 -1.2006
 2447THY    HP761164   8.351   3.902   3.651  0.1999 -0.3548  0.1822
 2447THY    CA361165   8.130   4.253   3.718  0.0994 -1.2546 -1.0435
 2447THY    HA361166   8.163   4.221   3.816  0.6598  0.6180 -0.5784
 2447THY    CA461167   8.024   4.344   3.706  0.2153  0.5849  0.0862
 2447THY    HA461168   7.969   4.375   3.794 -1.4835 -0.3837 -0.6004
 2447THY    CA561169   7.995   4.409   3.585 -0.5076  0.6306 -0.3147
 2447THY    CM161170   7.892   4.519   3.576 -0.1322  0.2200  0.0808
 2447THY    HM161171   7.798   4.463   3.570  0.1356 -0.5237  2.0394
 2447THY    HM261172   7.891   4.580   3.667 -0.0933  1.7446 -0.9056
 2447THY    HM361173   7.909   4.574   3.482 -0.7231 -3.9813 -2.7665
 2447THY    CA661174   8.070   4.373   3.477 -0.1036  0.3745 -0.5837
 2447THY    HA661175   8.049   4.424   3.383 -0.0060  1.0963 -0.2200
 2448THY      O61176   5.046   7.677   2.766  0.2753 -0.0226 -0.3913
 2448THY     HO61177   5.092   7.654   2.848  0.7672  2.9875  0.3123
 2448THY    CA161178   5.112   7.790   2.725 -0.0409  0.5927 -0.5071
 2448THY    CA261179   5.050   7.885   2.640 -0.9289  0.1958 -0.1149
 2448THY    CP161180   4.901   7.876   2.618  0.8234 -0.0379  0.7048
 2448THY    HP161181   4.860   7.777   2.641  0.1993 -0.1008 -0.5902
 2448THY    CP261182   4.833   7.975   2.721  0.0427  0.2462  0.3241
 2448THY    HP261183   4.855   8.079   2.694  0.8739 -0.4108 -1.7319
 2448THY    HP361184   4.725   7.963   2.714 -0.0869  2.0002 -2.3153
 2448THY    HP461185   4.850   7.952   2.826  2.5183 -1.1374 -0.2829
 2448THY    CP361186   4.857   7.916   2.474 -0.0030  0.2526  0.1328
 2448THY    HP561187   4.878   8.021   2.450  2.9107  0.0621  1.4301
 2448THY    HP661188   4.906   7.854   2.398 -0.3768 -0.7975  0.7273
 2448THY    HP761189   4.747   7.910   2.478 -0.0003  0.7632  1.3183
 2448THY    CA361190   5.137   7.985   2.587 -0.5564  0.3102 -0.4030
 2448THY    HA361191   5.103   8.061   2.518 -1.7092  1.0999  0.9694
 2448THY    CA461192   5.271   7.998   2.630  0.5768  0.0961  0.2541
 2448THY    HA461193   5.330   8.075   2.582 -0.2890  0.7414  0.1919
 2448THY    CA561194   5.323   7.908   2.723 -0.9857 -0.2304 -0.2613
 2448THY    CM161195   5.461   7.923   2.768 -0.0825 -0.2194 -0.3330
 2448THY    HM161196   5.478   7.887   2.870 -1.7831  3.5850  1.4863
 2448THY    HM261197   5.535   7.875   2.702  2.1059 -1.1550  2.5838
 2448THY    HM361198   5.476   8.032   2.773 -0.5081 -0.0277 -2.3599
 2448THY    CA661199   5.244   7.804   2.768 -0.3542 -0.3584 -0.6537
 2448THY    HA661200   5.277   7.735   2.845 -1.4265  1.3551  1.4597
 2449THY      O61201   2.170   9.285   6.164  0.0872 -0.2005  0.6554
 2449THY     HO61202   2.177   9.204   6.111  0.2802  0.5022 -0.4308
 2449THY    CA161203   2.158   9.377   6.067 -0.1153  0.4631  0.0177
 2449THY    CA261204   2.096   9.496   6.089 -0.0451  0.0175  0.0403
 2449THY    CP161205   2.023   9.527   6.223  0.4220  0.1393 -0.8139
 2449THY    HP161206   2.079   9.478   6.304  0.0391  1.2230  0.1272
 2449THY    CP261207   1.999   9.674   6.259 -0.0708  0.3693 -0.0565
 2449THY    HP261208   1.990   9.693   6.367 -1.0623  0.4461 -0.1442
 2449THY    HP361209   2.088   9.724   6.218 -0.0557 -0.1510 -0.6665
 2449THY    HP461210   1.917   9.718   6.202 -1.2109 -1.3243  0.2099
 2449THY    CP361211   1.883   9.460   6.227 -0.1727  0.1270  0.0621
 2449THY    HP561212   1.848   9.470   6.330 -1.4055  1.4745 -0.4450
 2449THY    HP661213   1.817   9.506   6.153  0.1688  0.2378 -0.1771
 2449THY    HP761214   1.894   9.354   6.202  0.5143  0.3321 -0.5423
 2449THY    CA361215   2.076   9.585   5.978 -0.3750 -0.5299  1.0877
 2449THY    HA361216   2.014   9.674   5.991  0.3751 -0.0531  1.5135
 2449THY    CA461217   2.144   9.557   5.853 -0.5701 -0.0223  0.3051
 2449THY    HA461218   2.152   9.636   5.779  1.3008  0.1721  0.6832
 2449THY    CA561219   2.219   9.440   5.845 -0.2883  0.2055 -0.4003
 2449THY    CM161220   2.284   9.395   5.719  0.3812  0.3886  0.3986
 2449THY    HM161221   2.393   9.401   5.708  0.3534  2.1627  0.8121
 2449THY    HM261222   2.255   9.292   5.697 -1.1217  1.1213 -1.2605
 2449THY    HM361223   2.241   9.455   5.638  0.6750 -0.1212 -0.1466
 2449THY    CA661224   2.224   9.353   5.949 -0.0787  0.4831 -0.4432
 2449THY    HA661225   2.287   9.265   5.940 -1.0144 -0.1336 -1.2096
 2450THY      O61226   5.726   8.371   8.146  0.5251 -0.3680 -0.0024
 2450THY     HO61227   5.646   8.323   8.119  0.2085 -1.4099  2.5189
 2450THY    CA161228   5.808   8.281   8.206  0.0279  0.8422  0.4203
 2450THY    CA261229   5.938   8.312   8.244  0.5250 -0.5640 -0.5750
 2450THY    CP161230   5.991   8.452   8.239 -1.0964  0.1202 -0.3103
 2450THY    HP161231   5.952   8.509   8.154  1.2359  0.2713 -1.3521
 2450THY    CP261232   5.954   8.525   8.369  0.8392  0.0336 -0.1195
 2450THY    HP261233   5.987   8.630   8.371 -1.2854  0.7722 -0.8438
 2450THY    HP361234   5.846   8.528   8.390  1.0826  0.0182  1.2124
 2450THY    HP461235   6.000   8.472   8.453  1.1468  0.5041  0.0134
 2450THY    CP361236   6.144   8.468   8.223 -0.6269 -0.2387 -0.3610
 2450THY    HP561237   6.180   8.406   8.139 -0.1208 -1.0859  0.4597
 2450THY    HP661238   6.162   8.576   8.210 -1.5280 -0.0062  0.2383
 2450THY    HP761239   6.212   8.424   8.297 -0.3284 -2.2678 -1.7468
 2450THY    CA361240   6.021   8.214   8.298  0.4847 -0.2735  0.3143
 2450THY    HA361241   6.118   8.234   8.344  0.9852 -0.3541 -0.6787
 2450THY    CA461242   5.971   8.083   8.312 -0.3154  0.7548 -0.5127
 2450THY    HA461243   6.028   8.000   8.352 -0.1563  0.5222 -1.2088
 2450THY    CA561244   5.846   8.052   8.259 -0.2287  0.1139 -0.3603
 2450THY    CM161245   5.794   7.914   8.274  0.1431  0.1930 -0.5227
 2450THY    HM161246   5.699   7.909   8.328  1.1286 -0.2691  1.2490
 2450THY    HM261247   5.768   7.871   8.176 -3.8342  0.7909  0.0895
 2450THY    HM361248   5.862   7.836   8.309  0.6681  0.3266 -1.2306
 2450THY    CA661249   5.762   8.142   8.205 -0.5102 -0.5169  0.6495
 2450THY    HA661250   5.659   8.122   8.179 -0.6695 -0.1927  1.0181
 2451THY      O61251   1.174   5.274   2.268 -0.0283  0.0496 -0.5231
 2451THY     HO61252   1.195   5.216   2.193  0.1905 -0.5565 -0.0076
 2451THY    CA161253   1.087   5.365   2.235  0.6864  0.0049  0.0862
 2451THY    CA261254   1.083   5.487   2.306 -0.0017 -0.1338  0.1971
 2451THY    CP161255   1.185   5.529   2.412  0.3051 -0.9955 -0.1572
 2451THY    HP161256   1.232   5.435   2.443  0.0653 -1.4698 -1.1802
 2451THY    CP261257   1.287   5.616   2.341 -0.6722  0.3914  0.2605
 2451THY    HP261258   1.318   5.556   2.255 -2.6379 -0.9218  0.4087
 2451THY    HP361259   1.262   5.714   2.297  3.3032  0.2814 -2.8558
 2451THY    HP461260   1.378   5.629   2.400 -0.8805  1.9615  0.2714
 2451THY    CP361261   1.118   5.593   2.530  0.5797 -0.6495 -0.0572
 2451THY    HP561262   1.190   5.627   2.605 -1.4245  1.6267  0.9636
 2451THY    HP661263   1.065   5.686   2.506  1.5666  1.0271  3.6285
 2451THY    HP761264   1.045   5.524   2.574  1.3645 -1.7092 -0.3842
 2451THY    CA361265   0.991   5.589   2.261 -0.0944  0.8609 -0.1970
 2451THY    HA361266   1.001   5.693   2.293  1.3762  0.4721  0.7313
 2451THY    CA461267   0.888   5.545   2.180  0.5985  0.6080  0.3061
 2451THY    HA461268   0.806   5.612   2.155 -0.9065 -0.4788  2.0710
 2451THY    CA561269   0.895   5.422   2.111  0.3233 -0.0845 -0.0251
 2451THY    CM161270   0.793   5.377   2.009 -0.2772  0.3208  0.0133
 2451THY    HM161271   0.694   5.389   2.055  0.7168  0.9956  2.0955
 2451THY    HM261272   0.789   5.435   1.916 -0.6629 -0.4763 -0.4815
 2451THY    HM361273   0.802   5.272   1.981 -0.4623  0.6964 -1.5771
 2451THY    CA661274   0.992   5.331   2.142 -0.1873 -0.5066  0.3375
 2451THY    HA661275   0.991   5.233   2.096 -1.9460 -0.1753 -0.3748
 2452THY      O61276   9.651   4.335   8.629 -0.3737  0.1890  0.0431
 2452THY     HO61277   9.736   4.374   8.655 -0.1582  0.1518 -0.5802
 2452THY    CA161278   9.655   4.327   8.494 -0.0189  0.7824  0.6077
 2452THY    CA261279   9.539   4.304   8.417 -0.0871 -0.8536  1.0557
 2452THY    CP161280   9.404   4.287   8.478 -0.0547  0.7507 -0.6011
 2452THY    HP161281   9.407   4.357   8.563  1.7692  0.7608 -0.6275
 2452THY    CP261282   9.292   4.344   8.386  0.2573  0.2805  0.2611
 2452THY    HP261283   9.330   4.432   8.333  2.6897 -2.0423 -2.1474
 2452THY    HP361284   9.269   4.270   8.308 -1.4354  0.6405  0.3822
 2452THY    HP461285   9.208   4.374   8.450 -0.9083  1.2180 -1.6336
 2452THY    CP361286   9.365   4.145   8.534  0.3377 -0.3628 -0.0028
 2452THY    HP561287   9.264   4.150   8.578 -0.4893 -0.3016 -1.8393
 2452THY    HP661288   9.363   4.067   8.458 -3.1032  1.0532 -1.5654
 2452THY    HP761289   9.437   4.114   8.611  0.6895 -3.3189 -1.4109
 2452THY    CA361290   9.552   4.278   8.274  0.7285 -0.4444 -0.2072
 2452THY    HA361291   9.469   4.247   8.212  1.0690 -2.0483  0.0994
 2452THY    CA461292   9.680   4.298   8.216 -0.5661  0.1896  0.3313
 2452THY    HA461293   9.705   4.283   8.112  1.4087  0.7263  0.6752
 2452THY    CA561294   9.789   4.332   8.297 -0.0130 -0.1008  0.3260
 2452THY    CM161295   9.924   4.354   8.234  0.6184  0.1585 -0.4130
 2452THY    HM161296   9.946   4.461   8.230 -1.3926  0.6717  1.0990
 2452THY    HM261297  10.006   4.301   8.284  1.1020  0.1870 -1.1597
 2452THY    HM361298   9.915   4.322   8.130  2.4805  0.5347 -0.7318
 2452THY    CA661299   9.773   4.350   8.435 -0.2460 -0.3221 -0.7683
 2452THY    HA661300   9.863   4.371   8.493  0.7159 -1.5763 -1.7484
 2453THY      O61301   7.889   0.425   7.488 -0.2688 -0.5956 -0.0633
 2453THY     HO61302   7.809   0.395   7.441  0.9803 -1.1868 -1.9064
 2453THY    CA161303   7.959   0.318   7.516 -0.5580 -0.6021  0.7944
 2453THY    CA261304   8.059   0.325   7.616 -1.0086  0.6718  0.1730
 2453THY    CP161305   8.082   0.450   7.698 -0.1974 -0.6465 -1.0980
 2453THY    HP161306   8.046   0.530   7.632 -2.8279 -2.2191 -1.7196
 2453THY    CP261307   7.994   0.471   7.827 -0.0380  0.2168  0.7292
 2453THY    HP261308   8.008   0.389   7.898  1.1211 -1.1689 -1.0341
 2453THY    HP361309   8.018   0.573   7.861 -1.3593  0.9457 -0.4211
 2453THY    HP461310   7.892   0.458   7.787  0.0011 -0.2537  0.7829
 2453THY    CP361311   8.224   0.494   7.730 -0.0403  0.0700  0.4826
 2453THY    HP561312   8.271   0.432   7.807  0.1833  0.6374  0.8075
 2453THY    HP661313   8.272   0.481   7.632 -0.5932 -0.3394  0.2596
 2453THY    HP761314   8.229   0.599   7.761  2.6180  0.3768 -0.6920
 2453THY    CA361315   8.147   0.221   7.628 -0.2065 -0.3551 -0.0848
 2453THY    HA361316   8.215   0.222   7.712 -0.0449  0.3501 -0.2236
 2453THY    CA461317   8.138   0.108   7.551 -0.3338 -0.1337  0.0268
 2453THY    HA461318   8.204   0.026   7.575  1.6956  1.6383  0.8428
 2453THY    CA561319   8.041   0.103   7.448  0.0385 -0.1703 -0.9348
 2453THY    CM161320   8.032  -0.021   7.366 -0.0879 -0.0883  0.2053
 2453THY    HM161321   8.110  -0.016   7.290 -0.4666  0.9342 -0.1328
 2453THY    HM261322   8.061  -0.109   7.425 -0.5187 -0.3620  0.0155
 2453THY    HM361323   7.932  -0.027   7.321  0.0197  1.6909 -0.3450
 2453THY    CA661324   7.958   0.210   7.422 -0.0351  0.3898  0.3183
 2453THY    HA661325   7.887   0.197   7.340 -0.3147  0.4383  0.5533
 2454THY      O61326   0.745   1.869   2.748 -0.5622 -0.3948 -0.1322
 2454THY     HO61327   0.692   1.790   2.729  0.0113 -1.1475  1.2421
 2454THY    CA161328   0.660   1.953   2.797 -0.4892 -0.0368 -0.3357
 2454THY    CA261329   0.680   2.036   2.911 -0.3171  0.4775  0.0557
 2454THY    CP161330   0.816   2.022   2.988 -0.4956 -0.5607  0.2250
 2454THY    HP161331   0.903   1.970   2.948  0.9905  1.0941  1.1791
 2454THY    CP261332   0.865   2.165   3.016  0.3312  0.1635 -0.9453
 2454THY    HP261333   0.864   2.221   2.922 -0.5032  2.2840  0.2452
 2454THY    HP361334   0.801   2.221   3.086  2.0216  1.1439 -0.1406
 2454THY    HP461335   0.967   2.155   3.054 -0.4454  1.3556  1.7497
 2454THY    CP361336   0.781   1.949   3.117  0.3322 -0.4781 -0.2170
 2454THY    HP561337   0.784   1.841   3.095 -0.5740 -0.8577  1.3503
 2454THY    HP661338   0.851   1.981   3.195  0.4288 -1.4812  0.1192
 2454THY    HP761339   0.685   1.990   3.150  0.7411  0.4739 -0.1834
 2454THY    CA361340   0.577   2.122   2.952  0.5940  0.1912  0.7337
 2454THY    HA361341   0.573   2.173   3.048  0.7488 -0.3029  1.0013
 2454THY    CA461342   0.461   2.132   2.867  0.0580 -0.2657 -0.3123
 2454THY    HA461343   0.387   2.204   2.899  1.2618  0.1701  1.6855
 2454THY    CA561344   0.447   2.055   2.759 -0.3521 -0.8186  0.2077
 2454THY    CM161345   0.325   2.066   2.675 -0.2877  0.0460 -0.2307
 2454THY    HM161346   0.234   2.029   2.723 -1.4064  2.6754 -0.1542
 2454THY    HM261347   0.315   2.173   2.652  0.9218 -0.0518 -1.3021
 2454THY    HM361348   0.331   2.012   2.580  0.9992 -0.9766  0.4090
 2454THY    CA661349   0.539   1.961   2.726 -0.1011 -0.6672  0.1145
 2454THY    HA661350   0.509   1.901   2.640 -0.2603  1.1704 -1.1801
 2455THY      O61351   5.781   3.953   4.082 -0.4615  0.4429 -0.3303
 2455THY     HO61352   5.758   4.023   4.019  0.3443  0.5235 -0.5435
 2455THY    CA161353   5.742   3.845   4.022 -1.4089  0.6722  0.3492
 2455THY    CA261354   5.777   3.718   4.066 -0.3567  0.4417 -0.3615
 2455THY    CP161355   5.874   3.698   4.188  0.4979  0.7093  1.2819
 2455THY    HP161356   5.893   3.794   4.238  0.7216  0.2606  2.0805
 2455THY    CP261357   5.812   3.616   4.311  0.7198  0.3351 -0.6331
 2455THY    HP261358   5.706   3.640   4.324  0.7829  0.0736  0.4726
 2455THY    HP361359   5.829   3.512   4.284  0.3123  0.4423 -1.3314
 2455THY    HP461360   5.869   3.639   4.402 -1.2182  0.3720  0.6233
 2455THY    CP361361   6.006   3.625   4.155  0.2059  0.3412 -0.5445
 2455THY    HP561362   5.984   3.531   4.104  0.6947  1.4515 -2.9178
 2455THY    HP661363   6.067   3.698   4.100  1.0980  0.7762  0.9503
 2455THY    HP761364   6.068   3.605   4.244 -1.2134 -1.5150  0.0789
 2455THY    CA361365   5.719   3.610   3.997 -0.3163 -1.0042 -0.4058
 2455THY    HA361366   5.732   3.513   4.043 -0.1458 -0.0832  1.5939
 2455THY    CA461367   5.641   3.627   3.886  0.3237 -0.0216  0.2984
 2455THY    HA461368   5.612   3.537   3.833 -1.1998 -0.6522  2.0806
 2455THY    CA561369   5.610   3.749   3.836 -0.6436 -0.0125 -0.1178
 2455THY    CM161370   5.525   3.764   3.712 -0.2686 -0.4981  0.1257
 2455THY    HM161371   5.580   3.716   3.631 -0.9400 -1.4415  0.2101
 2455THY    HM261372   5.424   3.721   3.716  0.1686 -1.4698  1.5976
 2455THY    HM361373   5.514   3.871   3.691  1.9139 -0.1376  0.5829
 2455THY    CA661374   5.662   3.859   3.906  0.0166  0.4514 -0.1861
 2455THY    HA661375   5.638   3.959   3.870  0.4373 -0.4164 -3.1119
 2456THY      O61376   0.853   7.962   1.401 -0.4746  0.2097  0.0659
 2456THY     HO61377   0.779   7.973   1.339 -0.0607  2.1049 -0.1405
 2456THY    CA161378   0.838   7.841   1.458 -0.0419  0.2178 -0.5524
 2456THY    CA261379   0.913   7.808   1.578 -0.7710 -0.0798  0.6342
 2456THY    CP161380   0.998   7.913   1.658 -0.1774  0.5625 -0.4258
 2456THY    HP161381   1.005   8.010   1.608  0.0318  1.3712  1.1347
 2456THY    CP261382   0.941   7.926   1.799 -0.4721 -0.8082  0.6301
 2456THY    HP261383   1.009   7.990   1.857 -0.3756  0.0445 -0.3965
 2456THY    HP361384   0.842   7.972   1.794 -0.4965 -0.9988 -1.2231
 2456THY    HP461385   0.924   7.833   1.854 -0.2915  0.0745  2.2666
 2456THY    CP361386   1.143   7.856   1.682  0.6142  0.3029  0.5664
 2456THY    HP561387   1.198   7.853   1.587 -0.5614  3.4844 -0.3211
 2456THY    HP661388   1.197   7.932   1.741  0.0774  1.4229 -0.3522
 2456THY    HP761389   1.137   7.760   1.735  0.5839 -1.2444 -2.0987
 2456THY    CA361390   0.884   7.681   1.637  0.3248 -0.2030 -0.1405
 2456THY    HA361391   0.937   7.647   1.726  1.4754 -1.1240 -1.1457
 2456THY    CA461392   0.789   7.595   1.571 -0.2064  0.0655 -0.1547
 2456THY    HA461393   0.765   7.499   1.615 -0.7647 -0.6044 -1.8462
 2456THY    CA561394   0.729   7.630   1.455 -0.2344  0.0265 -0.3247
 2456THY    CM161395   0.628   7.537   1.390 -1.2206  0.1581 -0.3127
 2456THY    HM161396   0.652   7.431   1.400 -0.8802  0.3742  1.6222
 2456THY    HM261397   0.530   7.553   1.437 -0.4102  1.2848  1.0951
 2456THY    HM361398   0.604   7.565   1.287  1.5520 -1.7366 -1.5854
 2456THY    CA661399   0.748   7.755   1.400 -0.2047 -0.0190 -0.7708
 2456THY    HA661400   0.699   7.790   1.310  0.5488  1.3559 -0.6730
 2457THY      O61401   1.883   8.126   1.910  0.1162 -0.1902  0.3603
 2457THY     HO61402   1.957   8.154   1.966  1.3610  0.8103 -1.6686
 2457THY    CA161403   1.829   8.237   1.863  0.2902  0.5149 -0.3368
 2457THY    CA261404   1.693   8.252   1.830  0.0096 -0.2188  0.5493
 2457THY    CP161405   1.588   8.141   1.830 -0.2212 -0.4461  0.0539
 2457THY    HP161406   1.628   8.056   1.887 -1.2973 -1.2154 -0.2843
 2457THY    CP261407   1.450   8.171   1.899  0.0932 -0.0855  0.5280
 2457THY    HP261408   1.387   8.229   1.831 -0.9534 -0.7007  0.9571
 2457THY    HP361409   1.398   8.078   1.926  2.2710 -0.7757  2.7554
 2457THY    HP461410   1.466   8.225   1.992  0.8856 -1.6225  1.3388
 2457THY    CP361411   1.579   8.088   1.686 -0.0999 -0.0935  0.0824
 2457THY    HP561412   1.507   8.005   1.688 -1.0404  0.7005  0.8332
 2457THY    HP661413   1.542   8.165   1.617 -1.4509 -0.1257  0.7316
 2457THY    HP761414   1.677   8.049   1.657  1.2982  1.5473  2.2669
 2457THY    CA361415   1.655   8.378   1.772 -0.0495 -0.4821  0.0968
 2457THY    HA361416   1.554   8.384   1.733 -1.0182  1.8311  2.6946
 2457THY    CA461417   1.745   8.490   1.772 -0.6962 -0.2024  0.2430
 2457THY    HA461418   1.721   8.587   1.731  1.5762  2.3614  4.3514
 2457THY    CA561419   1.879   8.469   1.798 -0.7705 -0.4763  0.7146
 2457THY    CM161420   1.984   8.578   1.783  0.6092  0.8133 -0.0224
 2457THY    HM161421   1.999   8.618   1.682 -0.4880  2.4909  0.4440
 2457THY    HM261422   1.970   8.664   1.848 -0.2425  2.1050 -1.8146
 2457THY    HM361423   2.079   8.540   1.821  0.2029 -0.4342 -0.2059
 2457THY    CA661424   1.919   8.345   1.846 -0.3280 -0.1154 -0.3106
 2457THY    HA661425   2.025   8.333   1.866 -0.3913 -0.0256  0.0940
 2458THY      O61426   2.810   1.832   5.512  0.2298  0.6161  0.1144
 2458THY     HO61427   2.779   1.744   5.539  3.6837 -0.3482  1.4887
 2458THY    CA161428   2.712   1.916   5.476  0.0658  0.3795  0.5476
 2458THY    CA261429   2.745   2.040   5.427  0.6003 -0.0214  0.2886
 2458THY    CP161430   2.893   2.085   5.415  0.0693  0.0621  0.0383
 2458THY    HP161431   2.974   2.012   5.422  1.0424  0.9955 -1.1136
 2458THY    CP261432   2.923   2.157   5.283  0.0887  0.2540 -0.6183
 2458THY    HP261433   2.851   2.236   5.258  0.8428  1.4774  0.8791
 2458THY    HP361434   3.024   2.198   5.274 -0.0131  0.0799 -3.0753
 2458THY    HP461435   2.928   2.078   5.207 -0.1990  0.0656 -0.4432
 2458THY    CP361436   2.921   2.192   5.515  0.4778  0.8026  0.5766
 2458THY    HP561437   2.903   2.144   5.612 -1.0945  0.3671  0.1022
 2458THY    HP661438   3.029   2.210   5.516  0.9832 -1.9334  1.4077
 2458THY    HP761439   2.867   2.285   5.492 -1.3464 -0.7343 -1.8963
 2458THY    CA361440   2.642   2.137   5.405  0.3456  0.5710  0.2809
 2458THY    HA361441   2.667   2.236   5.369 -0.4616  0.8423  0.4496
 2458THY    CA461442   2.511   2.092   5.416 -0.1641 -0.2160  0.5538
 2458THY    HA461443   2.430   2.159   5.388  1.1523  1.1166 -0.2329
 2458THY    CA561444   2.482   1.958   5.457 -0.6009 -0.6374  0.3322
 2458THY    CM161445   2.344   1.912   5.460  0.3805 -0.2555  0.0124
 2458THY    HM161446   2.281   1.998   5.485 -0.2085 -0.6871  0.0347
 2458THY    HM261447   2.317   1.876   5.360 -0.1428 -0.8919  0.3723
 2458THY    HM361448   2.323   1.822   5.519  1.8931  0.2388  1.3559
 2458THY    CA661449   2.586   1.873   5.482 -0.4294 -0.4335 -0.3775
 2458THY    HA661450   2.569   1.773   5.520  1.0657  0.0341  1.6921
 2459THY      O61451   9.064   8.797   6.635 -0.6996 -0.2014  0.4018
 2459THY     HO61452   8.975   8.781   6.599 -0.6864 -2.8705  1.3224
 2459THY    CA161453   9.068   8.756   6.764  0.2697  0.1366 -0.4524
 2459THY    CA261454   9.187   8.751   6.835  0.4041  0.5296  0.8146
 2459THY    CP161455   9.321   8.795   6.763  0.5316  0.3406 -0.2340
 2459THY    HP161456   9.325   8.762   6.659  2.1900  1.3094 -0.5034
 2459THY    CP261457   9.338   8.946   6.772  0.3436 -0.1366  0.6427
 2459THY    HP261458   9.354   8.975   6.877 -3.0680 -3.2496  2.2384
 2459THY    HP361459   9.416   8.975   6.700  0.6034 -1.5377  0.3371
 2459THY    HP461460   9.242   8.989   6.742 -0.0952 -0.8021  1.0566
 2459THY    CP361461   9.444   8.728   6.828  0.7116 -0.8512 -0.3151
 2459THY    HP561462   9.432   8.620   6.845  0.6404 -0.9531 -0.9510
 2459THY    HP661463   9.528   8.749   6.760  1.4499 -1.2703  0.4533
 2459THY    HP761464   9.477   8.761   6.927 -0.1338 -1.2320  0.1003
 2459THY    CA361465   9.179   8.696   6.966 -0.1092  0.5682 -0.3812
 2459THY    HA361466   9.267   8.685   7.028  1.6183 -0.0170 -2.7821
 2459THY    CA461467   9.061   8.652   7.020  0.3758  0.2184 -0.8729
 2459THY    HA461468   9.055   8.622   7.124  1.0866  0.5535 -0.7276
 2459THY    CA561469   8.943   8.653   6.943 -0.3292 -0.3200 -0.3792
 2459THY    CM161470   8.822   8.586   6.997 -0.0440  0.4654 -0.3366
 2459THY    HM161471   8.805   8.629   7.096 -0.7554 -0.8433  0.1274
 2459THY    HM261472   8.743   8.596   6.922  0.8443  2.2480 -1.0969
 2459THY    HM361473   8.834   8.479   7.015  0.8598  0.6922  0.4836
 2459THY    CA661474   8.947   8.706   6.815  1.0841 -0.8430  0.3725
 2459THY    HA661475   8.859   8.698   6.751  0.5518 -1.0140  1.1114
 2460THY      O61476   6.320   7.651   5.837  0.5333 -0.4044 -0.0740
 2460THY     HO61477   6.380   7.615   5.770 -0.5277  2.0048 -2.4818
 2460THY    CA161478   6.272   7.541   5.895  0.3360  0.2749 -0.1060
 2460THY    CA261479   6.155   7.544   5.977 -0.1393 -0.2077 -0.6131
 2460THY    CP161480   6.081   7.673   6.010 -0.8142 -0.0960  0.0904
 2460THY    HP161481   6.140   7.765   6.002  0.8314 -0.8371  2.5281
 2460THY    CP261482   5.968   7.708   5.906 -0.3318  0.6565 -0.2611
 2460THY    HP261483   5.931   7.809   5.928 -0.3283  0.2186  2.0272
 2460THY    HP361484   6.009   7.701   5.805 -0.6914 -2.2886 -0.2876
 2460THY    HP461485   5.886   7.636   5.916 -0.2775  0.0360 -3.4938
 2460THY    CP361486   6.047   7.682   6.167 -0.0507 -0.0642  0.6341
 2460THY    HP561487   5.953   7.628   6.186 -1.1594  2.0104  1.4701
 2460THY    HP661488   6.122   7.641   6.234  0.2161 -0.3746  0.1452
 2460THY    HP761489   6.028   7.785   6.200 -3.9549 -0.7954  1.2045
 2460THY    CA361490   6.122   7.420   6.038  0.6254 -0.3701  0.4211
 2460THY    HA361491   6.042   7.427   6.111  0.6442  1.4256  0.3075
 2460THY    CA461492   6.194   7.308   6.021  0.1173 -0.5452  0.6073
 2460THY    HA461493   6.160   7.219   6.074 -1.3821 -2.2066 -2.8524
 2460THY    CA561494   6.321   7.315   5.957  0.1408 -0.0767  0.3663
 2460THY    CM161495   6.406   7.186   5.948  0.0917  0.1328  0.1078
 2460THY    HM161496   6.509   7.211   5.920 -0.3715  1.0314 -0.8478
 2460THY    HM261497   6.409   7.134   6.045 -2.0463  0.6790  0.5229
 2460THY    HM361498   6.352   7.122   5.878  0.5320 -2.8631  2.3069
 2460THY    CA661499   6.350   7.428   5.880 -0.3251 -0.5706  0.1789
 2460THY    HA661500   6.448   7.436   5.834  0.8445  1.0971  2.7199
 2461THY      O61501   0.760   6.005   8.236 -0.2663 -0.0018  0.4140
 2461THY     HO61502   0.728   5.934   8.294  0.9465 -0.0959  0.9936
 2461THY    CA161503   0.718   5.973   8.107  0.2627 -0.2422 -0.6054
 2461THY    CA261504   0.789   6.035   8.000  0.5732 -0.4159  0.3306
 2461THY    CP161505   0.907   6.136   8.032  0.3881  0.2275  0.2438
 2461THY    HP161506   0.933   6.138   8.138 -2.3268  3.0697  0.9989
 2461THY    CP261507   1.048   6.119   7.950  0.8349  0.1694 -0.5061
 2461THY    HP261508   1.028   6.141   7.844 -1.7686 -0.9029 -0.3342
 2461THY    HP361509   1.116   6.187   8.001  0.0670 -1.1871  2.5341
 2461THY    HP461510   1.089   6.017   7.951  0.0334 -0.1762 -1.0486
 2461THY    CP361511   0.855   6.280   8.013  0.6523  0.4520 -0.1778
 2461THY    HP561512   0.832   6.283   7.905 -3.5279 -2.4529  0.3958
 2461THY    HP661513   0.757   6.297   8.057  0.5436 -0.5711 -0.0001
 2461THY    HP761514   0.927   6.358   8.040 -0.3612  1.2599  0.2616
 2461THY    CA361515   0.740   6.015   7.867 -0.2534  0.8948  0.0846
 2461THY    HA361516   0.786   6.059   7.779 -0.5437  1.2659  0.1176
 2461THY    CA461517   0.632   5.926   7.848  0.1257  0.2193  0.8151
 2461THY    HA461518   0.596   5.907   7.747 -0.9756  1.6692  0.9053
 2461THY    CA561519   0.574   5.859   7.951  0.3897  0.6752  0.1999
 2461THY    CM161520   0.464   5.758   7.917 -0.1607 -0.4502 -0.3931
 2461THY    HM161521   0.425   5.701   8.002  0.3610  1.7745  1.4121
 2461THY    HM261522   0.382   5.825   7.888  0.1037  0.1139  0.1506
 2461THY    HM361523   0.497   5.691   7.837  1.3542  0.1749 -0.3182
 2461THY    CA661524   0.615   5.885   8.082  0.2680 -0.1266 -0.3372
 2461THY    HA661525   0.562   5.837   8.164  0.2692  0.1927 -0.1511
 2462THY      O61526   4.525   4.329   6.117 -0.9140  0.2312  0.3853
 2462THY     HO61527   4.602   4.279   6.086 -2.4260 -1.4166 -0.9434
 2462THY    CA161528   4.450   4.241   6.178 -0.2983  0.2189  0.2442
 2462THY    CA261529   4.322   4.278   6.227 -0.1543 -0.2670  0.3570
 2462THY    CP161530   4.274   4.420   6.226 -0.5559  0.1083  0.4280
 2462THY    HP161531   4.358   4.490   6.235 -1.8192  1.4619  2.3690
 2462THY    CP261532   4.224   4.447   6.082  0.5574  0.2070  0.4960
 2462THY    HP261533   4.173   4.543   6.074  1.3902  0.5272 -1.3757
 2462THY    HP361534   4.310   4.455   6.015  1.0470 -0.2198  1.0597
 2462THY    HP461535   4.160   4.367   6.044  1.7213 -1.1786  1.2946
 2462THY    CP361536   4.154   4.458   6.321  0.3972  0.0692  0.2917
 2462THY    HP561537   4.171   4.426   6.424 -2.2087 -1.2094  0.3719
 2462THY    HP661538   4.138   4.567   6.319  0.4199  0.0942 -2.3449
 2462THY    HP761539   4.062   4.418   6.278 -0.0035  1.3525 -0.1066
 2462THY    CA361540   4.241   4.173   6.273 -0.2067  0.4218 -0.1984
 2462THY    HA361541   4.133   4.180   6.284  0.1041  3.1985  2.3085
 2462THY    CA461542   4.298   4.048   6.286  0.3808 -0.4769 -0.4079
 2462THY    HA461543   4.246   3.970   6.340  1.6576 -0.2552  1.2506
 2462THY    CA561544   4.436   4.023   6.264  0.2401  0.7979  0.2886
 2462THY    CM161545   4.503   3.895   6.308 -0.2244 -0.2463  0.3743
 2462THY    HM161546   4.492   3.814   6.235  1.0635  1.9417 -2.4232
 2462THY    HM261547   4.606   3.920   6.334 -0.9751  1.5469  1.8206
 2462THY    HM361548   4.465   3.861   6.406  1.4357 -0.3980  1.0038
 2462THY    CA661549   4.506   4.122   6.199  0.4580 -0.6581 -0.0149
 2462THY    HA661550   4.611   4.099   6.181  1.2816  0.7122  2.5570
 2463THY      O61551   7.418   8.599   0.666 -0.3181  0.2850 -0.2534
 2463THY     HO61552   7.405   8.545   0.746 -0.2319 -0.8978 -1.0150
 2463THY    CA161553   7.395   8.514   0.560 -0.0057 -0.2751 -0.3561
 2463THY    CA261554   7.459   8.543   0.447  0.0688 -0.4320 -0.1758
 2463THY    CP161555   7.557   8.658   0.438  0.0154 -0.0015 -0.8107
 2463THY    HP161556   7.499   8.739   0.484  0.0592  1.4278 -3.1615
 2463THY    CP261557   7.686   8.639   0.524  1.1798 -0.4186 -0.6218
 2463THY    HP261558   7.729   8.542   0.495  1.7682  0.1700 -1.7995
 2463THY    HP361559   7.767   8.708   0.499  0.6869  0.9971  1.4145
 2463THY    HP461560   7.672   8.640   0.632  0.6576  3.2340 -0.5921
 2463THY    CP361561   7.599   8.708   0.301  0.2255  0.1175  0.2649
 2463THY    HP561562   7.516   8.722   0.230  0.7540 -1.0881 -0.6335
 2463THY    HP661563   7.650   8.804   0.307 -0.3693  0.4358  0.2854
 2463THY    HP761564   7.664   8.643   0.242  1.2556  1.8233 -0.5435
 2463THY    CA361565   7.448   8.450   0.338 -0.0843  0.5639  0.3627
 2463THY    HA361566   7.504   8.457   0.245 -0.4277 -0.6722  0.0342
 2463THY    CA461567   7.359   8.340   0.357  0.0164  0.2173 -0.1798
 2463THY    HA461568   7.340   8.269   0.276 -2.2508 -0.5755  0.9610
 2463THY    CA561569   7.293   8.307   0.476  0.0736  0.2451  0.9270
 2463THY    CM161570   7.212   8.181   0.480 -0.0042  0.2136 -0.2472
 2463THY    HM161571   7.183   8.152   0.582  0.0351  0.3383 -0.2005
 2463THY    HM261572   7.125   8.183   0.413  0.0402  1.0228 -0.2925
 2463THY    HM361573   7.274   8.105   0.432 -1.1435 -0.0699 -1.3382
 2463THY    CA661574   7.326   8.393   0.583  0.2091  0.4941  0.5638
 2463THY    HA661575   7.291   8.373   0.684  1.5127  1.5752  1.2703
 2464THY      O61576   9.521   4.956   2.364 -0.7286  0.3204  0.2565
 2464THY     HO61577   9.528   5.024   2.295 -1.5060 -0.6586 -0.8499
 2464THY    CA161578   9.442   5.001   2.464 -0.1890 -0.0004 -0.0633
 2464THY    CA261579   9.377   4.909   2.550 -0.3280 -0.3283  0.8926
 2464THY    CP161580   9.374   4.765   2.516  0.2895 -0.7905  1.0932
 2464THY    HP161581   9.369   4.751   2.407 -0.9117  0.3860  0.9693
 2464THY    CP261582   9.504   4.708   2.547  0.3518  0.4145 -0.4451
 2464THY    HP261583   9.520   4.723   2.655 -0.2594  0.8353 -0.4062
 2464THY    HP361584   9.504   4.601   2.523  0.7903  0.0443  1.0894
 2464THY    HP461585   9.593   4.742   2.494  2.2492 -1.9318  1.0615
 2464THY    CP361586   9.248   4.694   2.571  0.4131  0.1626  0.0442
 2464THY    HP561587   9.217   4.609   2.509  0.6506  0.1926 -0.1148
 2464THY    HP661588   9.258   4.668   2.677 -0.2986 -2.4061 -0.4654
 2464THY    HP761589   9.162   4.762   2.561  1.7217  2.1648  1.5002
 2464THY    CA361590   9.301   4.957   2.650  1.0077 -0.2051  0.1953
 2464THY    HA361591   9.249   4.896   2.723 -0.5382  2.1816  1.2289
 2464THY    CA461592   9.283   5.101   2.666 -0.4986 -0.5063  0.2665
 2464THY    HA461593   9.226   5.148   2.746 -0.3601  0.3096 -0.0958
 2464THY    CA561594   9.354   5.193   2.591 -0.1064  0.6071  1.0656
 2464THY    CM161595   9.356   5.337   2.620  0.1975  0.6651 -0.4617
 2464THY    HM161596   9.426   5.392   2.555 -0.1639 -0.1126 -1.5324
 2464THY    HM261597   9.256   5.380   2.610  0.1622  0.6471 -0.1916
 2464THY    HM361598   9.387   5.361   2.723  1.3392  0.1226 -0.6648
 2464THY    CA661599   9.435   5.141   2.492  0.9824 -0.3306 -0.5663
 2464THY    HA661600   9.493   5.204   2.425 -1.2913 -0.1416 -2.5014
 2465THY      O61601   0.031   6.830   0.231 -0.4797  0.0554  0.1199
 2465THY     HO61602   0.117   6.825   0.186 -0.8073 -0.2376 -0.4725
 2465THY    CA161603  -0.058   6.887   0.148 -0.2794  0.6599 -0.5646
 2465THY    CA261604  -0.190   6.896   0.195  0.4460 -0.6272  0.5992
 2465THY    CP161605  -0.231   6.853   0.339 -0.1826  0.1982  0.7099
 2465THY    HP161606  -0.136   6.867   0.392 -0.0302  2.3846 -0.0059
 2465THY    CP261607  -0.339   6.935   0.423  1.0712  0.0065 -0.7583
 2465THY    HP261608  -0.349   6.890   0.522 -1.8676  2.3749  0.1577
 2465THY    HP361609  -0.312   7.041   0.427 -1.2348  0.7283 -1.9534
 2465THY    HP461610  -0.440   6.950   0.382 -0.8513 -0.7145  3.2191
 2465THY    CP361611  -0.258   6.709   0.343  0.0744  0.2811 -0.2460
 2465THY    HP561612  -0.270   6.678   0.447  2.0071 -0.6301 -0.2480
 2465THY    HP661613  -0.347   6.675   0.289 -1.1626  0.1972  1.7780
 2465THY    HP761614  -0.172   6.654   0.303  0.3432  2.3886 -2.8186
 2465THY    CA361615  -0.288   6.936   0.102  0.2001  0.6696  0.5460
 2465THY    HA361616  -0.393   6.934   0.126  0.1963 -1.8718  0.6486
 2465THY    CA461617  -0.250   6.990  -0.022  0.4472  0.0399  0.4275
 2465THY    HA461618  -0.327   7.027  -0.089  0.4644  0.8529  0.8473
 2465THY    CA561619  -0.116   6.985  -0.061  0.4945 -0.4185 -0.2116
 2465THY    CM161620  -0.078   7.041  -0.193  0.2795 -0.3506  0.2054
 2465THY    HM161621  -0.157   7.019  -0.266  0.3459 -0.0333  0.0341
 2465THY    HM261622  -0.066   7.149  -0.181 -1.6772 -0.0887  0.1259
 2465THY    HM361623   0.018   7.004  -0.230 -0.2279 -2.1051  0.5458
 2465THY    CA661624  -0.020   6.929   0.022  0.8966 -0.1770  0.0520
 2465THY    HA661625   0.083   6.932  -0.011  0.2660 -0.8802 -2.1235
 2466THY      O61626   7.871   1.661   8.398  0.1653  0.2343 -0.7677
 2466THY     HO61627   7.827   1.590   8.448  0.4397  0.9304  0.4802
 2466THY    CA161628   7.787   1.690   8.301 -0.0284 -0.1112  0.6119
 2466THY    CA261629   7.827   1.737   8.175 -0.4373  0.7839 -0.6323
 2466THY    CP161630   7.974   1.742   8.144 -0.5991 -0.5565  0.1364
 2466THY    HP161631   8.019   1.650   8.184  1.6866 -0.5485 -2.1346
 2466THY    CP261632   8.007   1.752   7.995  0.1311  0.8361  0.5965
 2466THY    HP261633   7.956   1.674   7.938  1.6355  1.0402 -1.1088
 2466THY    HP361634   7.980   1.847   7.947  0.8578 -0.6667 -3.0786
 2466THY    HP461635   8.116   1.753   7.991  0.1289  0.5368  0.4444
 2466THY    CP361636   8.037   1.869   8.218 -0.1348  0.5034  0.7174
 2466THY    HP561637   7.975   1.949   8.176  1.0705  0.3349 -1.5286
 2466THY    HP661638   8.029   1.867   8.327 -1.8622 -1.6812  0.6482
 2466THY    HP761639   8.141   1.890   8.191  0.6389 -1.2703  2.0940
 2466THY    CA361640   7.725   1.780   8.088  0.1941  0.4178  0.1008
 2466THY    HA361641   7.753   1.834   7.998 -1.3773  2.2304  0.6255
 2466THY    CA461642   7.584   1.772   8.127 -0.3398 -0.8288  0.0374
 2466THY    HA461643   7.513   1.815   8.058  0.4204  0.3458 -0.0555
 2466THY    CA561644   7.553   1.723   8.249  0.0298  0.3735  0.6796
 2466THY    CM161645   7.410   1.714   8.285 -0.0047 -0.1041 -0.0601
 2466THY    HM161646   7.374   1.611   8.294  1.2014 -0.7205 -1.8847
 2466THY    HM261647   7.398   1.766   8.381  0.3788  3.2811 -1.7006
 2466THY    HM361648   7.341   1.770   8.221  0.2101  1.3416  0.9234
 2466THY    CA661649   7.650   1.670   8.331 -0.2859 -0.3012 -0.6636
 2466THY    HA661650   7.625   1.640   8.432 -0.6233 -0.4994 -0.8037
 2467THY      O61651   5.043   4.187   3.657 -0.2555  0.1886 -0.2007
 2467THY     HO61652   5.023   4.232   3.741  0.8137 -0.9413  0.7039
 2467THY    CA161653   5.046   4.269   3.549  0.1843  0.2531 -0.8776
 2467THY    CA261654   5.031   4.222   3.419 -0.0271 -0.0765 -0.3674
 2467THY    CP161655   5.045   4.075   3.395  0.2659  0.6877  0.1366
 2467THY    HP161656   5.063   4.015   3.485  2.7774  1.7578  0.4343
 2467THY    CP261657   4.918   4.017   3.336 -0.2609  0.1806 -0.1263
 2467THY    HP261658   4.905   4.047   3.231 -0.5168  0.0466 -0.1342
 2467THY    HP361659   4.928   3.908   3.334 -0.0916  0.1777  0.6607
 2467THY    HP461660   4.823   4.046   3.383 -0.0336  0.0405  0.4149
 2467THY    CP361661   5.164   4.043   3.299 -0.6695 -0.2678 -0.8136
 2467THY    HP561662   5.176   3.935   3.284 -0.1275 -0.3304 -0.0274
 2467THY    HP661663   5.143   4.077   3.197  1.2257 -1.6050 -1.7232
 2467THY    HP761664   5.258   4.091   3.330  0.1221 -1.6232 -1.0283
 2467THY    CA361665   5.010   4.316   3.318  0.2795  0.1854  0.5500
 2467THY    HA361666   4.992   4.286   3.215  0.0481  2.5324 -0.1492
 2467THY    CA461667   5.015   4.454   3.343  0.0527  0.0923 -0.6448
 2467THY    HA461668   4.993   4.530   3.269  1.4446  0.0717 -1.1113
 2467THY    CA561669   5.046   4.502   3.473 -0.0454  0.2054  0.6118
 2467THY    CM161670   5.046   4.651   3.501 -0.0243 -0.4921  0.2142
 2467THY    HM161671   5.132   4.686   3.559  1.1550 -0.5817 -1.3918
 2467THY    HM261672   5.052   4.713   3.410  2.2812  0.9628  1.2560
 2467THY    HM361673   4.960   4.689   3.556  1.5625  2.3347  0.9718
 2467THY    CA661674   5.059   4.407   3.576  0.7020 -0.2476 -0.2986
 2467THY    HA661675   5.076   4.431   3.680  1.0418 -1.7280  0.0080
 2468THY      O61676   6.367   9.044   2.049 -0.4970 -0.5368  0.0129
 2468THY     HO61677   6.328   9.016   1.965  0.6305  0.9596 -1.0728
 2468THY    CA161678   6.499   9.037   2.024 -0.4305 -0.1375 -0.1402
 2468THY    CA261679   6.594   9.012   2.126 -0.0275 -0.4018 -0.1717
 2468THY    CP161680   6.550   8.983   2.267  0.4313  0.7454 -0.1834
 2468THY    HP161681   6.447   9.012   2.290  1.0690  1.8212  1.5023
 2468THY    CP261682   6.538   8.825   2.282 -0.6326 -0.1681  0.3562
 2468THY    HP261683   6.479   8.788   2.366  2.5277 -1.5688  2.1309
 2468THY    HP361684   6.499   8.781   2.190 -0.3865 -2.5310  1.3142
 2468THY    HP461685   6.641   8.792   2.298  1.0070  2.0485 -4.0393
 2468THY    CP361686   6.631   9.045   2.382 -0.5375  0.1780 -0.1977
 2468THY    HP561687   6.625   9.152   2.358 -2.1084 -0.0471 -0.9236
 2468THY    HP661688   6.584   9.024   2.479 -1.2168  1.3050 -0.2549
 2468THY    HP761689   6.736   9.013   2.382 -0.7900 -0.6813  0.5932
 2468THY    CA361690   6.731   9.003   2.086  0.4129 -0.0796  0.1548
 2468THY    HA361691   6.801   8.972   2.163  1.2443 -0.6087 -0.7816
 2468THY    CA461692   6.772   9.045   1.956  0.4877  0.1570 -0.7228
 2468THY    HA461693   6.877   9.025   1.940  1.3706  1.2579  2.7547
 2468THY    CA561694   6.673   9.087   1.863 -1.1607  0.0301  0.3462
 2468THY    CM161695   6.723   9.141   1.726  0.0404  0.0869 -0.4541
 2468THY    HM161696   6.751   9.057   1.662  0.3186 -1.6220  1.7948
 2468THY    HM261697   6.648   9.211   1.687  1.0200  2.2816  1.3554
 2468THY    HM361698   6.813   9.201   1.741  0.1772 -0.4855  1.2458
 2468THY    CA661699   6.538   9.072   1.892 -0.4029 -0.0012 -0.4082
 2468THY    HA661700   6.468   9.099   1.813  2.0456  1.4359 -2.1998
 2469THY      O61701   5.354   1.616   4.896 -0.4375 -0.0220  0.2584
 2469THY     HO61702   5.362   1.629   4.801 -4.9364  1.4255 -0.1491
 2469THY    CA161703   5.315   1.733   4.945  0.0821  0.1145 -0.1772
 2469THY    CA261704   5.260   1.741   5.078  0.5323  0.0510 -0.0592
 2469THY    CP161705   5.240   1.623   5.168 -0.5781  0.3859  0.0319
 2469THY    HP161706   5.316   1.547   5.148  0.2496  0.8451  1.3009
 2469THY    CP261707   5.240   1.659   5.315 -0.4519  0.3625  0.4623
 2469THY    HP261708   5.328   1.722   5.328  0.9863 -0.9664 -2.0703
 2469THY    HP361709   5.148   1.712   5.343  0.3342  0.3321  3.4652
 2469THY    HP461710   5.242   1.562   5.367 -2.6438 -1.1346 -1.9785
 2469THY    CP361711   5.114   1.544   5.142 -0.3420 -0.1015 -0.1859
 2469THY    HP561712   5.108   1.545   5.033 -0.1292  2.0772 -0.2264
 2469THY    HP661713   5.102   1.447   5.191 -0.8742  1.1777  2.4047
 2469THY    HP761714   5.022   1.597   5.173 -0.8843 -1.0001 -0.2398
 2469THY    CA361715   5.226   1.872   5.116 -0.1851  0.2404 -0.0114
 2469THY    HA361716   5.186   1.885   5.217 -1.5593  1.0046 -0.6335
 2469THY    CA461717   5.229   1.982   5.033 -0.4758 -0.6785  0.7963
 2469THY    HA461718   5.205   2.085   5.056 -1.2382 -0.9747  1.3678
 2469THY    CA561719   5.283   1.971   4.904  0.6083 -0.5847 -0.1105
 2469THY    CM161720   5.294   2.087   4.807  0.4636 -0.2946  0.2990
 2469THY    HM161721   5.222   2.165   4.833  1.3066  0.9986 -1.0924
 2469THY    HM261722   5.395   2.129   4.817  0.7101 -0.6978 -0.3792
 2469THY    HM361723   5.281   2.052   4.704  0.6423  3.7730 -1.2770
 2469THY    CA661724   5.320   1.844   4.866  0.2246 -0.4047 -0.7735
 2469THY    HA661725   5.367   1.834   4.768  3.4612  1.1533  0.4909
 2470THY      O61726   7.365   4.205   4.004  0.1120 -0.4299  0.1094
 2470THY     HO61727   7.363   4.277   4.070  1.9216 -0.2919  0.0706
 2470THY    CA161728   7.383   4.092   4.073 -0.4281  0.4262 -0.4670
 2470THY    CA261729   7.410   3.974   4.008  0.1222 -0.5692 -0.2467
 2470THY    CP161730   7.407   3.966   3.855 -0.0302 -0.0037  0.1158
 2470THY    HP161731   7.431   4.064   3.811 -2.0479  0.7084  0.5039
 2470THY    CP261732   7.509   3.861   3.804  0.4680 -0.2845 -0.1265
 2470THY    HP261733   7.602   3.854   3.862 -0.6017  1.4794  1.9851
 2470THY    HP361734   7.459   3.763   3.807  0.8653 -0.4640  2.0854
 2470THY    HP461735   7.525   3.885   3.698 -0.9470  1.4579  0.0126
 2470THY    CP361736   7.258   3.937   3.818  0.7108 -0.6173  0.2926
 2470THY    HP561737   7.240   3.832   3.840  2.0759 -0.9305  0.0057
 2470THY    HP661738   7.179   3.993   3.870  0.8072  0.4803 -0.6877
 2470THY    HP761739   7.238   3.955   3.712 -2.4984  1.7045  1.1284
 2470THY    CA361740   7.434   3.859   4.086  0.7874  0.2211  0.2861
 2470THY    HA361741   7.443   3.762   4.037 -2.3833  0.0100 -0.0911
 2470THY    CA461742   7.444   3.864   4.224 -1.1389  0.5838  0.5403
 2470THY    HA461743   7.474   3.779   4.285  0.2983  1.0396  0.5125
 2470THY    CA561744   7.431   3.984   4.290  0.4331 -0.1330  0.3014
 2470THY    CM161745   7.447   4.000   4.441 -0.0902  0.7809 -0.3005
 2470THY    HM161746   7.411   4.100   4.466  1.7418  1.2739  0.5846
 2470THY    HM261747   7.395   3.918   4.492 -1.8974  0.2874 -2.7768
 2470THY    HM361748   7.555   3.998   4.462 -0.0247 -0.2300 -0.7184
 2470THY    CA661749   7.409   4.101   4.211  0.9720  0.0734  0.1445
 2470THY    HA661750   7.411   4.198   4.260 -0.6877 -0.3751  1.1756
 2471THY      O61751   2.600   5.818   1.848  0.1380 -0.3069  0.2424
 2471THY     HO61752   2.528   5.756   1.869 -0.0856 -0.0329  0.2914
 2471THY    CA161753   2.693   5.825   1.940  0.8124  0.3567  0.5855
 2471THY    CA261754   2.790   5.937   1.938  0.4662 -0.3344 -0.1722
 2471THY    CP161755   2.802   6.044   1.833 -0.0999  0.1369  0.4507
 2471THY    HP161756   2.729   6.024   1.754  1.5943 -0.4647 -1.0153
 2471THY    CP261757   2.775   6.181   1.888  0.4777 -0.6667  0.3803
 2471THY    HP261758   2.842   6.216   1.968 -0.4350  2.1451  0.0529
 2471THY    HP361759   2.766   6.257   1.809  0.1080 -0.7502  0.3417
 2471THY    HP461760   2.679   6.184   1.940  1.1756 -0.3156  1.7163
 2471THY    CP361761   2.942   6.040   1.768 -0.2698 -0.0673  0.4550
 2471THY    HP561762   2.944   5.973   1.681  0.4323  0.1940  0.2642
 2471THY    HP661763   2.958   6.138   1.722  2.6127 -1.3629 -1.5690
 2471THY    HP761764   3.018   6.017   1.843  1.7108  1.0065 -1.1266
 2471THY    CA361765   2.878   5.937   2.045  0.2123 -0.3253  0.1884
 2471THY    HA361766   2.950   6.018   2.048  0.1509 -0.0351 -2.7578
 2471THY    CA461767   2.865   5.848   2.152 -0.1847  0.0904 -0.5991
 2471THY    HA461768   2.929   5.861   2.238  0.3468 -0.5733 -0.8847
 2471THY    CA561769   2.774   5.740   2.143 -0.0767  0.8267 -0.5153
 2471THY    CM161770   2.779   5.636   2.251 -0.3395 -1.2503 -1.1230
 2471THY    HM161771   2.740   5.679   2.344  0.2824 -3.1021  0.0476
 2471THY    HM261772   2.722   5.547   2.223  0.9881 -2.6368  0.3919
 2471THY    HM361773   2.886   5.611   2.261 -0.3645 -0.7284  0.8721
 2471THY    CA661774   2.682   5.732   2.038 -0.9326  0.2484 -0.4167
 2471THY    HA661775   2.600   5.660   2.034 -0.1687 -0.5911 -1.6833
 2472THY      O61776   2.587   0.985   0.533  0.1487 -0.1261  0.2287
 2472THY     HO61777   2.494   0.958   0.534 -1.0493  3.2468  3.4505
 2472THY    CA161778   2.581   1.123   0.560  0.1425  0.1693 -0.3689
 2472THY    CA261779   2.695   1.206   0.579 -0.0309  0.0073 -0.8849
 2472THY    CP161780   2.833   1.147   0.558  0.8477  0.6716  0.1635
 2472THY    HP161781   2.844   1.048   0.605  1.3055  0.6228 -0.0457
 2472THY    CP261782   2.872   1.133   0.407 -0.0936  0.3350 -0.1324
 2472THY    HP261783   2.973   1.092   0.401 -0.9031 -1.8556  0.1465
 2472THY    HP361784   2.800   1.062   0.363  1.0013 -1.1604  0.4108
 2472THY    HP461785   2.838   1.221   0.351 -2.7119  0.8244  2.0305
 2472THY    CP361786   2.938   1.234   0.618 -0.4676 -0.1055 -0.3268
 2472THY    HP561787   2.954   1.331   0.568  0.2096 -0.8765 -1.6624
 2472THY    HP661788   2.912   1.263   0.720 -2.1024 -0.1669 -0.6990
 2472THY    HP761789   3.036   1.186   0.609 -1.3449 -1.5555 -5.4523
 2472THY    CA361790   2.668   1.344   0.606  0.5679 -0.5963 -0.0082
 2472THY    HA361791   2.746   1.420   0.603 -0.4279  0.4251 -0.9179
 2472THY    CA461792   2.537   1.383   0.635 -0.1471  0.2781 -0.1272
 2472THY    HA461793   2.512   1.486   0.658  0.8500  0.5583 -0.2777
 2472THY    CA561794   2.429   1.301   0.626  0.1321  0.1113  0.5703
 2472THY    CM161795   2.292   1.356   0.669  0.0851  0.5815 -0.0289
 2472THY    HM161796   2.287   1.350   0.779  0.4028  2.7758  0.1498
 2472THY    HM261797   2.279   1.458   0.631  0.2727  0.6072 -0.0289
 2472THY    HM361798   2.218   1.283   0.636  1.3456 -0.3981 -0.7937
 2472THY    CA661799   2.454   1.175   0.573 -0.4142 -0.3107  0.7259
 2472THY    HA661800   2.370   1.108   0.557 -0.3198 -0.0288 -1.1561
 2473THY      O61801   6.624   9.726   5.876 -0.5802 -0.0934  0.3154
 2473THY     HO61802   6.578   9.811   5.888 -1.1599 -0.0292 -1.8613
 2473THY    CA161803   6.688   9.724   5.754  0.6118 -0.0709  0.2707
 2473THY    CA261804   6.812   9.672   5.733  0.3518  0.4458  0.8039
 2473THY    CP161805   6.869   9.567   5.831 -0.1055 -0.3408 -0.5858
 2473THY    HP161806   6.784   9.524   5.885 -1.5676  4.3658  1.3516
 2473THY    CP261807   6.940   9.449   5.756  0.2423 -0.8465 -0.6702
 2473THY    HP261808   7.040   9.488   5.731  0.2969  1.0416  2.0952
 2473THY    HP361809   6.948   9.353   5.809 -1.9309 -1.0692 -0.6553
 2473THY    HP461810   6.887   9.432   5.661 -0.1576  0.0446 -0.6213
 2473THY    CP361811   6.949   9.630   5.948 -0.2268  0.1239  0.5290
 2473THY    HP561812   7.044   9.666   5.907  0.1155 -2.4100 -1.1928
 2473THY    HP661813   6.890   9.710   5.994  1.1876  1.0846  0.7336
 2473THY    HP761814   6.967   9.557   6.028 -0.6140 -2.2867 -1.4433
 2473THY    CA361815   6.885   9.693   5.613 -0.6736 -0.0301  0.2247
 2473THY    HA361816   6.987   9.657   5.602 -0.6185 -0.0488  0.7814
 2473THY    CA461817   6.818   9.767   5.514 -0.2457  0.0179 -0.3850
 2473THY    HA461818   6.862   9.788   5.417 -0.6604  0.6439 -0.4474
 2473THY    CA561819   6.692   9.823   5.533  0.3798 -0.4374 -0.1419
 2473THY    CM161820   6.629   9.902   5.425 -0.0946 -0.6192 -0.1229
 2473THY    HM161821   6.623  10.010   5.444 -0.9395 -0.3758 -1.6057
 2473THY    HM261822   6.677   9.887   5.327 -0.0930  0.3485 -0.2866
 2473THY    HM361823   6.530   9.858   5.405 -0.7154  0.4832  0.4157
 2473THY    CA661824   6.636   9.817   5.662  0.3399  0.1590  0.3799
 2473THY    HA661825   6.539   9.864   5.678 -1.1569 -2.7613  0.5730
 2474THY      O61826   7.235   2.760   1.608  0.7246 -0.2176 -1.0360
 2474THY     HO61827   7.212   2.735   1.516  0.3522 -1.6502 -0.5817
 2474THY    CA161828   7.176   2.660   1.673  0.2019  1.3027 -0.2608
 2474THY    CA261829   7.154   2.656   1.813 -0.3839 -0.6132  0.0382
 2474THY    CP161830   7.185   2.784   1.895  0.1295  0.1265  0.3538
 2474THY    HP161831   7.220   2.863   1.828 -1.8165  1.9633  1.3821
 2474THY    CP261832   7.053   2.843   1.950  0.4327  0.2433  0.1513
 2474THY    HP261833   7.083   2.920   2.022  2.6249 -1.0012  0.6593
 2474THY    HP361834   6.995   2.888   1.869 -1.5304 -0.8011  0.9009
 2474THY    HP461835   6.997   2.770   2.010  1.2081 -0.8245 -0.3914
 2474THY    CP361836   7.276   2.749   2.009 -0.8161  0.1430  0.6174
 2474THY    HP561837   7.218   2.688   2.080  1.0675 -2.5946 -0.0242
 2474THY    HP661838   7.356   2.686   1.969 -0.2517  1.3682 -0.2416
 2474THY    HP761839   7.332   2.834   2.048  0.3942  1.2442 -3.0471
 2474THY    CA361840   7.099   2.539   1.867  0.6121  0.9783 -0.0747
 2474THY    HA361841   7.056   2.537   1.967 -0.3708 -0.4517 -0.4964
 2474THY    CA461842   7.071   2.427   1.785 -0.0144 -0.0391 -0.2437
 2474THY    HA461843   7.005   2.351   1.824 -1.6410  0.6523 -1.5511
 2474THY    CA561844   7.107   2.431   1.650 -0.3649  0.7463  0.4620
 2474THY    CM161845   7.059   2.318   1.565  0.1674  0.2362  0.0873
 2474THY    HM161846   7.046   2.344   1.459  1.0940  0.2058 -0.0453
 2474THY    HM261847   7.133   2.239   1.581  2.3569  2.0946 -0.2437
 2474THY    HM361848   6.957   2.284   1.585 -0.9324  1.5721 -2.7136
 2474THY    CA661849   7.165   2.544   1.594  0.7922  0.1021 -0.8972
 2474THY    HA661850   7.168   2.544   1.486  1.7688  1.6165 -0.8922
 2475THY      O61851   4.331   1.845   7.419 -0.0957  0.0657 -0.0748
 2475THY     HO61852   4.317   1.750   7.439  1.3965 -0.3597 -0.9081
 2475THY    CA161853   4.464   1.846   7.423  0.1344  0.5017  0.0371
 2475THY    CA261854   4.543   1.873   7.313  0.0793 -0.1013  0.1431
 2475THY    CP161855   4.488   1.920   7.186  0.4382  0.7504  0.2918
 2475THY    HP161856   4.393   1.966   7.216 -0.0043  0.9068 -1.2816
 2475THY    CP261857   4.563   2.028   7.106 -0.0737 -0.3988  0.2356
 2475THY    HP261858   4.609   2.099   7.175  1.0784  0.0984 -1.0100
 2475THY    HP361859   4.630   1.974   7.039 -1.0911  0.3586 -1.4545
 2475THY    HP461860   4.494   2.097   7.056 -1.7510 -0.5498  2.1803
 2475THY    CP361861   4.452   1.800   7.101 -0.2068 -0.4271 -0.2786
 2475THY    HP561862   4.539   1.750   7.057  0.9107  1.4183 -0.2863
 2475THY    HP661863   4.380   1.737   7.154 -1.7046  1.9471  0.7068
 2475THY    HP761864   4.391   1.836   7.017 -0.4341 -2.7574 -1.1671
 2475THY    CA361865   4.676   1.863   7.328  0.0803 -0.6174  0.2628
 2475THY    HA361866   4.739   1.914   7.256 -1.7891  1.0556 -0.2732
 2475THY    CA461867   4.730   1.815   7.451 -1.1368 -0.3556  0.4648
 2475THY    HA461868   4.838   1.805   7.461 -0.8692  1.3728 -0.3943
 2475THY    CA561869   4.650   1.788   7.563 -0.0766 -0.2717  0.0929
 2475THY    CM161870   4.718   1.759   7.698 -0.5302  0.3301  0.4339
 2475THY    HM161871   4.793   1.681   7.683 -1.0856 -0.1941  0.3331
 2475THY    HM261872   4.772   1.849   7.728  0.3906 -0.2565  0.5829
 2475THY    HM361873   4.645   1.734   7.776 -2.3023 -0.4184 -1.3832
 2475THY    CA661874   4.516   1.805   7.551 -0.5632 -0.2572 -0.1767
 2475THY    HA661875   4.452   1.798   7.638 -1.5837 -0.1226 -0.9031
 2476THY      O61876   1.423   1.482   5.456  0.3414 -0.1509 -0.1431
 2476THY     HO61877   1.433   1.385   5.453  0.0979 -0.1620 -2.2541
 2476THY    CA161878   1.381   1.527   5.571  0.3836  0.2985  0.4149
 2476THY    CA261879   1.430   1.654   5.625 -0.3588 -0.0497  0.2483
 2476THY    CP161880   1.537   1.734   5.542  0.0552 -0.3735 -0.4310
 2476THY    HP161881   1.591   1.668   5.473  1.6117  1.6744 -1.2698
 2476THY    CP261882   1.468   1.846   5.462  0.3424 -0.3886 -1.2751
 2476THY    HP261883   1.374   1.808   5.422  1.0879 -3.3653 -0.4790
 2476THY    HP361884   1.446   1.916   5.544  0.3881 -0.7459 -0.9521
 2476THY    HP461885   1.529   1.903   5.392  0.0337  0.5387 -0.7987
 2476THY    CP361886   1.652   1.791   5.632 -0.2883 -0.2958  0.6834
 2476THY    HP561887   1.704   1.706   5.677  0.0415  0.2766  1.3961
 2476THY    HP661888   1.716   1.856   5.572 -0.5571 -2.1559 -1.7355
 2476THY    HP761889   1.622   1.853   5.718  0.8853 -1.3218  1.8865
 2476THY    CA361890   1.396   1.691   5.762 -0.5652  0.4130  0.1080
 2476THY    HA361891   1.421   1.786   5.808 -0.0236 -0.0123  0.7265
 2476THY    CA461892   1.306   1.604   5.826 -0.4332  0.5005  0.2451
 2476THY    HA461893   1.271   1.623   5.927  0.7372  0.3366  0.7076
 2476THY    CA561894   1.248   1.491   5.759  0.1151 -0.1332 -0.6259
 2476THY    CM161895   1.149   1.408   5.825 -0.3467 -0.1662  0.2040
 2476THY    HM161896   1.070   1.374   5.756  0.2944 -2.6015  0.5891
 2476THY    HM261897   1.200   1.317   5.857  2.4151  1.1199 -0.3139
 2476THY    HM361898   1.106   1.460   5.911  1.3232  1.4137  0.1535
 2476THY    CA661899   1.291   1.446   5.638 -0.2960 -0.3304  0.9809
 2476THY    HA661900   1.238   1.362   5.594 -1.1873  0.6831  0.0405
 2477THY      O61901   3.928   8.221   3.081  0.4531  0.3953  0.0102
 2477THY     HO61902   3.856   8.262   3.030  1.2033  1.8783  0.0692
 2477THY    CA161903   3.871   8.121   3.164  0.0271  0.0705 -0.3196
 2477THY    CA261904   3.928   8.088   3.286 -0.0491 -0.9815 -0.3370
 2477THY    CP161905   4.045   8.167   3.344  0.5293  0.0134  0.4021
 2477THY    HP161906   4.112   8.194   3.261 -0.0188  0.3614  0.0694
 2477THY    CP261907   4.003   8.295   3.415  0.5180  0.7323 -0.3527
 2477THY    HP261908   4.090   8.350   3.451  0.5811  0.5607 -0.2439
 2477THY    HP361909   3.940   8.361   3.354 -2.3522 -1.4857 -0.0271
 2477THY    HP461910   3.949   8.275   3.508  0.4791  0.6853 -0.3852
 2477THY    CP361911   4.133   8.072   3.425  0.4617 -0.0832 -0.8232
 2477THY    HP561912   4.082   8.040   3.517  2.1395 -2.2151 -0.5400
 2477THY    HP661913   4.148   7.984   3.360 -3.2764 -0.7313 -1.0473
 2477THY    HP761914   4.227   8.117   3.459 -0.3272 -0.8918  2.8977
 2477THY    CA361915   3.856   8.001   3.375  0.2235 -0.0049 -0.0280
 2477THY    HA361916   3.897   7.974   3.471  2.2296 -1.5709 -1.2431
 2477THY    CA461917   3.739   7.938   3.336  0.1448 -0.1582  0.6717
 2477THY    HA461918   3.693   7.865   3.402  1.5922 -0.7774  1.0319
 2477THY    CA561919   3.682   7.968   3.213  0.0118 -0.0056  0.1632
 2477THY    CM161920   3.541   7.916   3.176  0.2237 -0.2346 -0.2807
 2477THY    HM161921   3.511   7.972   3.086 -1.7446 -3.3510 -1.7514
 2477THY    HM261922   3.535   7.813   3.140 -0.5580 -0.4626  0.4643
 2477THY    HM361923   3.467   7.922   3.257  0.2253 -0.2020 -0.2815
 2477THY    CA661924   3.749   8.062   3.127 -0.4026 -0.1391 -0.3936
 2477THY    HA661925   3.720   8.082   3.024  0.6970  0.0831 -0.6727
 2478THY      O61926   8.859   6.047   3.121  0.0290  0.4392  0.0349
 2478THY     HO61927   8.768   6.073   3.145 -0.5408 -1.5547  0.1881
 2478THY    CA161928   8.857   6.009   2.993  0.3889 -1.0210 -0.8911
 2478THY    CA261929   8.971   5.977   2.916 -0.6960  0.5226  0.2469
 2478THY    CP161930   9.109   5.974   2.978  0.1903 -0.0141 -0.6658
 2478THY    HP161931   9.113   6.003   3.084  1.0258  2.1633 -1.2541
 2478THY    CP261932   9.173   5.844   2.971  0.4050  1.5087 -0.5504
 2478THY    HP261933   9.193   5.805   2.870  0.9187  0.2378  0.0278
 2478THY    HP361934   9.264   5.847   3.032  0.8233  0.0798 -1.0715
 2478THY    HP461935   9.114   5.773   3.029  2.4792 -0.1725 -0.3606
 2478THY    CP361936   9.197   6.076   2.905  0.6635 -0.1268 -0.3970
 2478THY    HP561937   9.216   6.051   2.800 -1.2715 -1.5521 -0.4620
 2478THY    HP661938   9.149   6.173   2.922 -0.3867 -0.4676 -1.2854
 2478THY    HP761939   9.293   6.082   2.956  0.8172 -1.0371 -0.5676
 2478THY    CA361940   8.953   5.921   2.788 -0.3914  0.1919 -0.0878
 2478THY    HA361941   9.034   5.883   2.727 -1.9594  0.5581 -2.5428
 2478THY    CA461942   8.822   5.927   2.735  0.1388  0.0178 -0.2529
 2478THY    HA461943   8.811   5.902   2.630  1.2960  1.8680 -0.8652
 2478THY    CA561944   8.715   5.980   2.800  0.2351 -0.3173 -0.4252
 2478THY    CM161945   8.583   5.999   2.727  0.1409  0.7899 -0.5536
 2478THY    HM161946   8.511   5.936   2.779  0.9383 -0.3963 -0.8373
 2478THY    HM261947   8.542   6.100   2.721 -0.7605  0.4395 -0.4839
 2478THY    HM361948   8.593   5.964   2.624  0.0643 -1.1976  0.0692
 2478THY    CA661949   8.731   6.024   2.931  0.3615  0.0308 -0.3331
 2478THY    HA661950   8.649   6.063   2.990  0.1709  0.8232 -1.1099
 2479THY      O61951   5.868   7.213   4.444  0.3056  0.4091  0.0253
 2479THY     HO61952   5.816   7.216   4.362 -2.0870  1.0970  1.4769
 2479THY    CA161953   5.769   7.193   4.538 -0.3568 -0.3386 -0.0569
 2479THY    CA261954   5.794   7.138   4.667 -0.4899  0.7660 -0.9067
 2479THY    CP161955   5.939   7.087   4.696 -0.3208 -0.1812  0.3384
 2479THY    HP161956   5.988   7.046   4.607  2.0172 -2.7939  2.6343
 2479THY    CP261957   6.028   7.197   4.761 -0.0060 -1.1968 -0.1014
 2479THY    HP261958   6.039   7.283   4.694 -2.4362 -0.0670  0.8321
 2479THY    HP361959   5.982   7.235   4.853 -2.0403  0.6251 -1.7446
 2479THY    HP461960   6.126   7.157   4.790  0.3174 -0.1876  0.2359
 2479THY    CP361961   5.942   6.962   4.794  0.1465  0.0838  0.2846
 2479THY    HP561962   5.893   6.875   4.749 -1.4568 -0.0054  2.0873
 2479THY    HP661963   6.040   6.917   4.814 -0.8863 -2.1855  0.5371
 2479THY    HP761964   5.909   6.975   4.898 -1.7092 -1.0886 -0.1041
 2479THY    CA361965   5.701   7.160   4.771  0.9189  0.6395 -0.1834
 2479THY    HA361966   5.714   7.115   4.869  0.5303 -0.0799 -0.4509
 2479THY    CA461967   5.572   7.201   4.736 -0.6069 -0.2464 -0.5414
 2479THY    HA461968   5.499   7.190   4.816  0.4527 -1.0604  0.3465
 2479THY    CA561969   5.547   7.247   4.604 -0.1116 -0.3517  1.1122
 2479THY    CM161970   5.410   7.291   4.571  0.3893 -0.5660  0.4445
 2479THY    HM161971   5.349   7.204   4.546  1.4720 -1.4229  0.7293
 2479THY    HM261972   5.371   7.348   4.656  0.8949 -1.5507  1.3501
 2479THY    HM361973   5.394   7.360   4.487 -2.4475 -1.7379 -0.0822
 2479THY    CA661974   5.646   7.246   4.509 -0.4979 -1.0480  0.5013
 2479THY    HA661975   5.624   7.295   4.415 -0.3203  1.9768  1.9405
 2480THY      O61976   1.860   6.985   9.354 -0.2668  0.1964 -0.0327
 2480THY     HO61977   1.939   6.969   9.409  0.7910  0.3213 -1.4625
 2480THY    CA161978   1.756   7.009   9.429  0.1358 -0.1506  0.0958
 2480THY    CA261979   1.633   7.047   9.365  0.0006  0.1376 -0.4952
 2480THY    CP161980   1.635   7.057   9.211  0.1264  0.2210  0.7053
 2480THY    HP161981   1.731   7.094   9.174 -0.5747  1.2309 -0.1880
 2480THY    CP261982   1.593   6.933   9.138  0.9519  0.9470  0.3570
 2480THY    HP261983   1.488   6.906   9.153  1.0151  1.0413  0.9762
 2480THY    HP361984   1.619   6.940   9.031 -1.0384 -1.0274 -0.3251
 2480THY    HP461985   1.636   6.841   9.180 -1.1591  0.0698  0.7093
 2480THY    CP361986   1.547   7.163   9.165  0.2732  0.0543 -0.3046
 2480THY    HP561987   1.557   7.183   9.058  0.5707  1.0427 -0.1023
 2480THY    HP661988   1.440   7.157   9.187  0.6092 -0.2585  1.4302
 2480THY    HP761989   1.585   7.256   9.207 -1.9379  1.0488 -0.3607
 2480THY    CA361990   1.516   7.051   9.447 -0.6134  0.9913 -0.0620
 2480THY    HA361991   1.417   7.056   9.403 -0.8812 -1.2537  0.1513
 2480THY    CA461992   1.531   7.036   9.587  0.0522  0.4159 -0.1077
 2480THY    HA461993   1.444   7.046   9.650  1.8873  1.5447  2.4048
 2480THY    CA561994   1.655   7.014   9.644 -0.4336 -0.5196 -0.3778
 2480THY    CM161995   1.670   7.001   9.795  0.0738  0.4387 -0.1703
 2480THY    HM161996   1.660   6.897   9.828  0.2193  0.1538 -1.0093
 2480THY    HM261997   1.770   7.033   9.828 -0.7319 -0.9676  4.3085
 2480THY    HM361998   1.596   7.049   9.860 -0.4077 -2.8132  1.9467
 2480THY    CA661999   1.768   7.007   9.569 -0.3461 -0.2148  0.4181
 2480THY    HA662000   1.867   6.987   9.609 -0.4948  0.9700  1.4494
 2481THY      O62001   2.724   3.268   9.356 -0.6947 -0.1731 -0.0429
 2481THY     HO62002   2.747   3.202   9.424 -1.3054 -1.2678 -0.8595
 2481THY    CA162003   2.751   3.393   9.407  0.6247 -0.2977 -0.4850
 2481THY    CA262004   2.654   3.496   9.411  0.3651 -0.3261 -0.1681
 2481THY    CP162005   2.513   3.472   9.363  0.3754  0.0560  0.1473
 2481THY    HP162006   2.504   3.367   9.333  1.3935  0.0233 -0.0598
 2481THY    CP262007   2.433   3.505   9.487  0.3823  0.0699  0.4237
 2481THY    HP262008   2.332   3.466   9.466  0.2001  0.7323  0.0391
 2481THY    HP362009   2.469   3.461   9.580 -0.7980 -0.6024  0.5898
 2481THY    HP462010   2.436   3.613   9.503  1.4985  0.0736  0.2436
 2481THY    CP362011   2.489   3.562   9.242  0.1308  0.0456  1.3363
 2481THY    HP562012   2.381   3.570   9.227  0.1386 -0.4330  1.0148
 2481THY    HP662013   2.524   3.664   9.261  0.0262  0.6247 -1.2528
 2481THY    HP762014   2.534   3.525   9.149  0.7448 -0.7670  1.9451
 2481THY    CA362015   2.702   3.620   9.463 -0.4056 -0.1333  0.3837
 2481THY    HA362016   2.628   3.700   9.463 -0.8717 -0.5382  1.4626
 2481THY    CA462017   2.833   3.638   9.511 -0.2158  0.1217  0.0941
 2481THY    HA462018   2.868   3.731   9.555  0.2561 -0.7848  1.7009
 2481THY    CA562019   2.918   3.529   9.512 -0.2369 -0.2345  1.1725
 2481THY    CM162020   3.057   3.543   9.554  0.1796 -0.0835 -1.0539
 2481THY    HM162021   3.074   3.520   9.660  1.9465 -1.0713 -1.5204
 2481THY    HM262022   3.120   3.477   9.495  4.0086  2.1398  0.1910
 2481THY    HM362023   3.076   3.651   9.550 -1.4239  0.5619  3.0824
 2481THY    CA662024   2.878   3.409   9.461  0.4966  0.9011  0.1064
 2481THY    HA662025   2.942   3.321   9.456  0.5040  0.8599  0.8159
 2482THY      O62026   8.521   4.570   1.013  0.3081 -0.3385  0.0725
 2482THY     HO62027   8.563   4.486   0.988 -2.2562 -0.9844 -2.6204
 2482THY    CA162028   8.597   4.623   1.110  0.2312  0.0566 -0.0422
 2482THY    CA262029   8.594   4.761   1.142  0.0754  0.1500 -0.2255
 2482THY    CP162030   8.518   4.861   1.054 -1.0044  0.5220  0.4008
 2482THY    HP162031   8.489   4.819   0.957 -1.9401  3.6088 -0.7793
 2482THY    CP262032   8.377   4.896   1.109 -0.6617 -0.0339 -0.4836
 2482THY    HP262033   8.314   4.950   1.038 -0.7472  0.6350  0.0908
 2482THY    HP362034   8.324   4.801   1.124  1.1261 -1.1601 -1.0086
 2482THY    HP462035   8.378   4.956   1.201  1.4505 -0.1542 -0.3723
 2482THY    CP362036   8.595   4.986   1.021  0.0916  0.0253  0.5634
 2482THY    HP562037   8.691   4.949   0.983  0.0751 -1.2504  1.6849
 2482THY    HP662038   8.555   5.054   0.945  2.1530 -0.7030 -1.2674
 2482THY    HP762039   8.604   5.052   1.108 -2.0054 -0.1167  0.9581
 2482THY    CA362040   8.670   4.799   1.261 -0.1675 -0.1588  0.4082
 2482THY    HA362041   8.668   4.902   1.295 -0.4172  0.2154 -0.7310
 2482THY    CA462042   8.741   4.705   1.334  0.8410 -0.5095  0.0745
 2482THY    HA462043   8.814   4.734   1.409 -1.2044  2.1906  1.1949
 2482THY    CA562044   8.728   4.572   1.303 -0.2319  0.3967 -0.4539
 2482THY    CM162045   8.809   4.468   1.370 -0.9370 -0.1954 -0.3991
 2482THY    HM162046   8.895   4.435   1.310 -0.6639  0.1731 -0.2128
 2482THY    HM262047   8.851   4.522   1.456 -0.0090 -0.4305 -0.6932
 2482THY    HM362048   8.745   4.388   1.409  1.2890 -0.8094  2.3222
 2482THY    CA662049   8.662   4.534   1.191  0.2244  0.0098  0.1957
 2482THY    HA662050   8.669   4.429   1.165 -2.3605 -0.7414  2.1491
 2483THY      O62051   9.878   2.893   2.277 -0.8813 -0.2098  0.3264
 2483THY     HO62052   9.965   2.908   2.318 -0.7005  0.2010 -0.1937
 2483THY    CA162053   9.801   2.992   2.327 -0.1560  0.5161 -0.6791
 2483THY    CA262054   9.674   3.019   2.283 -0.0096  0.3303 -0.5919
 2483THY    CP162055   9.612   2.947   2.170 -0.3169  0.6939 -0.0400
 2483THY    HP162056   9.679   2.864   2.143 -1.7288 -0.5400  0.0874
 2483THY    CP262057   9.472   2.886   2.199 -0.1067 -0.0551 -0.6466
 2483THY    HP262058   9.451   2.811   2.123 -0.4521  0.1497 -0.7552
 2483THY    HP362059   9.465   2.832   2.294 -1.4774  0.5450 -0.3797
 2483THY    HP462060   9.393   2.962   2.194  0.4485  0.4540 -1.9329
 2483THY    CP362061   9.596   3.036   2.047 -0.3936 -0.2009  0.2123
 2483THY    HP562062   9.696   3.078   2.034 -0.0198 -1.6360 -1.9535
 2483THY    HP662063   9.578   2.974   1.959  0.7292 -1.3414  0.7550
 2483THY    HP762064   9.515   3.110   2.059  0.2079  0.4844  0.1057
 2483THY    CA362065   9.602   3.123   2.355  0.0784 -0.1166 -0.3753
 2483THY    HA362066   9.503   3.155   2.323  0.0409  1.0541  0.8111
 2483THY    CA462067   9.672   3.184   2.465  0.6270  0.1410 -0.0524
 2483THY    HA462068   9.619   3.260   2.521 -0.3605  0.1042 -0.9093
 2483THY    CA562069   9.802   3.148   2.505 -0.3349  0.5105 -0.5429
 2483THY    CM162070   9.865   3.220   2.626  0.0594  0.3368  0.2166
 2483THY    HM162071   9.861   3.329   2.615 -0.5919  0.2183 -0.9103
 2483THY    HM262072   9.829   3.185   2.723  0.7892  0.9237  0.7103
 2483THY    HM362073   9.971   3.190   2.629 -0.3389 -1.1118  0.8702
 2483THY    CA662074   9.859   3.049   2.437 -0.4254  0.1596  0.3719
 2483THY    HA662075   9.957   3.010   2.465 -0.9656 -0.1234  1.9726
 2484THY      O62076   8.652   3.453   8.911 -0.0224 -0.6926 -0.0833
 2484THY     HO62077   8.691   3.541   8.927 -3.4847  1.0011  0.2422
 2484THY    CA162078   8.617   3.412   9.036 -1.2835 -0.6531 -0.5044
 2484THY    CA262079   8.514   3.325   9.068  0.1855 -0.3330 -0.1075
 2484THY    CP162080   8.412   3.281   8.970 -0.0891  0.3170  0.0445
 2484THY    HP162081   8.443   3.283   8.865 -1.7206  1.5482 -0.4600
 2484THY    CP262082   8.395   3.128   8.994  0.0850  0.0856  0.3111
 2484THY    HP262083   8.491   3.078   9.013  0.5757  0.4044 -1.2035
 2484THY    HP362084   8.328   3.119   9.081  0.4119 -0.1401  0.5409
 2484THY    HP462085   8.342   3.084   8.909 -1.7374  1.0778  0.8746
 2484THY    CP362086   8.277   3.356   8.984  0.4615 -0.7261  0.1615
 2484THY    HP562087   8.233   3.337   9.082 -2.1186  0.0488 -0.7726
 2484THY    HP662088   8.291   3.463   8.966 -0.2432 -0.7048 -0.2695
 2484THY    HP762089   8.209   3.312   8.911 -0.7829  3.3792 -1.4697
 2484THY    CA362090   8.504   3.285   9.205 -0.0919  0.2910  0.3355
 2484THY    HA362091   8.426   3.213   9.228 -0.8301  0.7760 -0.5486
 2484THY    CA462092   8.573   3.351   9.303 -0.3098  0.2531 -0.1690
 2484THY    HA462093   8.545   3.330   9.405  0.8870  2.0490  0.5791
 2484THY    CA562094   8.682   3.437   9.263 -0.3934 -0.1673 -0.5358
 2484THY    CM162095   8.756   3.509   9.372  0.1779  0.4528 -0.2032
 2484THY    HM162096   8.730   3.471   9.471  0.0915 -2.3265 -1.1934
 2484THY    HM262097   8.864   3.491   9.368  0.0326 -0.5147 -0.0969
 2484THY    HM362098   8.748   3.618   9.366 -0.5006  0.3600 -1.5629
 2484THY    CA662099   8.705   3.462   9.133  0.3642  0.3887  0.2427
 2484THY    HA662100   8.784   3.535   9.117  0.4010  0.0362 -1.2525
 2485THY      O62101   8.307   5.157   4.883 -0.0110 -0.0503 -0.5663
 2485THY     HO62102   8.227   5.135   4.833 -1.0844  0.4029  0.8938
 2485THY    CA162103   8.281   5.099   5.005  0.0022  0.0477 -0.1038
 2485THY    CA262104   8.235   5.179   5.108  0.2889 -0.0434  0.1392
 2485THY    CP162105   8.211   5.330   5.086  0.0467 -0.0437  0.7965
 2485THY    HP162106   8.244   5.367   4.988  3.0758  0.4162  1.8929
 2485THY    CP262107   8.065   5.363   5.084 -0.3651  0.0352  0.4609
 2485THY    HP262108   8.014   5.329   5.175  1.6313 -0.8006  1.3173
 2485THY    HP362109   8.049   5.469   5.059 -0.9306 -0.1658 -0.0614
 2485THY    HP462110   8.033   5.305   4.997 -1.2092  1.0653  0.0566
 2485THY    CP362111   8.275   5.412   5.203 -0.2201 -0.0897  0.0722
 2485THY    HP562112   8.262   5.520   5.186 -0.4585  0.1316  1.4658
 2485THY    HP662113   8.239   5.401   5.306 -0.4962  2.0394  0.2687
 2485THY    HP762114   8.383   5.398   5.199 -0.4444 -1.8733 -0.4821
 2485THY    CA362115   8.216   5.120   5.231  0.0503 -0.2152 -0.0789
 2485THY    HA362116   8.194   5.180   5.319  2.4792  2.0118 -0.8630
 2485THY    CA462117   8.228   4.982   5.245 -0.5512 -0.0899 -0.1745
 2485THY    HA462118   8.204   4.942   5.344 -4.2501  1.9127 -0.0914
 2485THY    CA562119   8.277   4.904   5.139 -1.1535  0.1929 -0.6543
 2485THY    CM162120   8.308   4.758   5.176 -0.3427  0.6999 -0.5713
 2485THY    HM162121   8.366   4.759   5.269  0.2993 -2.7788 -0.7876
 2485THY    HM262122   8.220   4.700   5.206  1.2088 -2.4883 -1.6418
 2485THY    HM362123   8.366   4.709   5.096  1.0943  2.9198 -0.9594
 2485THY    CA662124   8.310   4.966   5.021 -0.5979 -0.4124 -0.3240
 2485THY    HA662125   8.363   4.909   4.945 -0.6585  1.6888 -2.0515
 2486THY      O62126   6.238   5.252   7.357  0.0917  0.0332  0.5678
 2486THY     HO62127   6.247   5.189   7.431 -0.1353  2.7549  3.1200
 2486THY    CA162128   6.224   5.381   7.410  0.7259 -0.1710  0.0611
 2486THY    CA262129   6.181   5.493   7.338  0.0434  0.1528 -0.1420
 2486THY    CP162130   6.135   5.482   7.192 -0.1896  0.0574  0.2045
 2486THY    HP162131   6.095   5.383   7.164  0.9030  0.1608 -1.9768
 2486THY    CP262132   6.039   5.595   7.138 -0.1111  0.7770 -0.5555
 2486THY    HP262133   5.988   5.565   7.046  0.4476  1.6331 -1.1603
 2486THY    HP362134   5.960   5.608   7.213 -1.0696 -0.2285 -1.3518
 2486THY    HP462135   6.095   5.685   7.109 -0.6473  0.5262 -2.5413
 2486THY    CP362136   6.271   5.502   7.104  0.7101 -0.9391  0.4273
 2486THY    HP562137   6.316   5.597   7.137 -0.1079 -0.3898  0.0054
 2486THY    HP662138   6.340   5.420   7.125 -0.3757 -2.2545 -0.9283
 2486THY    HP762139   6.251   5.516   6.997 -0.5710 -0.6543  0.6817
 2486THY    CA362140   6.176   5.613   7.409 -0.3003 -0.4724 -0.2966
 2486THY    HA362141   6.150   5.709   7.363  0.4196  0.3401  0.9395
 2486THY    CA462142   6.196   5.619   7.547  0.1036 -0.3225 -0.0075
 2486THY    HA462143   6.174   5.714   7.596  2.3908  0.8155 -0.9891
 2486THY    CA562144   6.246   5.511   7.615  0.1797 -0.3463  0.6857
 2486THY    CM162145   6.283   5.516   7.757 -0.1442  0.5096  0.3340
 2486THY    HM162146   6.296   5.410   7.780 -0.3022  0.3824 -0.1628
 2486THY    HM262147   6.380   5.563   7.775 -1.0697  2.0137  1.6682
 2486THY    HM362148   6.200   5.553   7.820 -1.4183 -1.7663  0.0900
 2486THY    CA662149   6.262   5.391   7.541 -0.0523  0.7140 -0.5971
 2486THY    HA662150   6.305   5.309   7.597 -1.7592 -0.1308 -0.4591
 2487THY      O62151   9.401   3.980   9.759 -0.0645  0.1103  0.2215
 2487THY     HO62152   9.357   4.066   9.760 -2.2696 -0.9091 -1.1294
 2487THY    CA162153   9.523   4.004   9.711 -0.1886  0.8251 -0.1100
 2487THY    CA262154   9.632   3.910   9.716  0.4452 -0.2887  0.0666
 2487THY    CP162155   9.611   3.761   9.779 -0.1250 -0.7981  0.5725
 2487THY    HP162156   9.506   3.731   9.771 -0.7798  0.4548  3.4501
 2487THY    CP262157   9.685   3.652   9.700 -0.2143 -0.5453  0.0826
 2487THY    HP262158   9.655   3.661   9.595  2.2012  2.2981 -0.4901
 2487THY    HP362159   9.792   3.670   9.715 -0.2303  0.3147 -0.7192
 2487THY    HP462160   9.659   3.558   9.750 -0.2098 -0.1256  0.8905
 2487THY    CP362161   9.651   3.750   9.930  0.1822  0.1204  0.3930
 2487THY    HP562162   9.650   3.645   9.962 -0.1618 -0.1146 -0.3572
 2487THY    HP662163   9.751   3.785   9.957 -0.4940  2.2322  0.3090
 2487THY    HP762164   9.580   3.804   9.993  1.1593  2.4101 -0.3704
 2487THY    CA362165   9.765   3.947   9.682 -0.3900 -0.1772  0.5519
 2487THY    HA362166   9.853   3.887   9.699  0.5590 -0.5588 -4.2942
 2487THY    CA462167   9.784   4.070   9.623 -0.2716  0.6298 -0.0050
 2487THY    HA462168   9.884   4.100   9.590 -1.1630  2.3049 -1.3781
 2487THY    CA562169   9.678   4.158   9.613  0.3166 -0.3684 -0.8518
 2487THY    CM162170   9.705   4.294   9.553  0.2279  0.1900 -0.0472
 2487THY    HM162171   9.790   4.289   9.484 -0.3937  1.7145 -0.9662
 2487THY    HM262172   9.622   4.318   9.485  0.3010  1.3020  0.2421
 2487THY    HM362173   9.723   4.375   9.624 -0.8662  0.7632 -0.3942
 2487THY    CA662174   9.552   4.128   9.655  0.2862  0.8254  0.0292
 2487THY    HA662175   9.470   4.199   9.656 -0.7243 -0.2105 -2.1736
 2488THY      O62176   7.346   4.489   4.165  0.1861  0.1784 -0.2250
 2488THY     HO62177   7.405   4.566   4.172 -0.1432  0.3915  0.2645
 2488THY    CA162178   7.302   4.460   4.292  0.2730  0.0822 -0.2143
 2488THY    CA262179   7.177   4.393   4.316  0.1931 -0.1197  0.5786
 2488THY    CP162180   7.095   4.347   4.198 -0.4467  0.5324  0.3927
 2488THY    HP162181   7.152   4.365   4.107  0.4745 -0.6907  0.6926
 2488THY    CP262182   7.054   4.198   4.202 -0.3284 -0.7407 -0.0228
 2488THY    HP262183   7.008   4.166   4.108 -0.5541  1.3666 -0.6834
 2488THY    HP362184   7.146   4.137   4.205 -0.2762 -0.6669 -0.1299
 2488THY    HP462185   6.995   4.173   4.291 -1.3826  3.9904  0.8600
 2488THY    CP362186   6.963   4.437   4.204 -0.1301 -0.0152 -0.2826
 2488THY    HP562187   6.899   4.435   4.116 -0.5476  1.1178 -0.0257
 2488THY    HP662188   6.897   4.394   4.280 -0.8122  1.3579 -0.0577
 2488THY    HP762189   6.991   4.539   4.233  2.4456 -0.5283 -0.6623
 2488THY    CA362190   7.137   4.367   4.451 -0.5262 -0.0603  0.1026
 2488THY    HA362191   7.058   4.299   4.479  2.0762 -3.1509  0.5771
 2488THY    CA462192   7.230   4.404   4.554  0.3705  0.0665  0.5754
 2488THY    HA462193   7.210   4.393   4.660 -0.0636 -1.8153  0.3310
 2488THY    CA562194   7.349   4.468   4.523 -0.4027 -1.0707  1.0002
 2488THY    CM162195   7.432   4.520   4.627  0.7913 -0.1433  0.1559
 2488THY    HM162196   7.536   4.493   4.607  0.5564 -0.5242 -0.5976
 2488THY    HM262197   7.417   4.627   4.645 -0.6960 -0.3020  0.0454
 2488THY    HM362198   7.409   4.465   4.720 -2.7198  0.1728 -0.3843
 2488THY    CA662199   7.385   4.500   4.390  0.1034  0.4806 -0.4700
 2488THY    HA662200   7.484   4.538   4.365 -0.0480  1.4369  0.3155
 2489THY      O62201   1.332   9.604   0.002 -0.1138 -0.1858  0.1688
 2489THY     HO62202   1.240   9.587   0.029 -0.5080 -0.8940 -1.4774
 2489THY    CA162203   1.320   9.734  -0.035 -0.4291 -0.1892  0.6451
 2489THY    CA262204   1.317   9.844   0.054  0.0916  1.3160  0.4119
 2489THY    CP162205   1.337   9.807   0.207  0.2706 -0.2939 -0.2344
 2489THY    HP162206   1.280   9.715   0.221 -1.1587  0.5579 -0.2305
 2489THY    CP262207   1.484   9.773   0.235 -0.4544  0.4506 -0.3155
 2489THY    HP262208   1.550   9.837   0.176 -0.2301  0.2484 -0.2873
 2489THY    HP362209   1.503   9.772   0.343 -0.6490 -1.0057 -0.2804
 2489THY    HP462210   1.514   9.673   0.200  3.5413  1.5025 -0.3652
 2489THY    CP362211   1.280   9.913   0.311  0.3878  0.6221  0.2536
 2489THY    HP562212   1.182   9.944   0.272 -0.2159 -0.2449  1.0299
 2489THY    HP662213   1.276   9.865   0.410  4.2277 -1.2203 -0.3236
 2489THY    HP762214   1.347   9.999   0.324  1.0092 -0.0104  1.4586
 2489THY    CA362215   1.310   9.976   0.011 -0.2431  0.3942  0.3265
 2489THY    HA362216   1.306  10.063   0.077  1.6883  0.7943 -0.0259
 2489THY    CA462217   1.279  10.000  -0.122  0.5900  1.0011  0.8639
 2489THY    HA462218   1.271  10.105  -0.146  1.5223  1.1957  1.3616
 2489THY    CA562219   1.291   9.895  -0.213 -0.5478  0.3286  0.6042
 2489THY    CM162220   1.261   9.907  -0.363  0.0805 -0.0007 -0.3364
 2489THY    HM162221   1.153   9.917  -0.376 -0.0165 -0.0255  0.4342
 2489THY    HM262222   1.300   9.999  -0.407 -1.1320  0.4163 -0.5727
 2489THY    HM362223   1.295   9.824  -0.427 -1.4330  0.5869 -1.9989
 2489THY    CA662224   1.318   9.765  -0.172 -0.3062  0.3124  0.1975
 2489THY    HA662225   1.319   9.677  -0.236 -1.3843  0.3602  0.0993
 2490THY      O62226   3.645   9.507   4.216  0.2996  0.0912  0.5704
 2490THY     HO62227   3.601   9.591   4.195 -1.2837 -1.0611 -1.1174
 2490THY    CA162228   3.737   9.501   4.110  0.2184 -0.2263 -0.6815
 2490THY    CA262229   3.804   9.379   4.085 -0.1813  0.1008  0.7864
 2490THY    CP162230   3.779   9.250   4.161 -0.5412  0.7504 -0.9543
 2490THY    HP162231   3.711   9.248   4.246  1.5114 -0.8074  0.7517
 2490THY    CP262232   3.710   9.147   4.074 -0.0908 -0.0158  0.8091
 2490THY    HP262233   3.772   9.110   3.992 -1.4070 -0.6746  0.0850
 2490THY    HP362234   3.684   9.063   4.139 -0.1962  0.4155  1.3333
 2490THY    HP462235   3.617   9.183   4.030 -0.1166 -2.1642 -1.0175
 2490THY    CP362236   3.915   9.206   4.229  0.5860 -0.3699  0.0223
 2490THY    HP562237   3.886   9.111   4.276  0.8600 -0.1375  0.6781
 2490THY    HP662238   3.993   9.185   4.156  1.5173 -1.0612  1.1751
 2490THY    HP762239   3.943   9.277   4.308  2.4618 -0.6090 -0.3810
 2490THY    CA362240   3.891   9.373   3.972  0.2390  0.6015  0.1719
 2490THY    HA362241   3.941   9.283   3.939 -0.7561  0.2898 -0.5522
 2490THY    CA462242   3.915   9.487   3.893 -0.0753  0.0315  0.5608
 2490THY    HA462243   3.963   9.473   3.797 -1.6741 -0.9317 -0.1456
 2490THY    CA562244   3.838   9.607   3.923  0.3968 -0.0538  0.2272
 2490THY    CM162245   3.859   9.722   3.832  0.1111  0.4634  0.2015
 2490THY    HM162246   3.813   9.804   3.889  0.8331  0.7794  0.3434
 2490THY    HM262247   3.967   9.741   3.826  0.4122 -1.3530 -0.8317
 2490THY    HM362248   3.813   9.717   3.733  1.0421 -2.7935 -0.1889
 2490THY    CA662249   3.760   9.617   4.036  0.3206  0.2335  0.9806
 2490THY    HA662250   3.701   9.707   4.051  1.6252  1.2545  0.1928
 2491THY      O62251   0.393   0.878   6.095  0.7372 -0.6787  0.0433
 2491THY     HO62252   0.383   0.974   6.085  1.4408 -0.6424 -0.4084
 2491THY    CA162253   0.498   0.864   6.173  0.4313  0.6888  0.4052
 2491THY    CA262254   0.494   0.748   6.249 -1.0509 -0.2752 -0.1512
 2491THY    CP162255   0.379   0.651   6.251 -0.6717  0.1978  0.6214
 2491THY    HP162256   0.325   0.661   6.156  1.3233 -0.0858 -0.6137
 2491THY    CP262257   0.434   0.510   6.263 -0.0933  0.0911 -0.4243
 2491THY    HP262258   0.356   0.444   6.222  1.3694 -0.7987 -1.8727
 2491THY    HP362259   0.529   0.484   6.216 -0.0534  1.2408 -0.9958
 2491THY    HP462260   0.450   0.500   6.371  2.2453  0.1649 -0.7228
 2491THY    CP362261   0.290   0.689   6.378  0.6731 -0.2577  0.1249
 2491THY    HP562262   0.350   0.703   6.469  1.4489 -1.6731 -0.1343
 2491THY    HP662263   0.234   0.782   6.363  1.9256  0.5110  0.0506
 2491THY    HP762264   0.212   0.615   6.397  0.6170 -0.5679 -1.2730
 2491THY    CA362265   0.603   0.735   6.336 -0.0579 -0.7079 -0.4398
 2491THY    HA362266   0.603   0.645   6.398  0.4117 -1.6587 -1.7894
 2491THY    CA462267   0.715   0.816   6.326 -0.9854  0.1824 -0.0087
 2491THY    HA462268   0.796   0.792   6.394 -2.7586  0.1566  2.1698
 2491THY    CA562269   0.710   0.931   6.252 -0.7596 -0.8996 -0.1236
 2491THY    CM162270   0.822   1.034   6.272 -0.1335  0.0644 -0.0677
 2491THY    HM162271   0.794   1.139   6.260  0.4988  0.1621 -0.7451
 2491THY    HM262272   0.866   1.028   6.372 -1.8423  0.6205  0.7540
 2491THY    HM362273   0.904   1.005   6.205 -1.7467 -1.2608 -1.5806
 2491THY    CA662274   0.596   0.957   6.173 -0.6967 -0.3396 -0.5510
 2491THY    HA662275   0.587   1.050   6.117  2.5573  0.5995  0.2632
 2492THY      O62276   2.475   9.235   6.820 -0.1688  0.1865 -0.2296
 2492THY     HO62277   2.437   9.182   6.747  0.7469 -0.4535 -0.2542
 2492THY    CA162278   2.514   9.351   6.760 -0.0714  0.2811  0.0778
 2492THY    CA262279   2.627   9.424   6.808  0.0159  1.0682 -0.9528
 2492THY    CP162280   2.702   9.365   6.930  0.0485 -0.3482 -0.0514
 2492THY    HP162281   2.627   9.317   6.994  1.3247 -2.3851  0.0094
 2492THY    CP262282   2.802   9.250   6.890 -0.0197 -0.7508  0.0906
 2492THY    HP262283   2.831   9.193   6.979  0.5300 -1.3860 -0.4773
 2492THY    HP362284   2.752   9.173   6.830 -0.3321 -1.3146  1.0506
 2492THY    HP462285   2.897   9.282   6.846 -0.4954  0.1414 -0.3133
 2492THY    CP362286   2.777   9.471   7.007 -0.5095 -0.5619 -0.4565
 2492THY    HP562287   2.821   9.444   7.104 -1.4248  0.9923  0.4292
 2492THY    HP662288   2.859   9.520   6.953 -0.6326  0.5223  0.3056
 2492THY    HP762289   2.713   9.553   7.040 -1.4382 -1.6822  0.6130
 2492THY    CA362290   2.660   9.546   6.750 -0.0834  0.9324 -0.0308
 2492THY    HA362291   2.734   9.611   6.796  0.3948  0.8615 -0.6779
 2492THY    CA462292   2.574   9.600   6.653 -0.2227  0.2451  0.4776
 2492THY    HA462293   2.598   9.699   6.617  2.0013 -0.9632 -1.7121
 2492THY    CA562294   2.459   9.535   6.616  0.0171  0.8045  0.1754
 2492THY    CM162295   2.362   9.601   6.522 -0.5935 -0.0883 -0.0325
 2492THY    HM162296   2.300   9.669   6.582  0.9273  2.5456 -1.2494
 2492THY    HM262297   2.413   9.663   6.447  0.6380 -0.6392  0.3198
 2492THY    HM362298   2.297   9.531   6.469  0.6946 -0.4599 -1.1635
 2492THY    CA662299   2.430   9.410   6.668 -0.2950 -0.3448 -0.0940
 2492THY    HA662300   2.335   9.366   6.642 -0.4904 -0.0512  0.1201
 2493THY      O62301   4.328   6.443   6.448 -0.1428  0.4197  0.1821
 2493THY     HO62302   4.244   6.467   6.405  0.5030  0.0484 -1.3493
 2493THY    CA162303   4.309   6.323   6.505  0.0118  0.0226  0.1786
 2493THY    CA262304   4.414   6.245   6.561 -0.3027  0.2538 -0.2473
 2493THY    CP162305   4.559   6.292   6.543  0.3190  0.7599 -0.5164
 2493THY    HP162306   4.565   6.388   6.490  1.6961  0.6699 -0.5566
 2493THY    CP262307   4.628   6.311   6.684 -0.4007 -0.5031 -0.1274
 2493THY    HP262308   4.600   6.399   6.743 -0.5001 -0.3874 -0.3486
 2493THY    HP362309   4.632   6.220   6.746 -1.0981 -0.6454 -0.2743
 2493THY    HP462310   4.732   6.332   6.659 -1.2141  1.5876 -2.1363
 2493THY    CP362311   4.630   6.184   6.472  0.1302  0.9503  0.0428
 2493THY    HP562312   4.579   6.167   6.377  1.0902  2.2600 -0.7369
 2493THY    HP662313   4.734   6.204   6.444  0.1356 -1.1015 -1.7377
 2493THY    HP762314   4.628   6.092   6.533  0.3547 -0.0582 -1.4291
 2493THY    CA362315   4.384   6.127   6.626 -0.2041 -0.1083  0.1405
 2493THY    HA362316   4.463   6.064   6.664 -0.5864 -1.2312 -0.8580
 2493THY    CA462317   4.252   6.085   6.637 -0.4862 -0.3047  0.0839
 2493THY    HA462318   4.220   5.989   6.677 -1.6189  0.2321  0.5151
 2493THY    CA562319   4.149   6.163   6.591 -0.3412 -0.4022 -0.1139
 2493THY    CM162320   4.010   6.107   6.579 -0.4974  0.4848  0.2427
 2493THY    HM162321   3.990   6.037   6.662 -0.2211  1.1875  0.9210
 2493THY    HM262322   3.933   6.184   6.593 -1.8081 -0.8448  0.6501
 2493THY    HM362323   3.992   6.060   6.482 -0.6964 -1.6704  1.2664
 2493THY    CA662324   4.175   6.282   6.516  0.1826  0.0607 -0.2329
 2493THY    HA662325   4.092   6.339   6.475 -1.7128 -1.9514  0.6119
 2494THY      O62326   5.667   8.007   4.488 -0.2789 -0.2216 -0.0993
 2494THY     HO62327   5.734   8.077   4.488  1.6456 -1.9662  0.8706
 2494THY    CA162328   5.718   7.888   4.442  0.3313 -0.2922  0.4398
 2494THY    CA262329   5.855   7.849   4.456  0.0087  0.4880  0.6295
 2494THY    CP162330   5.962   7.951   4.496  0.0214 -0.3380 -0.8474
 2494THY    HP162331   5.920   8.034   4.554 -1.2159  0.0001 -2.1703
 2494THY    CP262332   6.084   7.897   4.569  0.0067 -0.1493 -0.1190
 2494THY    HP262333   6.063   7.851   4.666 -0.1441 -0.4992 -0.3145
 2494THY    HP362334   6.135   7.817   4.513 -0.6317 -1.6385  1.3397
 2494THY    HP462335   6.161   7.972   4.591  1.3381 -1.7961  1.1493
 2494THY    CP362336   6.007   8.016   4.365  0.5714  0.1956  0.8805
 2494THY    HP562337   6.045   7.938   4.298 -1.8931 -1.2055  1.0188
 2494THY    HP662338   5.926   8.058   4.305 -0.5744 -1.4742  1.1821
 2494THY    HP762339   6.083   8.092   4.386 -1.6560  3.0588 -0.7341
 2494THY    CA362340   5.881   7.710   4.422  0.6191 -0.0636 -0.2304
 2494THY    HA362341   5.979   7.666   4.433  0.8797  0.5101 -0.2249
 2494THY    CA462342   5.775   7.623   4.383 -0.7220  0.0649  0.1752
 2494THY    HA462343   5.799   7.517   4.373  1.2588  0.5813 -0.9814
 2494THY    CA562344   5.650   7.671   4.353  0.1844  0.4943  0.1397
 2494THY    CM162345   5.535   7.581   4.317 -0.0323  0.2469  0.4695
 2494THY    HM162346   5.566   7.476   4.319  0.5719  0.3908 -0.4889
 2494THY    HM262347   5.444   7.602   4.374 -2.0536  0.4340 -2.5477
 2494THY    HM362348   5.499   7.594   4.214  0.9132 -0.0867  0.0837
 2494THY    CA662349   5.623   7.805   4.390  0.6346 -0.3884 -0.2678
 2494THY    HA662350   5.520   7.838   4.387  0.9201  0.5759  0.0964
 2495THY      O62351   8.116   7.398   3.599 -0.2370 -0.4743  0.0862
 2495THY     HO62352   8.039   7.427   3.651 -0.5976 -0.5800 -0.3825
 2495THY    CA162353   8.175   7.513   3.561 -0.5665  0.0294  1.1592
 2495THY    CA262354   8.302   7.522   3.493 -1.0183  0.7982  0.2140
 2495THY    CP162355   8.372   7.393   3.436  0.0483 -0.1784 -0.2514
 2495THY    HP162356   8.311   7.303   3.448  0.1319 -0.1182  0.7097
 2495THY    CP262357   8.424   7.403   3.286 -0.1454 -0.6155 -0.4856
 2495THY    HP262358   8.495   7.325   3.259  2.0750  1.4847 -1.0044
 2495THY    HP362359   8.343   7.407   3.212  0.0750 -0.6511 -0.7264
 2495THY    HP462360   8.481   7.496   3.273 -2.4838  2.0069  4.7516
 2495THY    CP362361   8.501   7.367   3.519  0.3546 -0.1033 -0.1387
 2495THY    HP562362   8.534   7.265   3.498  2.5753  0.4833  0.2576
 2495THY    HP662363   8.581   7.435   3.489  0.4534 -0.1185  0.0881
 2495THY    HP762364   8.478   7.374   3.626 -0.2836  3.3450 -0.3848
 2495THY    CA362365   8.350   7.645   3.450 -0.5319 -0.3998  0.4344
 2495THY    HA362366   8.437   7.658   3.387 -0.3788 -0.2997  0.6635
 2495THY    CA462367   8.288   7.758   3.496 -0.2774 -0.8617  0.2081
 2495THY    HA462368   8.336   7.852   3.471  1.8665 -1.2664  2.4004
 2495THY    CA562369   8.165   7.755   3.565 -0.5281 -0.2603 -0.4836
 2495THY    CM162370   8.097   7.886   3.599  0.1096  0.5714  0.5660
 2495THY    HM162371   8.155   7.974   3.569  0.4710 -0.6784 -2.8807
 2495THY    HM262372   8.007   7.896   3.536 -0.9810 -0.5485  1.8817
 2495THY    HM362373   8.050   7.888   3.697 -0.6016 -0.1668  0.2546
 2495THY    CA662374   8.108   7.632   3.589 -0.1031 -0.4784 -0.4360
 2495THY    HA662375   8.006   7.632   3.628 -0.1322 -1.6965 -0.4726
 2496THY      O62376   8.656   6.250   7.501 -0.1309  0.0583  0.9369
 2496THY     HO62377   8.751   6.231   7.502 -0.2090 -0.3493  1.0429
 2496THY    CA162378   8.638   6.377   7.533  0.3727  0.6620 -0.0099
 2496THY    CA262379   8.529   6.443   7.481  0.6163 -0.3566  0.4871
 2496THY    CP162380   8.421   6.364   7.403 -0.1467 -0.2105 -0.0607
 2496THY    HP162381   8.471   6.280   7.354 -1.1878  0.2515 -2.0204
 2496THY    CP262382   8.318   6.321   7.503  0.2878 -0.4090 -0.1123
 2496THY    HP262383   8.237   6.275   7.446  0.6204 -1.3053  0.1154
 2496THY    HP362384   8.353   6.238   7.566 -0.5696 -1.6545 -1.2150
 2496THY    HP462385   8.282   6.407   7.561 -0.2933 -2.0123  2.0505
 2496THY    CP362386   8.357   6.443   7.284  0.1248  0.4848 -0.8668
 2496THY    HP562387   8.310   6.379   7.209  0.1362 -0.1963 -0.3022
 2496THY    HP662388   8.275   6.505   7.323 -1.0712 -1.7253  0.3201
 2496THY    HP762389   8.436   6.512   7.251  1.1442 -0.6711 -0.9148
 2496THY    CA362390   8.510   6.579   7.519 -0.3129  0.4697 -0.0203
 2496THY    HA362391   8.431   6.643   7.480 -0.1150  0.3627 -0.5983
 2496THY    CA462392   8.605   6.648   7.593  0.3368  0.8324 -0.2863
 2496THY    HA462393   8.587   6.753   7.611 -0.2700  0.7140 -0.1770
 2496THY    CA562394   8.720   6.577   7.631  0.3550  0.6537 -0.1223
 2496THY    CM162395   8.829   6.642   7.706 -0.6496 -0.3732  0.0052
 2496THY    HM162396   8.795   6.664   7.808 -0.3069 -1.7796  0.4462
 2496THY    HM262397   8.920   6.583   7.693  1.0010  1.8096  0.8761
 2496THY    HM362398   8.853   6.738   7.659 -0.0930 -0.5413 -0.0609
 2496THY    CA662399   8.730   6.439   7.614  0.4711 -0.0917  0.2221
 2496THY    HA662400   8.818   6.386   7.649 -0.1135 -2.4100 -1.5694
 2497THY      O62401   4.116   8.442   3.017  0.1419  0.5426 -0.1856
 2497THY     HO62402   4.060   8.363   3.012  0.6292  0.0650  1.2152
 2497THY    CA162403   4.220   8.429   2.932 -0.5961 -0.4537 -0.1384
 2497THY    CA262404   4.285   8.547   2.884  0.3771  0.3711  0.2962
 2497THY    CP162405   4.223   8.685   2.919 -0.4599  0.0236  0.0343
 2497THY    HP162406   4.115   8.677   2.938 -0.2976  2.4925  2.7270
 2497THY    CP262407   4.290   8.748   3.043 -0.3004  0.2825 -0.1998
 2497THY    HP262408   4.233   8.826   3.095 -0.8624 -1.1990  1.5039
 2497THY    HP362409   4.307   8.663   3.109  2.6288  1.9139  1.3347
 2497THY    HP462410   4.390   8.783   3.014 -1.2561  2.2379 -1.4091
 2497THY    CP362411   4.238   8.777   2.799 -0.0886 -0.6935 -0.4448
 2497THY    HP562412   4.194   8.749   2.703 -0.6965  1.1416 -0.7455
 2497THY    HP662413   4.189   8.871   2.824 -0.2098 -0.8669 -0.0115
 2497THY    HP762414   4.344   8.802   2.787  0.6194 -2.2162  1.9377
 2497THY    CA362415   4.393   8.533   2.793 -0.0970 -0.0299 -0.3869
 2497THY    HA362416   4.445   8.618   2.750 -1.1350  0.6432 -0.3319
 2497THY    CA462417   4.436   8.400   2.770 -0.5454 -0.9771 -0.7648
 2497THY    HA462418   4.527   8.382   2.714  0.2596  1.2353 -0.2586
 2497THY    CA562419   4.379   8.292   2.836 -0.3580  0.1946 -0.0686
 2497THY    CM162420   4.429   8.148   2.808  0.3919 -0.1681 -0.5703
 2497THY    HM162421   4.364   8.098   2.735 -0.3808 -1.0709  0.7104
 2497THY    HM262422   4.529   8.155   2.763 -0.1215 -0.5374 -1.8156
 2497THY    HM362423   4.441   8.095   2.903 -1.9143 -1.1257 -0.7562
 2497THY    CA662424   4.266   8.302   2.910  0.6628  0.7587  0.8295
 2497THY    HA662425   4.218   8.211   2.944  0.8863  0.2507 -0.1766
 2498THY      O62426   9.599   9.737   8.944  0.4605  0.5982  0.7760
 2498THY     HO62427   9.502   9.734   8.937  0.4851  1.2460  0.0566
 2498THY    CA162428   9.638   9.861   8.954  0.3886 -0.7697  0.4723
 2498THY    CA262429   9.615   9.942   9.065 -0.7611  0.7605 -0.1068
 2498THY    CP162430   9.550   9.883   9.189  0.6301 -0.0463  0.4583
 2498THY    HP162431   9.538   9.775   9.182  0.1626  0.0055  0.4434
 2498THY    CP262432   9.632   9.916   9.314 -0.2515  0.7332 -0.4352
 2498THY    HP262433   9.741   9.912   9.301 -0.2361  0.8070 -0.3171
 2498THY    HP362434   9.599  10.008   9.362 -1.9717  0.4461 -1.0028
 2498THY    HP462435   9.604   9.831   9.377 -0.1817 -0.7317 -2.2791
 2498THY    CP362436   9.407   9.938   9.204  0.4678  0.7212 -0.0802
 2498THY    HP562437   9.417  10.041   9.239 -1.8526  0.5737  1.2229
 2498THY    HP662438   9.345   9.922   9.115 -0.9091 -0.8866  1.0981
 2498THY    HP762439   9.354   9.890   9.287  0.9618  1.0622  0.4325
 2498THY    CA362440   9.668  10.073   9.065  0.2312  0.0894  0.3838
 2498THY    HA362441   9.647  10.145   9.143 -0.8044 -0.2560  0.4449
 2498THY    CA462442   9.739  10.120   8.950 -0.7454 -0.2941 -0.1572
 2498THY    HA462443   9.780  10.221   8.942 -0.7199 -0.3217 -0.4049
 2498THY    CA562444   9.766  10.040   8.840 -0.1564  0.7781  0.1839
 2498THY    CM162445   9.846  10.083   8.719  0.2977 -0.4948 -0.4130
 2498THY    HM162446   9.880  10.002   8.653  0.3564 -2.1663  1.5593
 2498THY    HM262447   9.780  10.140   8.652 -0.2617 -0.3067  0.2909
 2498THY    HM362448   9.936  10.137   8.751 -2.0157  2.2941  1.9177
 2498THY    CA662449   9.711   9.906   8.842 -0.7305  0.2464 -0.4957
 2498THY    HA662450   9.735   9.824   8.776  1.1922  0.8940 -0.6451
 2499THY      O62451   8.462   6.883   7.362  0.2636  0.0191 -0.1292
 2499THY     HO62452   8.525   6.936   7.413 -1.6018  2.7602 -0.4622
 2499THY    CA162453   8.493   6.935   7.241  0.3492 -0.4220  0.0551
 2499THY    CA262454   8.416   6.897   7.128 -0.1833  0.1653 -0.1972
 2499THY    CP162455   8.295   6.801   7.133  0.3314 -0.5320  0.3533
 2499THY    HP162456   8.284   6.742   7.224 -1.3286  0.8364  1.1062
 2499THY    CP262457   8.167   6.885   7.140  0.1871 -0.2114 -0.4029
 2499THY    HP262458   8.082   6.847   7.083  0.1293 -0.1491 -0.3580
 2499THY    HP362459   8.130   6.882   7.244  1.6267 -0.1840  0.1337
 2499THY    HP462460   8.183   6.985   7.098 -1.7777 -0.0528 -0.8475
 2499THY    CP362461   8.281   6.706   7.013 -0.1954  0.4022  0.5071
 2499THY    HP562462   8.373   6.677   6.962  0.0360  0.4842  0.8762
 2499THY    HP662463   8.244   6.611   7.053  1.4824  0.2963  1.8871
 2499THY    HP762464   8.208   6.744   6.940 -0.6437 -2.6650 -0.7910
 2499THY    CA362465   8.463   6.943   7.002 -0.5451 -0.3867 -0.6998
 2499THY    HA362466   8.412   6.912   6.911  0.8846 -0.2211 -1.5898
 2499THY    CA462467   8.574   7.020   7.003 -1.5209 -0.1808 -0.0010
 2499THY    HA462468   8.620   7.048   6.909 -0.6911  0.5302  0.5938
 2499THY    CA562469   8.645   7.061   7.112  0.2853  0.2419 -0.3550
 2499THY    CM162470   8.760   7.167   7.103 -0.0975  0.1691  0.0423
 2499THY    HM162471   8.834   7.167   7.184 -1.0044  0.4030  0.8742
 2499THY    HM262472   8.823   7.152   7.014 -1.0266 -1.9074 -0.3310
 2499THY    HM362473   8.719   7.267   7.091  0.6510  0.5687  0.6914
 2499THY    CA662474   8.603   7.017   7.233  0.0355 -0.3528 -0.1171
 2499THY    HA662475   8.662   7.042   7.321  0.3346  2.6966 -1.0642
 2500THY      O62476   9.766   5.075   1.952  0.3068  0.7940  0.3312
 2500THY     HO62477   9.820   5.141   1.904 -0.2910  1.0122 -0.0470
 2500THY    CA162478   9.647   5.120   1.997 -0.1456 -0.8296 -0.2168
 2500THY    CA262479   9.542   5.030   2.015 -0.1078  0.0605  0.1879
 2500THY    CP162480   9.543   4.887   1.957  0.3380  0.0954  0.2364
 2500THY    HP162481   9.624   4.869   1.884  0.0289  0.5211 -0.2141
 2500THY    CP262482   9.563   4.774   2.058  0.5743 -0.1083 -0.0897
 2500THY    HP262483   9.587   4.680   2.007  2.3548 -0.4972  1.3766
 2500THY    HP362484   9.654   4.794   2.115  0.9017  1.1998 -1.0226
 2500THY    HP462485   9.478   4.766   2.127 -0.1835  0.7142 -0.9077
 2500THY    CP362486   9.415   4.857   1.880  0.0869  0.1043 -0.1118
 2500THY    HP562487   9.408   4.942   1.812  1.4125  0.4435  0.1596
 2500THY    HP662488   9.417   4.764   1.823 -0.0620 -0.4601  0.7707
 2500THY    HP762489   9.329   4.845   1.948  0.3860 -0.2205  0.2184
 2500THY    CA362490   9.424   5.072   2.089  0.5362 -0.3833  0.0954
 2500THY    HA362491   9.338   5.007   2.094 -0.4512  0.7521 -1.4030
 2500THY    CA462492   9.421   5.198   2.148  0.4664  0.1318  0.0590
 2500THY    HA462493   9.333   5.233   2.202  0.0690  1.0083 -1.1161
 2500THY    CA562494   9.535   5.284   2.138  0.7602  0.1084 -0.7179
 2500THY    CM162495   9.543   5.422   2.217 -0.3512  0.1203 -0.3200
 2500THY    HM162496   9.643   5.447   2.255  0.4944 -3.3875  0.0948
 2500THY    HM262497   9.510   5.495   2.142  2.0615  2.3315  0.5633
 2500THY    HM362498   9.474   5.421   2.302  0.0490 -0.8840  0.0058
 2500THY    CA662499   9.648   5.243   2.067  1.5756  0.1786  0.0226
 2500THY    HA662500   9.736   5.306   2.067  1.2578  0.8105 -3.0667
 2501THY      O62501   2.526   3.522   5.926  0.2621 -0.2289  0.0289
 2501THY     HO62502   2.527   3.447   5.864  0.9360 -0.2717  0.0811
 2501THY    CA162503   2.444   3.613   5.870  0.2112 -0.9461 -0.4193
 2501THY    CA262504   2.405   3.730   5.942 -0.1654 -0.2200 -0.4988
 2501THY    CP162505   2.462   3.751   6.082 -0.7647 -0.3437 -0.6634
 2501THY    HP162506   2.550   3.688   6.096  1.7654  3.0340 -0.0864
 2501THY    CP262507   2.526   3.893   6.101  0.2572  0.0604  0.6622
 2501THY    HP262508   2.462   3.977   6.073  0.9627  0.4149  0.0798
 2501THY    HP362509   2.543   3.901   6.209  0.1778 -3.2752  1.0096
 2501THY    HP462510   2.628   3.910   6.063  0.1685  0.1587  0.4656
 2501THY    CP362511   2.364   3.730   6.199 -0.1599 -0.3036  0.0878
 2501THY    HP562512   2.304   3.638   6.191 -0.2206 -0.2251 -0.3860
 2501THY    HP662513   2.432   3.730   6.284 -0.1459  0.9899  0.0831
 2501THY    HP762514   2.302   3.820   6.203  0.4482  0.4084 -3.4356
 2501THY    CA362515   2.315   3.819   5.881 -0.6548  0.3978 -0.1414
 2501THY    HA362516   2.277   3.911   5.923 -0.2097  2.1972 -3.3528
 2501THY    CA462517   2.274   3.801   5.753  0.2059 -0.0154 -0.1776
 2501THY    HA462518   2.203   3.869   5.707 -0.3353 -0.5898 -0.2062
 2501THY    CA562519   2.313   3.692   5.685 -0.4428  0.5594  0.0889
 2501THY    CM162520   2.287   3.673   5.538 -0.5810  0.3813  0.0864
 2501THY    HM162521   2.355   3.604   5.487 -1.2293  0.4300 -0.8734
 2501THY    HM262522   2.196   3.614   5.518  0.1783 -0.0769 -2.2238
 2501THY    HM362523   2.272   3.771   5.492  0.6884 -0.0372 -1.2671
 2501THY    CA662524   2.398   3.590   5.740  0.6275  0.1886  0.0347
 2501THY    HA662525   2.419   3.499   5.684  1.5042  1.0288 -1.0476
 2502THY      O62526   4.022   1.396   5.595 -0.0855 -0.5289 -0.1693
 2502THY     HO62527   4.035   1.299   5.599  0.2968 -0.4570  2.8155
 2502THY    CA162528   4.134   1.456   5.633 -0.1002 -0.5215 -0.1711
 2502THY    CA262529   4.180   1.580   5.577  0.5222  0.4870  0.1975
 2502THY    CP162530   4.115   1.638   5.447  0.4380 -0.3871 -0.0885
 2502THY    HP162531   4.020   1.591   5.421  0.2948  0.4989 -1.2588
 2502THY    CP262532   4.076   1.788   5.460 -0.2988  0.6642  0.2137
 2502THY    HP262533   4.165   1.850   5.478  1.9168 -2.0896 -0.6499
 2502THY    HP362534   4.023   1.817   5.368 -1.4739 -1.8351  0.0131
 2502THY    HP462535   4.004   1.801   5.542 -0.8286  1.6015 -0.3742
 2502THY    CP362536   4.201   1.614   5.319 -0.3412  0.3433  0.3536
 2502THY    HP562537   4.270   1.697   5.300  0.2721 -0.1272  0.5058
 2502THY    HP662538   4.251   1.517   5.325  0.3701  0.7317  0.9258
 2502THY    HP762539   4.134   1.615   5.232  0.3595  0.6234 -0.1904
 2502THY    CA362540   4.288   1.638   5.645 -0.1084  0.1926 -0.4082
 2502THY    HA362541   4.323   1.736   5.614  0.2196  1.1310  2.6118
 2502THY    CA462542   4.360   1.574   5.746  0.7923  0.7260 -0.2185
 2502THY    HA462543   4.450   1.623   5.781  1.0611 -1.0111  1.7218
 2502THY    CA562544   4.313   1.443   5.791 -0.7322 -0.3692  0.2767
 2502THY    CM162545   4.380   1.390   5.919 -0.3570 -0.1131  0.6184
 2502THY    HM162546   4.322   1.340   5.997  0.2806 -2.2661 -0.2093
 2502THY    HM262547   4.430   1.301   5.878  0.0110 -0.2627  1.3691
 2502THY    HM362548   4.463   1.454   5.951  0.2466  0.4618 -1.9010
 2502THY    CA662549   4.198   1.388   5.739 -1.0121 -0.4825  0.2608
 2502THY    HA662550   4.156   1.295   5.778 -0.2093 -0.7303  0.5589
 2503THY      O62551   9.135   6.941   6.158  0.0719 -0.0191  0.2386
 2503THY     HO62552   9.186   7.022   6.173  0.4815  0.0192 -1.2327
 2503THY    CA162553   9.087   6.953   6.031 -0.4343  0.4736  0.5154
 2503THY    CA262554   8.991   6.865   5.977  0.1329  0.1570 -0.8745
 2503THY    CP162555   8.924   6.765   6.072  0.2883 -0.5061 -0.1669
 2503THY    HP162556   8.917   6.811   6.171  2.2552 -0.4431 -0.0173
 2503THY    CP262557   8.773   6.742   6.032 -0.4239  0.2770 -0.8002
 2503THY    HP262558   8.726   6.667   6.096 -0.1866  0.5734 -0.2591
 2503THY    HP362559   8.723   6.839   6.040 -0.2867  0.2968 -0.0493
 2503THY    HP462560   8.757   6.687   5.939 -1.5667 -0.8906  0.0555
 2503THY    CP362561   8.992   6.632   6.089  0.7454  0.2329  0.0955
 2503THY    HP562562   9.098   6.637   6.115  0.8754  1.6764 -0.6292
 2503THY    HP662563   8.939   6.572   6.164  1.2446 -1.2420 -0.6900
 2503THY    HP762564   8.984   6.580   5.993 -0.2548 -2.1192  1.3486
 2503THY    CA362565   8.967   6.872   5.839  0.5362  0.1772  0.1982
 2503THY    HA362566   8.905   6.797   5.791 -1.1300  1.0990  0.8348
 2503THY    CA462567   9.024   6.978   5.762  0.4142  0.3781  0.2084
 2503THY    HA462568   8.998   6.981   5.656  0.4880  1.6644  0.2124
 2503THY    CA562569   9.109   7.073   5.823 -0.3003  0.0425  0.6191
 2503THY    CM162570   9.170   7.171   5.727  0.3506 -0.1745  0.0677
 2503THY    HM162571   9.271   7.193   5.763  0.0850 -0.3463  0.9450
 2503THY    HM262572   9.180   7.132   5.625 -0.1545  2.2080 -0.9580
 2503THY    HM362573   9.103   7.256   5.712 -0.0957 -0.5027  0.1880
 2503THY    CA662574   9.143   7.063   5.955 -0.1430  0.4079 -0.5686
 2503THY    HA662575   9.200   7.139   6.007 -2.5214  0.9047  1.5335
 2504THY      O62576   7.309   0.214   3.817 -0.0519 -0.1776  0.0296
 2504THY     HO62577   7.235   0.266   3.854 -1.3745 -0.3695 -2.1328
 2504THY    CA162578   7.417   0.284   3.865 -0.4099 -0.9257  0.4510
 2504THY    CA262579   7.550   0.241   3.863 -0.2581 -0.8107  0.1171
 2504THY    CP162580   7.580   0.107   3.805 -0.1464  0.0258  0.4666
 2504THY    HP162581   7.485   0.052   3.800  0.0344 -0.2035 -2.8614
 2504THY    CP262582   7.610   0.124   3.654  0.3429  0.0234 -0.3332
 2504THY    HP262583   7.597   0.026   3.607 -0.3669  0.1763 -0.4744
 2504THY    HP362584   7.537   0.187   3.602  1.2273  0.0326 -1.6125
 2504THY    HP462585   7.715   0.154   3.652 -0.1604  1.9987  0.6094
 2504THY    CP362586   7.681   0.022   3.878 -0.3710 -0.0756  0.1825
 2504THY    HP562587   7.704  -0.067   3.818 -0.6211 -0.3153  0.4395
 2504THY    HP662588   7.776   0.069   3.906  0.3822 -0.6292 -1.3113
 2504THY    HP762589   7.640  -0.017   3.972  2.5999 -1.4876  1.0400
 2504THY    CA362590   7.650   0.330   3.912  0.3235  0.1152  0.3859
 2504THY    HA362591   7.753   0.296   3.918 -0.1627 -1.5953 -0.5167
 2504THY    CA462592   7.614   0.445   3.980  0.1864 -1.1024 -0.0797
 2504THY    HA462593   7.684   0.514   4.027 -0.7699 -0.3062  0.1955
 2504THY    CA562594   7.481   0.491   3.978 -0.0010 -0.3058  0.1022
 2504THY    CM162595   7.450   0.629   4.036  0.4369 -0.0789 -0.4135
 2504THY    HM162596   7.457   0.707   3.959  0.0218  0.1715 -0.1992
 2504THY    HM262597   7.353   0.641   4.086  1.2038 -1.7444  1.5675
 2504THY    HM362598   7.529   0.659   4.106  0.1792  0.4991 -0.3613
 2504THY    CA662599   7.385   0.414   3.915  0.2809  0.0603 -0.0893
 2504THY    HA662600   7.282   0.448   3.921 -0.9544 -2.6211 -2.9563
 2505THY      O62601   4.444   7.549   3.887 -0.8568  0.4493 -0.3630
 2505THY     HO62602   4.461   7.555   3.982  2.5763  0.3210 -0.8176
 2505THY    CA162603   4.372   7.452   3.843  0.5329  0.0302  0.5574
 2505THY    CA262604   4.384   7.409   3.711 -0.8630 -0.1355  0.1826
 2505THY    CP162605   4.459   7.493   3.608  0.3146 -0.5342 -0.5789
 2505THY    HP162606   4.478   7.591   3.653  1.5330 -1.2135  0.4336
 2505THY    CP262607   4.602   7.442   3.578 -0.5733 -0.3733 -0.2599
 2505THY    HP262608   4.660   7.532   3.553 -0.2287 -0.5350 -0.0538
 2505THY    HP362609   4.653   7.413   3.671 -0.5476 -0.5471 -0.3286
 2505THY    HP462610   4.609   7.358   3.508  3.3526 -0.2931 -0.2097
 2505THY    CP362611   4.379   7.521   3.482 -0.4386  0.1636  0.1889
 2505THY    HP562612   4.345   7.430   3.431  1.0598 -1.0267  1.2296
 2505THY    HP662613   4.296   7.590   3.502 -0.6681  0.4842 -1.7094
 2505THY    HP762614   4.436   7.578   3.408  0.2518 -1.9195 -0.9553
 2505THY    CA362615   4.319   7.295   3.670  0.3327 -0.0695  0.0360
 2505THY    HA362616   4.335   7.255   3.570  0.2936  0.7932 -0.3223
 2505THY    CA462617   4.229   7.227   3.759  0.3446  0.1834  0.1110
 2505THY    HA462618   4.170   7.151   3.709  0.9814  0.0062 -0.3862
 2505THY    CA562619   4.210   7.276   3.887  0.2705 -1.0692  0.2471
 2505THY    CM162620   4.087   7.226   3.971 -1.0755 -0.0250 -0.3287
 2505THY    HM162621   4.118   7.194   4.071  1.2697 -0.1408 -1.0348
 2505THY    HM262622   4.025   7.314   3.990 -1.8218 -0.9311  1.7565
 2505THY    HM362623   4.026   7.149   3.923 -1.4941  1.4330 -2.2730
 2505THY    CA662624   4.289   7.383   3.932 -0.2417 -0.1534 -0.0740
 2505THY    HA662625   4.290   7.408   4.038 -0.1082 -1.5789  0.2830
 2506THY      O62626   6.757   8.773   6.753  0.7823 -0.5902  0.0242
 2506THY     HO62627   6.660   8.783   6.753  0.8151 -0.2537  0.6560
 2506THY    CA162628   6.785   8.826   6.876 -0.3213  0.3412  0.5656
 2506THY    CA262629   6.914   8.835   6.937 -0.0630 -0.0219  0.1089
 2506THY    CP162630   7.031   8.755   6.878 -0.0622  0.4070  0.0792
 2506THY    HP162631   7.009   8.744   6.772 -1.5523 -0.9463  0.4960
 2506THY    CP262632   7.164   8.822   6.906  0.2645  0.2410  0.4321
 2506THY    HP262633   7.199   8.829   7.010  0.0326  0.6402  0.4834
 2506THY    HP362634   7.242   8.757   6.863 -0.6024 -1.8500  1.8456
 2506THY    HP462635   7.183   8.919   6.859  1.3714 -0.0210  0.3069
 2506THY    CP362636   7.029   8.607   6.918 -0.7705 -0.8203  0.9058
 2506THY    HP562637   6.930   8.574   6.882 -0.6101  0.7463 -1.1053
 2506THY    HP662638   7.111   8.551   6.872 -0.6061 -1.8512  2.3825
 2506THY    HP762639   7.029   8.586   7.026  1.9779  0.5028  1.2308
 2506THY    CA362640   6.921   8.905   7.063 -0.6940  0.6302  0.2839
 2506THY    HA362641   7.018   8.906   7.110 -0.2891  4.4337 -0.3769
 2506THY    CA462642   6.807   8.959   7.124  0.8581  0.3996 -0.6390
 2506THY    HA462643   6.805   9.017   7.216 -0.3209  0.1689 -0.5036
 2506THY    CA562644   6.681   8.941   7.065  0.2712 -0.1767 -0.5929
 2506THY    CM162645   6.559   9.010   7.114 -0.3671  0.1039 -0.4022
 2506THY    HM162646   6.469   8.997   7.053  0.5862  0.1124 -1.8643
 2506THY    HM262647   6.539   8.989   7.220  1.2851  0.1835 -0.0383
 2506THY    HM362648   6.586   9.115   7.127  3.2087 -0.7198  0.1603
 2506THY    CA662649   6.670   8.878   6.939  0.5812  0.2539 -0.3502
 2506THY    HA662650   6.577   8.856   6.888  2.2048 -2.8666 -2.2453
 2507THY      O62651   9.533   4.228   8.863  0.7289 -0.1496 -0.0941
 2507THY     HO62652   9.553   4.269   8.777 -1.3711 -0.0136 -0.5583
 2507THY    CA162653   9.397   4.224   8.850 -0.2075  0.8534  0.7513
 2507THY    CA262654   9.319   4.112   8.875 -0.4358 -0.2449 -0.5874
 2507THY    CP162655   9.380   3.976   8.901 -0.1498 -0.1206  0.1658
 2507THY    HP162656   9.487   3.989   8.882 -0.1527 -0.6172 -0.2299
 2507THY    CP262657   9.360   3.927   9.045 -0.7263 -0.4522 -0.6567
 2507THY    HP262658   9.427   3.842   9.061  0.9132  1.0874  1.2489
 2507THY    HP362659   9.390   4.007   9.114  0.2119  0.5191 -2.1508
 2507THY    HP462660   9.255   3.908   9.069 -0.9555 -0.6591 -1.7965
 2507THY    CP362661   9.328   3.869   8.801 -0.5133 -0.3924  0.0900
 2507THY    HP562662   9.367   3.772   8.834 -1.3268  0.0005  2.3891
 2507THY    HP662663   9.220   3.862   8.817 -0.8132 -1.7965 -2.0981
 2507THY    HP762664   9.351   3.886   8.695  3.2986  0.5219  0.9317
 2507THY    CA362665   9.178   4.127   8.881  0.5139 -0.2507 -0.3055
 2507THY    HA362666   9.105   4.050   8.902 -2.0839  2.2511  0.4408
 2507THY    CA462667   9.117   4.250   8.854 -0.8283 -0.5569 -0.7967
 2507THY    HA462668   9.010   4.250   8.868 -0.9694 -1.1857 -1.7648
 2507THY    CA562669   9.196   4.359   8.820 -0.4441 -0.0412  0.3127
 2507THY    CM162670   9.139   4.496   8.780  0.1054  0.2844  0.0685
 2507THY    HM162671   9.149   4.567   8.863 -0.9190  0.2960  0.1939
 2507THY    HM262672   9.203   4.544   8.705  1.0147  2.1613  1.9403
 2507THY    HM362673   9.035   4.497   8.746  0.1140  0.6239  0.0506
 2507THY    CA662674   9.333   4.343   8.815  0.3642 -0.0536 -0.4006
 2507THY    HA662675   9.401   4.427   8.804  2.2152 -1.2850  1.0683
 2508THY      O62676   3.491   1.661   8.571 -0.1564  0.1775  0.4445
 2508THY     HO62677   3.435   1.737   8.596 -0.7030 -0.8717  2.6783
 2508THY    CA162678   3.459   1.635   8.441  0.9057 -0.4070 -0.8314
 2508THY    CA262679   3.514   1.524   8.376 -0.8114  0.4588  0.0738
 2508THY    CP162680   3.617   1.437   8.450 -0.2346  0.4767 -0.1699
 2508THY    HP162681   3.674   1.508   8.511  0.0987  1.2111 -1.2945
 2508THY    CP262682   3.548   1.333   8.539  0.1147 -0.2785  0.1126
 2508THY    HP262683   3.475   1.378   8.608  1.0238  4.2893 -1.5156
 2508THY    HP362684   3.489   1.266   8.477  0.8474  0.1332 -1.0600
 2508THY    HP462685   3.625   1.284   8.599  1.3829 -0.1625 -1.3617
 2508THY    CP362686   3.727   1.375   8.362  0.2472  0.1790 -0.0866
 2508THY    HP562687   3.689   1.279   8.325  0.3655  0.6799 -1.5658
 2508THY    HP662688   3.743   1.439   8.275  3.2782  2.1396  1.6985
 2508THY    HP762689   3.815   1.357   8.426 -0.4586  1.5994  1.3376
 2508THY    CA362690   3.472   1.485   8.247 -0.1257  0.0299 -0.1833
 2508THY    HA362691   3.516   1.398   8.199  1.6556  0.2036  1.0214
 2508THY    CA462692   3.388   1.570   8.179  0.5985  0.3706 -0.2649
 2508THY    HA462693   3.353   1.556   8.077 -1.9607  1.3221  0.3995
 2508THY    CA562694   3.321   1.678   8.245  0.3542 -0.5595  0.7821
 2508THY    CM162695   3.214   1.757   8.172  0.9061  0.1165  0.2573
 2508THY    HM162696   3.186   1.707   8.079  1.3570 -0.7533  0.5837
 2508THY    HM262697   3.129   1.768   8.240  1.3588 -0.1139  0.8753
 2508THY    HM362698   3.237   1.862   8.149 -2.2713  1.2083  1.5371
 2508THY    CA662699   3.363   1.712   8.377  0.6148 -0.3654 -0.1819
 2508THY    HA662700   3.309   1.788   8.432 -0.7138 -0.2884 -1.5230
 2509THY      O62701   4.770   6.756   2.716  0.2789  0.7520 -0.3878
 2509THY     HO62702   4.721   6.831   2.679 -0.7817  0.4992  0.4489
 2509THY    CA162703   4.852   6.793   2.816  0.1499  0.4632 -0.1493
 2509THY    CA262704   4.971   6.714   2.853  0.1444  0.0523  0.0332
 2509THY    CP162705   4.993   6.580   2.789 -0.6007 -0.3519  0.3566
 2509THY    HP162706   4.964   6.598   2.684  1.7501 -1.9259 -0.6456
 2509THY    CP262707   5.142   6.541   2.779  0.0146  0.4603  0.1975
 2509THY    HP262708   5.170   6.487   2.687  2.0638  0.3323  0.8402
 2509THY    HP362709   5.203   6.632   2.791  1.9235 -0.4650 -1.6977
 2509THY    HP462710   5.168   6.469   2.857  0.4215 -0.3458 -0.6515
 2509THY    CP362711   4.915   6.470   2.852  0.3402  0.3321  0.3715
 2509THY    HP562712   4.808   6.492   2.843  0.5477  0.5481 -2.2830
 2509THY    HP662713   4.928   6.376   2.798 -1.5291  0.0285  0.3963
 2509THY    HP762714   4.941   6.465   2.959  1.5031  3.0590  0.3019
 2509THY    CA362715   5.047   6.757   2.963  0.3815 -0.3937 -0.0105
 2509THY    HA362716   5.130   6.706   3.010 -1.6707 -2.4496  1.6558
 2509THY    CA462717   5.013   6.885   3.018  0.1924 -0.2367  0.2734
 2509THY    HA462718   5.070   6.929   3.098 -0.7072 -0.0987  0.8513
 2509THY    CA562719   4.896   6.959   2.977  0.8378 -0.4231 -0.2718
 2509THY    CM162720   4.857   7.086   3.046  0.2681  0.0220  0.1311
 2509THY    HM162721   4.780   7.129   2.981 -1.0905 -0.9061  1.0705
 2509THY    HM262722   4.820   7.060   3.146 -0.8442 -3.2780 -1.0223
 2509THY    HM362723   4.934   7.163   3.060  1.9391 -1.2652 -1.4713
 2509THY    CA662724   4.815   6.914   2.874 -0.0297  0.0886  1.1587
 2509THY    HA662725   4.728   6.967   2.836  0.7134 -1.7723 -3.9675
 2510THY      O62726   6.900   1.693   0.912  0.5338  0.1487 -0.8678
 2510THY     HO62727   6.813   1.720   0.947  0.4663  1.7344 -2.1461
 2510THY    CA162728   6.883   1.563   0.879 -0.0460  0.3236  0.0440
 2510THY    CA262729   6.992   1.472   0.878  0.1796 -0.0915 -0.2046
 2510THY    CP162730   7.121   1.518   0.921 -0.8373  0.5345 -0.0269
 2510THY    HP162731   7.138   1.621   0.956  1.0876  0.0311  0.6075
 2510THY    CP262732   7.169   1.441   1.040  0.5314 -0.0731  0.2123
 2510THY    HP262733   7.177   1.336   1.010  1.3277 -0.0938  0.4776
 2510THY    HP362734   7.272   1.471   1.064  0.0739  2.0067 -0.2312
 2510THY    HP462735   7.100   1.448   1.125  0.2750 -0.2575  0.0203
 2510THY    CP362736   7.226   1.496   0.810  1.1359  0.3410 -0.6074
 2510THY    HP562737   7.263   1.394   0.797 -0.3813  0.0031 -2.7509
 2510THY    HP662738   7.187   1.507   0.708 -2.6458 -1.3208  0.4964
 2510THY    HP762739   7.314   1.561   0.813  0.5439  1.1658 -0.5568
 2510THY    CA362740   6.975   1.332   0.846  0.2436 -0.2073  0.2145
 2510THY    HA362741   7.054   1.258   0.846 -0.2835 -0.8449  2.3520
 2510THY    CA462742   6.839   1.292   0.815  0.7457  0.0682 -0.3016
 2510THY    HA462743   6.815   1.187   0.797  0.0021 -0.0068  1.0254
 2510THY    CA562744   6.740   1.386   0.810  0.8065 -0.3064  0.2456
 2510THY    CM162745   6.599   1.353   0.773  0.0819  0.3783  0.3010
 2510THY    HM162746   6.579   1.245   0.773 -0.5887  0.4317  3.1784
 2510THY    HM262747   6.530   1.406   0.839 -1.5480  1.2507 -1.9567
 2510THY    HM362748   6.568   1.389   0.674  0.0576  1.0930  0.5630
 2510THY    CA662749   6.757   1.519   0.856 -0.0115  0.5491 -0.2844
 2510THY    HA662750   6.666   1.577   0.846 -0.4148  0.2498  1.2965
 2511THY      O62751   0.756   0.103   0.327  0.3111 -0.3994  0.1212
 2511THY     HO62752   0.675   0.072   0.282 -0.1468  2.2197 -1.0505
 2511THY    CA162753   0.756   0.055   0.462 -0.1806  0.3643  0.4412
 2511THY    CA262754   0.793   0.138   0.572  0.3725 -0.4249 -1.0626
 2511THY    CP162755   0.837   0.285   0.553  0.9399 -0.7698 -0.0890
 2511THY    HP162756   0.825   0.312   0.448 -0.5624 -0.2670  0.1899
 2511THY    CP262757   0.763   0.381   0.647 -0.3713 -0.1626  0.3134
 2511THY    HP262758   0.788   0.486   0.627 -0.4274 -0.3546 -0.8536
 2511THY    HP362759   0.655   0.367   0.652 -0.3641 -0.4391 -0.1870
 2511THY    HP462760   0.801   0.353   0.746  2.7565 -0.3111 -0.7907
 2511THY    CP362761   0.982   0.288   0.592  0.0256 -0.2516  0.0374
 2511THY    HP562762   1.018   0.386   0.557 -1.1968 -0.4989 -2.0460
 2511THY    HP662763   1.003   0.280   0.699 -0.5832 -1.1595  0.0974
 2511THY    HP762764   1.028   0.207   0.535 -0.5464  0.1680 -1.0439
 2511THY    CA362765   0.786   0.076   0.699 -0.5787  0.4461 -0.0945
 2511THY    HA362766   0.812   0.133   0.788 -0.1133 -0.4402  0.3538
 2511THY    CA462767   0.737  -0.054   0.716  1.1791  0.3369  0.4995
 2511THY    HA462768   0.726  -0.093   0.816  0.2484  0.5929  0.5045
 2511THY    CA562769   0.698  -0.134   0.610 -0.1131  0.0797  0.4999
 2511THY    CM162770   0.649  -0.273   0.624 -0.4501 -0.1223 -0.1844
 2511THY    HM162771   0.578  -0.279   0.708  1.9560  1.3094  2.1181
 2511THY    HM262772   0.621  -0.320   0.529  0.8770 -1.8807  0.2467
 2511THY    HM362773   0.725  -0.330   0.680 -0.6413 -1.0478 -0.8451
 2511THY    CA662774   0.713  -0.077   0.487 -0.3834 -0.1689 -0.0497
 2511THY    HA662775   0.679  -0.130   0.399 -0.1330  1.3909 -1.1360
 2512THY      O62776   9.857   6.197   2.125 -0.5315  0.6289 -0.0845
 2512THY     HO62777   9.903   6.245   2.196  0.2222 -0.3681  0.1277
 2512THY    CA162778   9.749   6.271   2.078  0.0369  0.0544  0.6121
 2512THY    CA262779   9.675   6.236   1.968 -0.8026  0.4417  0.5050
 2512THY    CP162780   9.727   6.123   1.870  0.6636  0.1880 -0.7874
 2512THY    HP162781   9.830   6.098   1.898  1.2894  2.1587 -1.2124
 2512THY    CP262782   9.640   5.996   1.894  0.8686  0.6994  0.0403
 2512THY    HP262783   9.675   5.914   1.830  2.1437  0.8181  0.5533
 2512THY    HP362784   9.657   5.965   1.997  1.4978 -3.4449 -1.1446
 2512THY    HP462785   9.531   6.009   1.895  0.5858 -1.4335  0.8581
 2512THY    CP362786   9.745   6.165   1.718 -1.0542 -0.4753 -0.9295
 2512THY    HP562787   9.798   6.092   1.657  2.5873  2.5441 -1.7324
 2512THY    HP662788   9.643   6.191   1.685 -1.2067 -1.3857 -1.1973
 2512THY    HP762789   9.809   6.252   1.699 -0.0546 -0.8367  0.6812
 2512THY    CA362790   9.567   6.322   1.931 -0.4198  0.2193 -0.1854
 2512THY    HA362791   9.510   6.300   1.842  1.8280  0.9543 -1.8862
 2512THY    CA462792   9.526   6.431   2.006  0.4857  0.8447 -0.7121
 2512THY    HA462793   9.439   6.493   1.985  0.5968  1.4765  0.5732
 2512THY    CA562794   9.602   6.457   2.125  0.3828  0.1706 -0.4645
 2512THY    CM162795   9.559   6.572   2.212  0.7965 -0.1057 -0.1091
 2512THY    HM162796   9.613   6.665   2.191 -0.6949  0.9598  0.6506
 2512THY    HM262797   9.451   6.577   2.196  0.9648 -1.6554 -2.1525
 2512THY    HM362798   9.583   6.550   2.316 -0.7330  1.2145  0.5556
 2512THY    CA662799   9.715   6.383   2.159  0.0695  0.3734  0.2406
 2512THY    HA662800   9.761   6.409   2.254  1.2875  0.5391 -0.3829
 2513THY      O62801   5.317   9.409   8.708  0.1250  0.3058  0.9499
 2513THY     HO62802   5.341   9.378   8.797 -0.5113  1.1796  1.4425
 2513THY    CA162803   5.284   9.300   8.630 -0.0322  0.8051  0.4889
 2513THY    CA262804   5.342   9.290   8.501  0.0272 -0.0682 -0.1548
 2513THY    CP162805   5.440   9.399   8.459 -0.2676  0.6370  0.3095
 2513THY    HP162806   5.391   9.494   8.485 -1.1413  0.1807  0.3661
 2513THY    CP262807   5.567   9.386   8.534  0.1696 -0.0379  0.2198
 2513THY    HP262808   5.608   9.487   8.527  1.0251 -0.2132  2.2105
 2513THY    HP362809   5.556   9.365   8.641  1.2170  0.2643  0.3961
 2513THY    HP462810   5.626   9.305   8.489 -2.5410 -0.4047 -3.0549
 2513THY    CP362811   5.468   9.417   8.306  0.6073 -0.0465  0.5172
 2513THY    HP562812   5.522   9.325   8.281 -2.4859 -2.0215  0.4258
 2513THY    HP662813   5.375   9.431   8.249  0.1205 -1.3095  0.9726
 2513THY    HP762814   5.534   9.504   8.299 -0.1662  0.4406 -1.7550
 2513THY    CA362815   5.299   9.185   8.418 -0.5808  0.2354  0.3972
 2513THY    HA362816   5.345   9.168   8.321 -0.4292  1.8327  0.1735
 2513THY    CA462817   5.195   9.095   8.457  0.1797 -0.4709  0.1439
 2513THY    HA462818   5.165   9.011   8.395 -0.8236 -0.1942  0.2319
 2513THY    CA562819   5.138   9.110   8.579 -0.4399  0.2721  0.2734
 2513THY    CM162820   5.025   9.022   8.613  0.1084  0.3434  0.2332
 2513THY    HM162821   4.978   9.059   8.704 -2.7582 -1.2904 -0.4738
 2513THY    HM262822   4.939   9.020   8.546 -0.8255  1.0371  1.3749
 2513THY    HM362823   5.050   8.918   8.637 -2.1482  0.0970  1.7837
 2513THY    CA662824   5.184   9.210   8.669  0.3229 -0.0467  0.2726
 2513THY    HA662825   5.134   9.216   8.765 -3.3147 -0.4572 -1.4251
 2514THY      O62826   4.496   6.408   3.155 -0.5294 -0.4522 -0.6006
 2514THY     HO62827   4.509   6.324   3.202  0.7509 -0.3065 -0.6585
 2514THY    CA162828   4.499   6.500   3.255 -0.4930 -0.9265 -0.2784
 2514THY    CA262829   4.493   6.643   3.240  0.1732  1.0402  0.1959
 2514THY    CP162830   4.475   6.714   3.109 -0.1420  0.2212 -0.0335
 2514THY    HP162831   4.446   6.637   3.037  0.5756 -0.5295  0.4623
 2514THY    CP262832   4.366   6.822   3.108  0.6323 -0.3083  0.4074
 2514THY    HP262833   4.342   6.843   3.003  1.2673 -0.3991  0.2382
 2514THY    HP362834   4.272   6.783   3.148 -1.0317  0.2578 -2.6316
 2514THY    HP462835   4.395   6.910   3.167  2.5083 -0.5200 -0.1325
 2514THY    CP362836   4.600   6.777   3.068  0.0414 -0.5134 -0.0852
 2514THY    HP562837   4.601   6.801   2.961 -1.2192  1.6883  0.3337
 2514THY    HP662838   4.630   6.865   3.126  1.6225 -1.3753  0.4893
 2514THY    HP762839   4.691   6.717   3.081  1.0417  1.3224  1.9727
 2514THY    CA362840   4.513   6.716   3.359  0.2373  0.7661  0.4017
 2514THY    HA362841   4.514   6.825   3.353 -0.6721  0.7778  0.2088
 2514THY    CA462842   4.523   6.651   3.481 -0.8693  0.2437 -0.6214
 2514THY    HA462843   4.514   6.714   3.570 -0.1845  2.0483 -1.7746
 2514THY    CA562844   4.517   6.513   3.490  0.3652  0.5018 -0.3227
 2514THY    CM162845   4.533   6.445   3.624  0.3496 -0.5125 -0.3676
 2514THY    HM162846   4.450   6.473   3.690 -1.6373 -1.1127 -2.4773
 2514THY    HM262847   4.530   6.335   3.620  0.8091 -0.4905 -2.4621
 2514THY    HM362848   4.627   6.473   3.673 -0.1677  0.0343  0.3262
 2514THY    CA662849   4.506   6.436   3.381 -0.5813 -0.2685  0.2073
 2514THY    HA662850   4.497   6.328   3.387  1.9953 -0.5911 -0.6138
 2515THY      O62851   7.864   3.257   2.079 -0.4828  0.1601 -0.4281
 2515THY     HO62852   7.933   3.196   2.048 -0.1262  0.9774 -1.3286
 2515THY    CA162853   7.761   3.200   2.125  0.6334  0.4783 -0.2385
 2515THY    CA262854   7.671   3.275   2.196  0.5514 -0.9239 -0.5197
 2515THY    CP162855   7.704   3.425   2.216  0.8636 -0.0692  0.1079
 2515THY    HP162856   7.750   3.468   2.127  0.4148  1.8568  0.7452
 2515THY    CP262857   7.588   3.513   2.236  0.1360 -0.4100 -0.3273
 2515THY    HP262858   7.516   3.507   2.154 -1.2691  1.3790  0.6844
 2515THY    HP362859   7.532   3.477   2.324 -1.6045 -0.3678 -1.3602
 2515THY    HP462860   7.605   3.620   2.250 -3.2291  0.2332 -0.1203
 2515THY    CP362861   7.812   3.450   2.322 -0.4915 -0.5411 -0.0898
 2515THY    HP562862   7.755   3.437   2.415  0.0845  0.2335  0.3790
 2515THY    HP662863   7.890   3.374   2.307 -0.2581 -0.0510 -1.5099
 2515THY    HP762864   7.847   3.554   2.316  2.5802 -1.5263 -0.8554
 2515THY    CA362865   7.564   3.209   2.267  0.7269 -0.1725  0.6669
 2515THY    HA362866   7.493   3.267   2.325  1.2027  0.3204  0.7581
 2515THY    CA462867   7.548   3.073   2.248  0.3405 -0.0176 -0.3790
 2515THY    HA462868   7.453   3.028   2.277 -0.3054  1.0688 -0.7594
 2515THY    CA562869   7.638   2.997   2.178 -0.2708  0.6031 -0.5988
 2515THY    CM162870   7.617   2.850   2.162 -0.5079 -0.0315 -0.7180
 2515THY    HM162871   7.706   2.790   2.183 -0.9483 -0.5655 -0.3362
 2515THY    HM262872   7.554   2.807   2.241  0.7553 -3.6336 -1.5056
 2515THY    HM362873   7.575   2.832   2.063  0.6177 -2.5437 -0.7969
 2515THY    CA662874   7.751   3.054   2.121  0.0596 -0.6425 -0.4072
 2515THY    HA662875   7.821   2.985   2.075 -0.7272 -1.5743 -0.2402
 2516THY      O62876   5.408   4.432   9.854  0.0312  0.2523  0.2216
 2516THY     HO62877   5.465   4.434   9.933 -1.0095  0.9504  0.9721
 2516THY    CA162878   5.483   4.376   9.758 -0.2427 -0.0262  0.2560
 2516THY    CA262879   5.425   4.305   9.651 -0.4390  0.0482  0.6072
 2516THY    CP162880   5.280   4.267   9.660 -0.1815 -0.1476  0.3334
 2516THY    HP162881   5.237   4.295   9.757  1.1792 -3.0345  1.8896
 2516THY    CP262882   5.199   4.316   9.540 -0.5623 -0.7009  0.3484
 2516THY    HP262883   5.099   4.273   9.551 -2.0096  2.3968  0.4513
 2516THY    HP362884   5.202   4.426   9.540  0.4736 -0.7019 -1.2283
 2516THY    HP462885   5.237   4.274   9.447  1.3428 -0.5840  1.0376
 2516THY    CP362886   5.284   4.112   9.658 -0.4239 -0.2164 -0.2916
 2516THY    HP562887   5.367   4.071   9.716  0.7003  0.3688 -1.4429
 2516THY    HP662888   5.191   4.068   9.696 -1.3372  2.0826  0.3099
 2516THY    HP762889   5.296   4.080   9.554 -0.8230 -1.8971  0.1436
 2516THY    CA362890   5.504   4.278   9.534  0.4751 -0.3413  0.0832
 2516THY    HA362891   5.470   4.216   9.452  0.0413  0.8779 -0.6797
 2516THY    CA462892   5.639   4.316   9.537 -0.3639 -0.3316  0.1932
 2516THY    HA462893   5.707   4.288   9.457 -0.0783 -2.4382  1.1013
 2516THY    CA562894   5.698   4.376   9.652  0.2921 -0.0577  0.5325
 2516THY    CM162895   5.845   4.409   9.659 -0.1243 -0.0889  0.4469
 2516THY    HM162896   5.892   4.426   9.562 -1.4891 -0.5872 -0.3379
 2516THY    HM262897   5.865   4.507   9.705  0.7811  0.4252 -0.9764
 2516THY    HM362898   5.905   4.331   9.706  1.0125  1.9975  2.6698
 2516THY    CA662899   5.615   4.407   9.758 -0.7207 -0.4072  0.6721
 2516THY    HA662900   5.663   4.452   9.845  1.7132 -0.4581 -0.5819
 2517THY      O62901   0.245   2.306   8.052 -0.0048 -0.4255  0.3106
 2517THY     HO62902   0.323   2.308   8.110  0.3673  0.6914 -0.2099
 2517THY    CA162903   0.186   2.429   8.061 -1.3595  0.0186  0.1409
 2517THY    CA262904   0.099   2.481   7.969 -0.0437 -0.8096  0.4498
 2517THY    CP162905   0.060   2.375   7.855  0.1620 -0.0098  0.6712
 2517THY    HP162906   0.047   2.271   7.889  0.2538 -0.2526 -0.0214
 2517THY    CP262907  -0.077   2.409   7.790 -0.0645  0.6801  0.0101
 2517THY    HP262908  -0.166   2.373   7.842  1.0148  0.0356  1.4932
 2517THY    HP362909  -0.100   2.515   7.779 -1.7664  0.1867 -1.5956
 2517THY    HP462910  -0.082   2.377   7.685  0.2649  1.4748 -0.2539
 2517THY    CP362911   0.174   2.374   7.754 -0.2737  0.4891  0.0574
 2517THY    HP562912   0.162   2.286   7.689 -1.5802 -0.6460  1.7410
 2517THY    HP662913   0.185   2.457   7.684 -0.2817  0.3873 -0.0662
 2517THY    HP762914   0.271   2.351   7.802 -0.8812  0.7065  1.4516
 2517THY    CA362915   0.062   2.617   7.964  0.1306 -0.0725 -0.7117
 2517THY    HA362916   0.001   2.665   7.889  0.8662  1.7048 -0.2177
 2517THY    CA462917   0.113   2.699   8.065 -0.8979 -0.0939  0.2000
 2517THY    HA462918   0.090   2.805   8.068 -0.3550  0.0160  0.5336
 2517THY    CA562919   0.188   2.647   8.168  0.2007 -0.1162 -0.0042
 2517THY    CM162920   0.244   2.735   8.275  0.5188  0.0231 -0.1346
 2517THY    HM162921   0.248   2.840   8.244 -0.9424  0.9393  2.4952
 2517THY    HM262922   0.185   2.733   8.367 -0.6689 -0.1271 -0.8886
 2517THY    HM362923   0.346   2.699   8.297 -0.2940 -1.1846  1.8999
 2517THY    CA662924   0.226   2.509   8.165 -0.2572  0.3873  0.7730
 2517THY    HA662925   0.300   2.479   8.240  1.0862  1.6117 -0.0090
 2518THY      O62926   3.706   8.061   6.012  0.0336 -0.2361 -0.2794
 2518THY     HO62927   3.707   7.964   6.015 -0.3421 -0.3164 -1.7777
 2518THY    CA162928   3.603   8.106   5.938  0.4536 -0.2648 -0.4628
 2518THY    CA262929   3.579   8.246   5.922  0.2201  0.0731 -0.3495
 2518THY    CP162930   3.659   8.343   6.008  0.1851  0.0151 -0.3872
 2518THY    HP162931   3.745   8.295   6.056  0.0554 -0.1866 -0.3541
 2518THY    CP262932   3.722   8.457   5.921  0.0309  0.1495  0.5008
 2518THY    HP262933   3.786   8.524   5.981  0.8019  0.5236 -0.7019
 2518THY    HP362934   3.781   8.403   5.846 -0.3928  0.2571  0.0840
 2518THY    HP462935   3.644   8.517   5.873  0.0927  1.1246  1.5754
 2518THY    CP362936   3.565   8.411   6.111 -0.1495  0.0834  0.1675
 2518THY    HP562937   3.517   8.322   6.154  1.9960 -1.5393 -0.6473
 2518THY    HP662938   3.630   8.467   6.179  1.0606  1.3862 -1.9454
 2518THY    HP762939   3.491   8.468   6.054  0.0608 -0.3887 -0.5829
 2518THY    CA362940   3.468   8.288   5.850  0.2700  0.3010 -0.9083
 2518THY    HA362941   3.452   8.394   5.838 -1.5419  0.0719 -0.8268
 2518THY    CA462942   3.399   8.192   5.780  0.1864  0.4776 -0.0366
 2518THY    HA462943   3.310   8.215   5.722 -0.3100 -0.4333  0.3419
 2518THY    CA562944   3.424   8.054   5.785 -0.3078 -0.2495  0.5625
 2518THY    CM162945   3.343   7.945   5.717  0.7444  0.9023 -0.3211
 2518THY    HM162946   3.355   7.946   5.608  1.3994  1.0624 -0.2473
 2518THY    HM262947   3.370   7.842   5.744 -1.8911 -0.4416 -2.3110
 2518THY    HM362948   3.239   7.969   5.744  0.6581 -0.6679  0.9510
 2518THY    CA662949   3.521   8.015   5.875 -0.4542  0.2447 -0.1337
 2518THY    HA662950   3.536   7.910   5.895 -2.8359 -0.0664  0.2321
 2519THY      O62951   6.024   5.738   6.192 -0.0009 -0.0884  0.4508
 2519THY     HO62952   5.966   5.804   6.234 -0.5703 -0.7248  0.6745
 2519THY    CA162953   6.097   5.818   6.118  0.2377 -0.3814  0.7552
 2519THY    CA262954   6.179   5.771   6.015  0.5521 -0.0268 -0.7235
 2519THY    CP162955   6.205   5.623   5.996  0.3355 -0.1389  0.0929
 2519THY    HP162956   6.198   5.575   6.095  0.9650  0.7035  0.5591
 2519THY    CP262957   6.099   5.563   5.904  0.3099  0.5206  0.4670
 2519THY    HP262958   6.123   5.456   5.892  1.1924  0.6572  0.9291
 2519THY    HP362959   5.999   5.568   5.948  0.8307  1.3513  1.6000
 2519THY    HP462960   6.104   5.622   5.812  1.5334  2.0892  1.4771
 2519THY    CP362961   6.351   5.584   5.944 -0.2513 -0.3484  0.1160
 2519THY    HP562962   6.363   5.593   5.836 -0.7181 -2.8496 -0.1947
 2519THY    HP662963   6.423   5.652   5.992 -0.6106  0.0883  0.0467
 2519THY    HP762964   6.371   5.477   5.956  0.2299 -0.3438 -0.6179
 2519THY    CA362965   6.251   5.861   5.933  0.2620 -0.4860 -0.1160
 2519THY    HA362966   6.296   5.829   5.839  2.7558 -2.1846  1.4935
 2519THY    CA462967   6.247   5.997   5.968 -0.3157 -0.0365 -0.0088
 2519THY    HA462968   6.286   6.072   5.899 -1.9921 -1.2503 -2.4313
 2519THY    CA562969   6.175   6.041   6.079  0.0354 -0.7585  0.0105
 2519THY    CM162970   6.162   6.183   6.113 -0.5384  0.5670  0.1900
 2519THY    HM162971   6.231   6.248   6.058 -0.9546  0.4536 -0.4805
 2519THY    HM262972   6.066   6.229   6.085 -0.1271  1.0072 -0.5650
 2519THY    HM362973   6.188   6.187   6.219 -0.3777 -0.9327  0.2295
 2519THY    CA662974   6.098   5.952   6.158 -0.0977 -0.7708  0.0322
 2519THY    HA662975   6.036   5.991   6.238  0.1279 -0.0725 -0.1237
 2520THY      O62976   5.305   3.030   0.509 -0.2087 -0.4869 -0.2431
 2520THY     HO62977   5.330   2.952   0.457 -0.1133 -1.1212  0.7380
 2520THY    CA162978   5.169   3.039   0.492 -0.5404  0.0303  0.4363
 2520THY    CA262979   5.079   3.051   0.599 -0.0746  0.8090 -0.3906
 2520THY    CP162980   5.131   3.067   0.751 -0.8919  0.0073  0.7505
 2520THY    HP162981   5.240   3.072   0.753 -0.9200  0.6436  0.9180
 2520THY    CP262982   5.070   3.189   0.816 -0.0634 -0.3282 -0.5284
 2520THY    HP262983   5.098   3.199   0.921  1.3471 -2.0009 -0.7034
 2520THY    HP362984   5.100   3.272   0.752  0.5040 -0.3641 -0.3182
 2520THY    HP462985   4.961   3.183   0.817 -0.0783 -1.1797  2.1639
 2520THY    CP362986   5.111   2.941   0.829 -0.5571 -0.0536  0.3346
 2520THY    HP562987   5.161   2.953   0.926 -0.1206  0.9901  0.0017
 2520THY    HP662988   5.003   2.920   0.836 -0.7125 -0.1219 -1.7925
 2520THY    HP762989   5.156   2.856   0.777 -0.2262  0.8329 -0.8585
 2520THY    CA362990   4.937   3.032   0.579 -0.7850 -0.2127  0.1565
 2520THY    HA362991   4.854   3.037   0.648 -1.1748 -1.4868 -0.1898
 2520THY    CA462992   4.900   3.003   0.449 -1.1925  0.5746  0.9080
 2520THY    HA462993   4.798   2.973   0.426 -0.5033 -0.4504 -1.0532
 2520THY    CA562994   4.985   3.002   0.339 -0.2286 -0.4255  0.5362
 2520THY    CM162995   4.937   2.985   0.196 -0.2190  0.2297 -1.0415
 2520THY    HM162996   4.827   2.975   0.194 -0.1533 -1.3874  0.5406
 2520THY    HM262997   4.963   3.078   0.145  2.6747 -0.4826 -1.0451
 2520THY    HM362998   4.973   2.898   0.139 -0.6547 -0.2900 -0.5430
 2520THY    CA662999   5.122   3.031   0.365 -0.4146  0.1147 -0.3164
 2520THY    HA663000   5.186   3.036   0.277 -0.2958 -0.2467 -0.2529
 2521THY      O63001   8.131   8.293   1.241  0.1742 -0.1435  0.2670
 2521THY     HO63002   8.192   8.305   1.166 -1.4627  1.5523 -0.8608
 2521THY    CA163003   8.082   8.169   1.237 -0.0805 -0.0253 -0.5699
 2521THY    CA263004   7.976   8.126   1.320 -0.1828 -0.1156 -0.4920
 2521THY    CP163005   7.907   8.223   1.408 -0.7956  0.1417  0.3418
 2521THY    HP163006   7.952   8.323   1.403 -1.4643  0.4064 -0.8469
 2521THY    CP263007   7.752   8.229   1.372 -0.1864 -0.8346 -0.4468
 2521THY    HP263008   7.711   8.127   1.367 -0.0934 -0.8037 -2.2874
 2521THY    HP363009   7.697   8.277   1.454  0.1870 -1.4575  0.1902
 2521THY    HP463010   7.734   8.290   1.283  1.8084 -0.5387 -0.6959
 2521THY    CP363011   7.929   8.174   1.548 -0.0292 -0.2102 -0.0125
 2521THY    HP563012   7.890   8.247   1.619  0.3492 -0.8182  0.8400
 2521THY    HP663013   7.886   8.075   1.571  0.6556 -0.6323 -0.5100
 2521THY    HP763014   8.037   8.173   1.563  0.1521 -0.6860 -1.2228
 2521THY    CA363015   7.930   7.989   1.317 -0.2933 -0.6464  0.2876
 2521THY    HA363016   7.846   7.954   1.377  0.1901 -0.3691  1.1358
 2521THY    CA463017   7.999   7.897   1.231  0.7363  0.1415  0.0718
 2521THY    HA463018   7.982   7.790   1.223 -0.0835  0.3834 -1.8021
 2521THY    CA563019   8.102   7.943   1.147  0.0714  0.4717 -0.0696
 2521THY    CM163020   8.185   7.849   1.059 -0.0091  0.0801 -0.6190
 2521THY    HM163021   8.234   7.911   0.983 -0.0346  0.2013 -0.5379
 2521THY    HM263022   8.263   7.799   1.117 -1.4584 -2.0601 -0.3826
 2521THY    HM363023   8.135   7.757   1.026 -2.8109  1.7329 -1.3125
 2521THY    CA663024   8.150   8.076   1.161 -0.3933 -0.3465  0.4719
 2521THY    HA663025   8.239   8.107   1.108  0.0141  0.9401  1.8413
 2522THY      O63026   3.119   2.606   3.820  0.0255  0.4229 -0.3801
 2522THY     HO63027   3.115   2.678   3.754  0.3153  0.3329 -0.4948
 2522THY    CA163028   3.074   2.641   3.939 -0.4506  0.2427 -0.6731
 2522THY    CA263029   3.120   2.565   4.048 -0.0802  0.4580  0.4188
 2522THY    CP163030   3.222   2.452   4.031  0.2794 -0.5073 -0.0268
 2522THY    HP163031   3.219   2.413   3.928 -1.3824  2.1251 -1.0558
 2522THY    CP263032   3.362   2.500   4.059  0.6894 -0.2344  0.7053
 2522THY    HP263033   3.366   2.530   4.165 -0.5624 -0.9421  0.9743
 2522THY    HP363034   3.432   2.417   4.049  1.5825  0.7107 -1.4912
 2522THY    HP463035   3.397   2.583   3.995  2.6811 -3.1423 -2.3161
 2522THY    CP363036   3.171   2.331   4.107 -1.1379  0.8605  0.1428
 2522THY    HP563037   3.069   2.308   4.072 -1.3974  2.2007 -0.0295
 2522THY    HP663038   3.242   2.247   4.104  1.5768  3.0215 -0.3575
 2522THY    HP763039   3.154   2.358   4.212 -1.0033  1.4667  0.0118
 2522THY    CA363040   3.081   2.618   4.179 -0.3531  0.6016 -0.2987
 2522THY    HA363041   3.097   2.561   4.271 -1.8364  0.0383 -0.3563
 2522THY    CA463042   3.009   2.737   4.194 -0.1729 -0.2249 -0.1460
 2522THY    HA463043   2.976   2.766   4.293  1.9139 -0.4462  0.6617
 2522THY    CA563044   2.955   2.797   4.080 -0.3957  0.1733 -0.7563
 2522THY    CM163045   2.872   2.913   4.089 -0.4425 -0.2547 -0.3153
 2522THY    HM163046   2.836   2.934   4.190  2.7501  0.6472  0.7353
 2522THY    HM263047   2.908   3.013   4.063 -0.5583 -0.0649  0.2364
 2522THY    HM363048   2.788   2.904   4.019  0.5694  0.1230 -1.6139
 2522THY    CA663049   3.000   2.761   3.951 -0.2273  0.1479  0.6022
 2522THY    HA663050   2.958   2.814   3.866  0.3274 -1.3407 -0.6556
 2523THY      O63051   6.926   7.431   6.049  0.2251  0.7235  0.6468
 2523THY     HO63052   6.933   7.483   6.131  0.8665 -1.0391  1.7630
 2523THY    CA163053   6.929   7.296   6.088 -0.6016 -0.4764  0.5546
 2523THY    CA263054   6.988   7.200   6.009  0.3090  0.1049  1.2522
 2523THY    CP163055   7.067   7.245   5.887 -0.0612 -0.6298 -0.7468
 2523THY    HP163056   7.042   7.348   5.859  0.6435  0.0520  1.0057
 2523THY    CP263057   7.214   7.252   5.927 -0.2956 -0.1492  0.0611
 2523THY    HP263058   7.235   7.330   6.001 -0.9486  0.5284 -0.4517
 2523THY    HP363059   7.254   7.159   5.970  0.7862 -0.7469 -2.0780
 2523THY    HP463060   7.270   7.261   5.833 -0.7905 -2.1205 -0.4848
 2523THY    CP363061   7.041   7.162   5.767  0.7036 -0.4883  0.0321
 2523THY    HP563062   7.066   7.224   5.680  0.1338 -0.1596  0.0962
 2523THY    HP663063   7.100   7.069   5.762  1.5632 -0.0017  0.9184
 2523THY    HP763064   6.935   7.135   5.760 -0.1631  2.0409  1.9923
 2523THY    CA363065   6.991   7.064   6.043  0.4474  0.1370 -0.2359
 2523THY    HA363066   7.047   6.991   5.985  1.5902 -0.7844  1.8907
 2523THY    CA463067   6.937   7.029   6.163 -0.5081  0.5473 -0.1967
 2523THY    HA463068   6.945   6.924   6.188  1.0734 -0.0197 -2.7233
 2523THY    CA563069   6.869   7.121   6.249  0.4806  0.1105 -0.1861
 2523THY    CM163070   6.786   7.081   6.367  0.3309 -1.0218  0.3415
 2523THY    HM163071   6.835   7.039   6.455 -0.6701 -2.6276  0.1839
 2523THY    HM263072   6.735   7.174   6.394 -0.0371 -0.7735 -1.1198
 2523THY    HM363073   6.711   7.008   6.333 -0.9658  1.6008 -2.9849
 2523THY    CA663074   6.865   7.254   6.201  0.0945 -0.3184  0.0327
 2523THY    HA663075   6.825   7.332   6.265  1.5017  0.0236  0.5352
 2524THY      O63076   8.044   8.947   3.838 -0.2710 -0.6479 -0.4076
 2524THY     HO63077   8.071   9.040   3.826  3.9015 -1.5505  0.2122
 2524THY    CA163078   8.165   8.887   3.854  0.4935  0.9256  1.1893
 2524THY    CA263079   8.195   8.755   3.795 -0.4803  0.3085 -0.1487
 2524THY    CP163080   8.084   8.654   3.750 -0.2235  0.6807 -0.4818
 2524THY    HP163081   7.990   8.679   3.800  0.1272  1.0861 -0.0297
 2524THY    CP263082   8.046   8.665   3.603  0.8664 -0.4357  0.4574
 2524THY    HP263083   8.141   8.660   3.549  1.5817 -1.7376  1.7810
 2524THY    HP363084   7.983   8.582   3.568 -0.2294 -0.1385  1.6690
 2524THY    HP463085   8.007   8.764   3.574  2.1483 -0.4617 -1.5965
 2524THY    CP363086   8.107   8.506   3.789  0.6665 -0.3950 -0.3705
 2524THY    HP563087   8.191   8.472   3.727  3.5425  1.8304  2.0172
 2524THY    HP663088   8.143   8.503   3.893 -0.5060 -0.6781  0.0419
 2524THY    HP763089   8.015   8.447   3.777 -0.1728  0.6570  0.6964
 2524THY    CA363090   8.329   8.708   3.799 -0.4822 -0.8586  0.3682
 2524THY    HA363091   8.355   8.610   3.760  0.0285  0.2960 -2.3476
 2524THY    CA463092   8.429   8.790   3.858  0.1390 -0.2382 -0.4613
 2524THY    HA463093   8.533   8.758   3.863  0.5955  1.3169  0.9957
 2524THY    CA563094   8.398   8.923   3.897 -0.1421  0.1827  1.1530
 2524THY    CM163095   8.513   9.003   3.951 -0.8695  0.1605  0.3542
 2524THY    HM163096   8.475   9.102   3.978  1.2094  1.1240 -0.1221
 2524THY    HM263097   8.558   8.961   4.041  0.7954  1.2175  0.0413
 2524THY    HM363098   8.586   9.003   3.869 -1.8329  0.6695 -0.5359
 2524THY    CA663099   8.268   8.970   3.899 -0.6269 -0.4432 -0.5439
 2524THY    HA663100   8.249   9.069   3.937  0.8237 -0.0563 -0.7508
 2525THY      O63101   1.491   8.516   5.188  0.8054  0.3233  0.6175
 2525THY     HO63102   1.579   8.522   5.230  1.9775 -2.4390 -1.1168
 2525THY    CA163103   1.511   8.558   5.057 -0.0380 -0.0547  0.3257
 2525THY    CA263104   1.414   8.529   4.956  0.1234 -0.7174 -0.4265
 2525THY    CP163105   1.290   8.448   4.988 -0.7184  0.0213 -1.0200
 2525THY    HP163106   1.294   8.398   5.085 -2.6108 -3.2742 -2.4551
 2525THY    CP263107   1.169   8.535   4.989 -0.6191  0.0497 -0.6659
 2525THY    HP263108   1.177   8.620   5.058 -0.6237 -0.3562 -0.1639
 2525THY    HP363109   1.162   8.568   4.884  0.3720  0.2458 -0.6853
 2525THY    HP463110   1.082   8.473   5.012 -1.7813  1.6791 -0.4982
 2525THY    CP363111   1.266   8.320   4.902 -0.6360 -0.2842  0.0032
 2525THY    HP563112   1.227   8.349   4.804 -1.8153  1.2169  0.8804
 2525THY    HP663113   1.347   8.247   4.899 -0.7482 -0.3699 -1.2373
 2525THY    HP763114   1.185   8.270   4.958 -2.9053  1.7547 -1.2617
 2525THY    CA363115   1.435   8.585   4.827 -0.5610 -0.0426 -1.2437
 2525THY    HA363116   1.353   8.573   4.757 -0.8184  0.7518 -1.0933
 2525THY    CA463117   1.555   8.656   4.805 -0.8473  0.4179  0.1155
 2525THY    HA463118   1.571   8.701   4.707 -0.1250  0.6525  0.3329
 2525THY    CA563119   1.655   8.667   4.907  0.1746  0.2671  0.0866
 2525THY    CM163120   1.784   8.720   4.876 -0.1400  0.3247 -0.6405
 2525THY    HM163121   1.860   8.647   4.846 -1.3649 -0.7664 -1.1750
 2525THY    HM263122   1.777   8.792   4.793  1.5439 -0.1693 -1.2745
 2525THY    HM363123   1.820   8.780   4.961 -0.5800  0.1174 -0.3091
 2525THY    CA663124   1.632   8.622   5.037 -0.3163 -0.1425  0.2923
 2525THY    HA663125   1.707   8.623   5.116  0.4022  1.5746 -0.3758
 2526THY      O63126   4.190   2.685   9.760  0.3231  0.8254  0.2575
 2526THY     HO63127   4.170   2.780   9.757  0.3532  0.8383  0.5125
 2526THY    CA163128   4.320   2.683   9.710 -0.3604 -0.4963  0.2414
 2526THY    CA263129   4.406   2.573   9.722  0.7852  0.0077  0.0319
 2526THY    CP163130   4.368   2.460   9.813 -0.3192  0.2351  0.1753
 2526THY    HP163131   4.287   2.493   9.880  0.4387  1.1934  0.6409
 2526THY    CP263132   4.331   2.336   9.721  0.2385 -0.4638 -0.6346
 2526THY    HP263133   4.308   2.238   9.765 -1.3407 -0.0513 -0.4487
 2526THY    HP363134   4.250   2.369   9.654 -0.4577 -1.0864 -0.1079
 2526THY    HP463135   4.419   2.319   9.658  0.6904 -0.5056  0.0000
 2526THY    CP363136   4.482   2.413   9.905 -0.2679  0.0537  0.1186
 2526THY    HP563137   4.451   2.331   9.971 -2.9287  2.1313  1.6572
 2526THY    HP663138   4.569   2.383   9.845 -0.7374  0.8638 -0.9973
 2526THY    HP763139   4.506   2.495   9.973 -1.8325  1.4494 -0.9591
 2526THY    CA363140   4.537   2.585   9.655  0.1351 -0.7539 -0.0202
 2526THY    HA363141   4.603   2.499   9.653 -0.2828 -1.0576 -1.6651
 2526THY    CA463142   4.573   2.702   9.587 -0.4104 -0.4558 -0.2315
 2526THY    HA463143   4.665   2.706   9.530 -0.8456  1.8812 -0.8653
 2526THY    CA563144   4.489   2.812   9.585  0.4552  1.1763 -0.3252
 2526THY    CM163145   4.520   2.942   9.520 -0.1114  0.2625 -0.5475
 2526THY    HM163146   4.513   2.937   9.411  0.3779  0.8794 -0.6113
 2526THY    HM263147   4.458   3.026   9.554 -0.2733  0.4710 -1.3281
 2526THY    HM363148   4.626   2.968   9.529 -0.1835  1.4641 -2.4938
 2526THY    CA663149   4.363   2.795   9.642 -0.3726 -0.6684  0.3628
 2526THY    HA663150   4.296   2.880   9.638 -1.7978 -1.7516  0.2579
 2527THY      O63151   7.633   3.524   6.035 -0.1221 -0.1370 -0.5191
 2527THY     HO63152   7.643   3.427   6.037 -2.0538 -0.3724  1.1366
 2527THY    CA163153   7.676   3.571   6.158 -0.0367 -0.6245 -0.0883
 2527THY    CA263154   7.620   3.695   6.206  0.2888 -0.4729  0.1163
 2527THY    CP163155   7.524   3.773   6.117 -0.1917  0.0529 -0.2509
 2527THY    HP163156   7.506   3.716   6.026  2.0530 -1.9241  0.4491
 2527THY    CP263157   7.392   3.799   6.199  0.4247  0.4019 -0.5605
 2527THY    HP263158   7.364   3.721   6.271 -3.2006 -1.8951 -4.0969
 2527THY    HP363159   7.391   3.889   6.261 -1.1195  0.8459 -1.1958
 2527THY    HP463160   7.310   3.797   6.127 -2.5978  0.1551  2.6070
 2527THY    CP363161   7.585   3.908   6.064  0.7615  0.6717 -0.4237
 2527THY    HP563162   7.595   3.984   6.142 -0.8780  1.4024 -0.8847
 2527THY    HP663163   7.685   3.878   6.030 -0.5319 -3.9017 -0.8440
 2527THY    HP763164   7.531   3.936   5.973  0.8234 -1.3579 -1.1354
 2527THY    CA363165   7.663   3.735   6.332  0.1549 -0.0325  0.7573
 2527THY    HA363166   7.626   3.820   6.388  2.8693 -0.4328  3.3918
 2527THY    CA463167   7.747   3.652   6.398 -0.2098  0.0425 -0.0228
 2527THY    HA463168   7.786   3.681   6.495 -3.5370 -0.9924  1.7878
 2527THY    CA563169   7.797   3.529   6.355  0.5362 -0.0088 -0.7634
 2527THY    CM163170   7.898   3.451   6.424 -0.5251 -0.0284  0.2340
 2527THY    HM163171   7.856   3.423   6.522 -0.5519  0.9598  0.5213
 2527THY    HM263172   7.928   3.358   6.376  0.5423  0.3312  0.1857
 2527THY    HM363173   7.980   3.521   6.444 -1.3575  0.5883  1.6636
 2527THY    CA663174   7.757   3.488   6.229  0.2309  0.9150 -0.1794
 2527THY    HA663175   7.788   3.393   6.186 -0.4284  1.5368 -2.1724
 2528THY      O63176   6.030   6.225   0.951  0.1405  0.2129  0.1639
 2528THY     HO63177   5.972   6.167   0.899 -0.1912 -0.2139  0.9932
 2528THY    CA163178   6.055   6.165   1.068  0.7100  0.2975  0.3829
 2528THY    CA263179   6.143   6.215   1.163  0.7539 -0.1743 -0.2805
 2528THY    CP163180   6.249   6.313   1.112 -0.8844  0.2136  0.9937
 2528THY    HP163181   6.224   6.366   1.019  0.7146 -1.8919 -0.7590
 2528THY    CP263182   6.280   6.425   1.212  0.2432  0.7114  0.5594
 2528THY    HP263183   6.190   6.479   1.240  0.6262  2.1889 -0.8705
 2528THY    HP363184   6.331   6.392   1.303 -1.4994  3.0606  2.4973
 2528THY    HP463185   6.347   6.501   1.169  0.2247  1.9446  2.5916
 2528THY    CP363186   6.381   6.236   1.083 -0.3674 -0.2984 -0.4610
 2528THY    HP563187   6.367   6.154   1.012  0.3782 -1.1831  0.3807
 2528THY    HP663188   6.465   6.301   1.056 -0.7337 -0.1877 -1.3541
 2528THY    HP763189   6.403   6.187   1.179 -2.6174 -1.5979 -0.5283
 2528THY    CA363190   6.133   6.171   1.296 -0.4690  0.3904 -0.1204
 2528THY    HA363191   6.200   6.191   1.379  0.4609  1.0654 -1.0105
 2528THY    CA463192   6.026   6.083   1.338 -0.3513  0.0332 -0.6240
 2528THY    HA463193   6.018   6.053   1.442  0.2903  0.1432 -0.5381
 2528THY    CA563194   5.943   6.033   1.236  0.3347 -0.2531  0.1647
 2528THY    CM163195   5.831   5.931   1.260 -0.4843  0.1777  0.4267
 2528THY    HM163196   5.861   5.841   1.204 -0.0692  2.2840 -3.0352
 2528THY    HM263197   5.817   5.892   1.361 -0.1242 -1.6275 -0.1670
 2528THY    HM363198   5.737   5.960   1.212  1.3590  3.5906 -1.4730
 2528THY    CA663199   5.957   6.076   1.100 -0.3085 -0.7773 -0.5642
 2528THY    HA663200   5.892   6.042   1.020  0.9207  0.8406 -2.3132
 2529THY      O63201   4.182   7.509   2.933  0.4716 -0.4551 -0.3305
 2529THY     HO63202   4.211   7.455   2.857  2.4894  0.8840 -0.5963
 2529THY    CA163203   4.179   7.635   2.890  0.1694  0.9620  0.0118
 2529THY    CA263204   4.173   7.743   2.974 -0.5824 -0.5495  0.4989
 2529THY    CP163205   4.152   7.714   3.123 -0.2184  0.0595  0.5560
 2529THY    HP163206   4.135   7.608   3.145 -1.4395  0.1952  0.3297
 2529THY    CP263207   4.276   7.754   3.209 -0.8934 -0.1329  0.2279
 2529THY    HP263208   4.256   7.728   3.314  0.7253 -2.9762 -0.0524
 2529THY    HP363209   4.363   7.691   3.187 -1.0292 -0.6921  1.2112
 2529THY    HP463210   4.293   7.862   3.203  1.1311 -0.4386 -0.1882
 2529THY    CP363211   4.026   7.786   3.182  0.3129  0.0412 -0.1901
 2529THY    HP563212   3.934   7.764   3.127 -0.3068 -2.2846  1.6246
 2529THY    HP663213   4.020   7.764   3.289  0.9361  0.2890 -0.0988
 2529THY    HP763214   4.040   7.894   3.175  1.1194  0.0426  1.0799
 2529THY    CA363215   4.173   7.873   2.921 -0.4254 -0.3590  0.4784
 2529THY    HA363216   4.166   7.958   2.989 -0.5714 -0.0633  0.1011
 2529THY    CA463217   4.169   7.888   2.780  0.1691 -0.4738 -0.3709
 2529THY    HA463218   4.164   7.989   2.740 -1.6806 -0.4019 -0.0742
 2529THY    CA563219   4.172   7.784   2.696  0.6906  0.7058  0.1881
 2529THY    CM163220   4.180   7.791   2.543 -0.1495  0.4809 -0.3293
 2529THY    HM163221   4.155   7.891   2.506 -1.0018  1.4454  2.5565
 2529THY    HM263222   4.278   7.760   2.507 -0.2528  2.0057 -2.0486
 2529THY    HM363223   4.108   7.723   2.496  3.0373 -0.8774 -3.6921
 2529THY    CA663224   4.170   7.657   2.750  0.4225 -0.2084  0.2045
 2529THY    HA663225   4.166   7.569   2.685  1.9531  0.0666 -0.3063
 2530THY      O63226   9.897   9.171   2.572  0.6122  0.3209  0.6227
 2530THY     HO63227   9.922   9.207   2.660 -0.0088  1.2909  0.4223
 2530THY    CA163228   9.767   9.215   2.564 -0.1275 -0.6183 -0.0687
 2530THY    CA263229   9.710   9.271   2.453 -0.0818 -0.3294  0.2688
 2530THY    CP163230   9.792   9.282   2.322 -0.8380 -0.0741 -0.6207
 2530THY    HP163231   9.900   9.292   2.336 -0.6326  0.6879 -2.4816
 2530THY    CP263232   9.770   9.152   2.235  0.1116 -0.1934  0.6255
 2530THY    HP263233   9.822   9.161   2.138  0.2122  0.3991  0.7291
 2530THY    HP363234   9.804   9.065   2.292  1.4134  0.3488  0.6994
 2530THY    HP463235   9.662   9.140   2.221  0.0936 -0.9099  1.3118
 2530THY    CP363236   9.759   9.407   2.238  0.4802 -0.4336 -0.6384
 2530THY    HP563237   9.823   9.421   2.151  0.8590  1.8122 -0.0527
 2530THY    HP663238   9.659   9.386   2.198 -0.1832  0.6303  0.4116
 2530THY    HP763239   9.766   9.490   2.310 -0.3481  0.6435 -1.7514
 2530THY    CA363240   9.578   9.314   2.463 -0.0104  0.0200 -0.7107
 2530THY    HA363241   9.527   9.368   2.384  1.6117  1.4650 -0.8495
 2530THY    CA463242   9.500   9.284   2.576 -0.2843  0.2222 -0.3100
 2530THY    HA463243   9.394   9.309   2.573 -0.6831 -1.0509  1.4197
 2530THY    CA563244   9.561   9.214   2.685  0.1788  0.1713  0.5045
 2530THY    CM163245   9.468   9.167   2.798  0.4597  0.5045  0.0097
 2530THY    HM163246   9.481   9.211   2.898 -3.3792  0.3036  0.7854
 2530THY    HM263247   9.365   9.193   2.770  0.6261 -1.6385 -3.0836
 2530THY    HM363248   9.480   9.058   2.802  0.0995  0.4818  0.7386
 2530THY    CA663249   9.692   9.181   2.672 -0.3651 -0.1455  0.1665
 2530THY    HA663250   9.735   9.123   2.753 -3.4874 -2.3708  0.4145
 2531THY      O63251   6.050   2.115   3.128 -0.4744 -0.2526 -1.0299
 2531THY     HO63252   6.038   2.117   3.224 -0.7058  0.5363 -1.0717
 2531THY    CA163253   5.957   2.035   3.070 -0.5537 -0.6305 -0.1398
 2531THY    CA263254   5.964   2.003   2.929 -0.6318 -0.3156 -0.1055
 2531THY    CP163255   6.064   2.070   2.834 -0.1510 -0.2352 -0.3581
 2531THY    HP163256   6.095   2.168   2.871 -0.0759  0.4083 -2.0324
 2531THY    CP263257   6.187   1.989   2.800  0.0800  0.3166 -0.3830
 2531THY    HP263258   6.257   2.056   2.748 -1.0022 -0.4621 -3.0271
 2531THY    HP363259   6.237   1.960   2.892  0.3340 -1.4219 -1.0322
 2531THY    HP463260   6.179   1.898   2.739  2.3881 -1.7701  2.1980
 2531THY    CP363261   5.991   2.103   2.703 -0.4446  0.0523  0.1635
 2531THY    HP563262   5.910   2.175   2.718  1.2819  2.2213 -0.4146
 2531THY    HP663263   6.066   2.147   2.636 -1.1617  3.2123  1.2979
 2531THY    HP763264   5.957   2.008   2.658 -1.0086 -0.3340  1.3576
 2531THY    CA363265   5.880   1.894   2.881 -0.7002  0.0159 -0.5052
 2531THY    HA363266   5.887   1.859   2.778  1.6597  1.1673 -0.8020
 2531THY    CA463267   5.781   1.853   2.972 -0.2016 -0.0467  0.2747
 2531THY    HA463268   5.710   1.778   2.938 -0.4649  0.1830  0.3146
 2531THY    CA563269   5.765   1.907   3.100  0.5376  0.4176  0.2156
 2531THY    CM163270   5.652   1.868   3.191 -0.1424 -0.3962  0.5027
 2531THY    HM163271   5.608   1.776   3.153 -1.7847  0.4885  0.1499
 2531THY    HM263272   5.700   1.835   3.283 -2.1914 -2.1530  1.0232
 2531THY    HM363273   5.575   1.945   3.203 -0.5067 -0.8044  0.8022
 2531THY    CA663274   5.860   1.988   3.154 -0.7321 -0.0692  0.8031
 2531THY    HA663275   5.855   2.024   3.256 -1.0046  1.5483  0.2513
 2532THY      O63276   0.706   6.560   9.046 -0.4219 -0.4807  0.3086
 2532THY     HO63277   0.762   6.637   9.067 -0.1419 -0.9491  1.3807
 2532THY    CA163278   0.780   6.479   8.962  0.0295 -0.2411 -0.2623
 2532THY    CA263279   0.732   6.352   8.922  0.7272 -0.1567  0.1698
 2532THY    CP163280   0.592   6.306   8.972 -0.1856  0.3074 -0.0840
 2532THY    HP163281   0.563   6.359   9.063 -1.8100  0.5421 -0.7155
 2532THY    CP263282   0.493   6.326   8.851  0.2062  0.1979 -0.0423
 2532THY    HP263283   0.512   6.425   8.807  0.3246  0.0264 -0.3779
 2532THY    HP363284   0.502   6.252   8.771  0.4405 -0.5455  0.6557
 2532THY    HP463285   0.389   6.321   8.886  0.2274  0.8538  0.1447
 2532THY    CP363286   0.598   6.149   9.004  0.2478 -0.0742  0.6160
 2532THY    HP563287   0.654   6.140   9.097  0.3747 -0.3385  0.5144
 2532THY    HP663288   0.497   6.116   9.031 -0.1554 -0.4103 -1.1737
 2532THY    HP763289   0.638   6.092   8.920  2.1775  2.3046 -0.1930
 2532THY    CA363290   0.805   6.278   8.828 -0.3070 -0.2965 -0.3742
 2532THY    HA363291   0.756   6.193   8.782 -2.5943  0.7715 -0.0882
 2532THY    CA463292   0.925   6.328   8.784  0.0301 -0.5189  0.0037
 2532THY    HA463293   0.971   6.274   8.702  0.6391  2.8545 -2.0494
 2532THY    CA563294   0.971   6.456   8.821 -0.5116 -0.0074  0.4043
 2532THY    CM163295   1.109   6.488   8.786  0.0129  0.6901 -0.2459
 2532THY    HM163296   1.150   6.581   8.827  0.2680  0.7218 -0.5721
 2532THY    HM263297   1.182   6.409   8.808 -1.0114 -0.0797  0.4808
 2532THY    HM363298   1.113   6.502   8.678  3.2755 -1.0626 -0.4866
 2532THY    CA663299   0.903   6.530   8.915  0.6628 -0.8699 -0.1633
 2532THY    HA663300   0.945   6.617   8.964 -0.4363 -1.5167  2.0323
 2533THY      O63301   9.086   4.608   0.645  0.3545  0.0254  0.2908
 2533THY     HO63302   9.098   4.677   0.577  0.8508 -2.4168 -2.2537
 2533THY    CA163303   9.034   4.670   0.750 -0.2467  0.4429 -0.6761
 2533THY    CA263304   9.013   4.602   0.874  0.3636 -1.0442  0.3360
 2533THY    CP163305   9.045   4.456   0.890  0.4477  0.5571 -0.8252
 2533THY    HP163306   9.001   4.398   0.807  1.2375 -0.6283 -0.4485
 2533THY    CP263307   9.201   4.437   0.895 -0.2572  0.0437  0.5663
 2533THY    HP263308   9.236   4.333   0.895 -0.6660 -0.0959  0.2691
 2533THY    HP363309   9.250   4.478   0.806 -1.4648 -1.4759 -0.8538
 2533THY    HP463310   9.238   4.494   0.982 -0.0097  1.8776 -0.6847
 2533THY    CP363311   8.998   4.389   1.019  0.9875 -0.0220 -0.3101
 2533THY    HP563312   8.900   4.430   1.047  2.0275  1.7875  0.8780
 2533THY    HP663313   8.988   4.281   1.002  0.1299  0.0081 -0.0412
 2533THY    HP763314   9.058   4.404   1.109  0.8537 -0.2909 -0.1762
 2533THY    CA363315   8.976   4.679   0.986  1.5672 -0.2463  0.0307
 2533THY    HA363316   8.977   4.632   1.083 -0.0487  1.2283  0.8242
 2533THY    CA463317   8.944   4.815   0.966 -0.1955 -0.3621 -0.2950
 2533THY    HA463318   8.903   4.871   1.049  0.1885 -0.7356  0.1542
 2533THY    CA563319   8.972   4.887   0.848 -0.2127  0.0684  0.3043
 2533THY    CM163320   8.957   5.037   0.832 -0.1382 -0.4542  0.0388
 2533THY    HM163321   9.023   5.073   0.753  1.0196  0.7183  1.4773
 2533THY    HM263322   8.858   5.075   0.805  0.8845  2.7051  0.3456
 2533THY    HM363323   8.988   5.078   0.929 -0.5557 -1.2418  0.5267
 2533THY    CA663324   9.013   4.812   0.740  0.6443 -0.2904 -0.3409
 2533THY    HA663325   9.050   4.862   0.651  1.3918 -3.9814 -2.2877
 2534THY      O63326   7.184   9.442   6.712 -0.3102 -0.3117  0.1716
 2534THY     HO63327   7.096   9.475   6.689 -0.0306  1.0110  0.8457
 2534THY    CA163328   7.246   9.430   6.593  0.2293 -0.4651 -0.5316
 2534THY    CA263329   7.333   9.327   6.565 -0.2105 -0.5705 -0.0461
 2534THY    CP163330   7.368   9.218   6.659  0.2446 -0.0773 -0.3439
 2534THY    HP163331   7.356   9.260   6.759  3.4712  0.5241 -0.0773
 2534THY    CP263332   7.266   9.102   6.649 -1.0889  0.3289 -0.7389
 2534THY    HP263333   7.175   9.146   6.691 -1.2416 -0.0829 -0.6368
 2534THY    HP363334   7.248   9.057   6.551  1.5559 -0.9133 -0.7657
 2534THY    HP463335   7.303   9.017   6.708 -0.8152  0.1570 -1.1545
 2534THY    CP363336   7.513   9.169   6.654 -0.5103  0.1989  0.1933
 2534THY    HP563337   7.550   9.126   6.560 -1.3316 -1.0463  0.4133
 2534THY    HP663338   7.575   9.256   6.679 -1.0963  0.6076  0.2568
 2534THY    HP763339   7.524   9.088   6.727  2.1374  1.4422  1.3287
 2534THY    CA363340   7.388   9.336   6.432  1.2716  0.5396  0.0378
 2534THY    HA363341   7.458   9.260   6.399  0.4187 -1.2396  2.1286
 2534THY    CA463342   7.349   9.430   6.336  0.1375 -0.5366 -0.3862
 2534THY    HA463343   7.396   9.437   6.238  0.2460 -0.7080 -0.3458
 2534THY    CA563344   7.259   9.530   6.376 -0.0755 -0.7397 -0.7138
 2534THY    CM163345   7.214   9.640   6.286 -0.4624  0.1969 -0.7895
 2534THY    HM163346   7.302   9.697   6.252 -0.8737  1.5476  0.3266
 2534THY    HM263347   7.151   9.611   6.201 -0.9489 -0.8029 -0.1015
 2534THY    HM363348   7.154   9.721   6.328  1.7791  1.2549  0.5341
 2534THY    CA663349   7.208   9.527   6.503 -0.5338  0.5454  0.0714
 2534THY    HA663350   7.145   9.607   6.539 -0.2163  1.3391 -1.0814
 2535THY      O63351   5.029   6.171   5.372  0.3820 -0.2404 -0.1037
 2535THY     HO63352   5.026   6.257   5.326  2.3267 -0.7452 -1.2831
 2535THY    CA163353   5.045   6.206   5.504  0.4660 -0.2839  1.2285
 2535THY    CA263354   5.052   6.101   5.592  0.2996  0.0983 -0.0350
 2535THY    CP163355   5.040   5.952   5.533  0.0102  0.8883 -0.1570
 2535THY    HP163356   5.092   5.952   5.437 -0.8711  1.6745 -0.6558
 2535THY    CP263357   5.111   5.852   5.622  0.2148  0.2518  0.5644
 2535THY    HP263358   5.207   5.894   5.654 -0.0806  0.5827  1.0292
 2535THY    HP363359   5.055   5.834   5.715  0.5945 -0.0629  0.7363
 2535THY    HP463360   5.140   5.755   5.579 -1.5171 -0.6089  1.2290
 2535THY    CP363361   4.893   5.912   5.497 -0.1212 -0.3246 -0.6796
 2535THY    HP563362   4.888   5.820   5.438  0.9735  0.3245 -1.8333
 2535THY    HP663363   4.821   5.910   5.579 -0.1618 -0.3881 -0.7164
 2535THY    HP763364   4.845   5.987   5.434  0.2335  1.4855  1.0762
 2535THY    CA363365   5.069   6.124   5.729 -0.3525 -0.0094  0.6113
 2535THY    HA363366   5.062   6.042   5.800 -0.8601 -1.2051 -0.7628
 2535THY    CA463367   5.076   6.256   5.773 -0.0028 -0.4992  0.0008
 2535THY    HA463368   5.077   6.278   5.880  0.1179 -2.2885  0.3968
 2535THY    CA563369   5.052   6.369   5.681 -0.4881  0.3037 -0.3505
 2535THY    CM163370   5.044   6.517   5.734 -0.1358  0.2141 -0.0291
 2535THY    HM163371   5.134   6.576   5.714  0.0167  0.2779  0.7835
 2535THY    HM263372   4.953   6.562   5.693 -0.5143 -0.4452  0.0709
 2535THY    HM363373   5.042   6.508   5.844  1.2332  1.0225  0.0937
 2535THY    CA663374   5.033   6.342   5.545  0.0751 -0.2914 -0.8884
 2535THY    HA663375   5.000   6.414   5.471  1.4641  0.2666 -1.0032
 2536THY      O63376   2.992   5.008   7.701  0.1196 -0.0273 -0.2208
 2536THY     HO63377   3.066   4.969   7.750  0.9344 -0.0593 -1.4264
 2536THY    CA163378   2.983   5.138   7.734 -0.4573 -0.3136 -0.1180
 2536THY    CA263379   2.942   5.240   7.643  0.6217  0.7306  0.2304
 2536THY    CP163380   2.898   5.200   7.507  0.2397 -0.0041 -0.4137
 2536THY    HP163381   2.913   5.092   7.505 -0.1908 -0.0658 -0.3570
 2536THY    CP263382   2.749   5.231   7.472 -0.1282  0.1180 -0.0021
 2536THY    HP263383   2.679   5.183   7.542 -1.9892  1.0476 -1.1469
 2536THY    HP363384   2.725   5.338   7.467  0.2769  0.1910 -0.4850
 2536THY    HP463385   2.723   5.180   7.379  0.5819  1.3768 -0.9212
 2536THY    CP363386   2.986   5.276   7.402  0.4410 -0.2251  0.3674
 2536THY    HP563387   2.966   5.384   7.406 -1.9749 -0.5369 -1.3028
 2536THY    HP663388   3.092   5.273   7.426  0.2846  2.3040  1.7338
 2536THY    HP763389   2.955   5.233   7.306 -3.1448  0.6390  0.9928
 2536THY    CA363390   2.940   5.379   7.685 -0.2947 -0.2410 -0.4473
 2536THY    HA363391   2.908   5.460   7.621 -1.1537  0.1714  0.4852
 2536THY    CA463392   2.981   5.404   7.817  0.1298 -0.6792  0.2827
 2536THY    HA463393   2.983   5.507   7.851  0.3503 -0.0417 -1.5632
 2536THY    CA563394   3.008   5.306   7.909 -0.1482  0.1411  0.8079
 2536THY    CM163395   3.045   5.333   8.048 -0.0750  0.3355  0.1602
 2536THY    HM163396   3.154   5.341   8.042 -0.1395  1.6362  0.3169
 2536THY    HM263397   2.998   5.424   8.089  0.0878  0.9046 -0.8946
 2536THY    HM363398   3.023   5.246   8.111  1.3186  0.6195  1.0816
 2536THY    CA663399   3.012   5.170   7.864  0.1589  0.3182 -0.0750
 2536THY    HA663400   3.034   5.090   7.934 -0.3699  0.4274  0.2243
 2537THY      O63401   1.083   5.472   4.069  0.1250 -0.2969 -0.0800
 2537THY     HO63402   0.994   5.433   4.071  0.0556 -0.1152  1.0869
 2537THY    CA163403   1.144   5.440   3.954 -0.0756  0.1107 -0.5974
 2537THY    CA263404   1.268   5.494   3.918 -0.1118  0.2244  0.4950
 2537THY    CP163405   1.334   5.590   4.016 -0.6003 -0.1322 -0.1736
 2537THY    HP163406   1.294   5.574   4.117 -0.4976 -1.6887 -0.3545
 2537THY    CP263407   1.487   5.560   4.026 -0.1373  0.1279 -0.0701
 2537THY    HP263408   1.522   5.460   3.999  0.3398  1.1017 -3.6563
 2537THY    HP363409   1.535   5.624   3.950  1.0304 -1.6976 -0.9300
 2537THY    HP463410   1.528   5.590   4.123  0.5524 -0.2168 -0.2462
 2537THY    CP363411   1.309   5.736   3.984  0.3451 -0.0756  0.2591
 2537THY    HP563412   1.213   5.762   4.031  0.0596 -2.6537  1.2163
 2537THY    HP663413   1.399   5.792   4.014  0.8028 -1.3340  1.3272
 2537THY    HP763414   1.296   5.754   3.877  0.3579  0.9422  0.4124
 2537THY    CA363415   1.318   5.469   3.787  0.8714  0.1826  0.0681
 2537THY    HA363416   1.411   5.515   3.755  1.2023  0.0278  0.7795
 2537THY    CA463417   1.239   5.392   3.698 -0.1293  0.5251 -0.4319
 2537THY    HA463418   1.272   5.380   3.595 -2.7754 -3.0369 -1.0787
 2537THY    CA563419   1.124   5.328   3.742 -0.0014 -0.3136  0.2904
 2537THY    CM163420   1.046   5.243   3.648  0.1273 -0.4212  0.6767
 2537THY    HM163421   1.024   5.157   3.712 -1.2512 -0.2776  0.4206
 2537THY    HM263422   0.957   5.289   3.604  3.0967  4.3156 -1.2493
 2537THY    HM363423   1.115   5.203   3.573  1.7425  1.6803  0.9262
 2537THY    CA663424   1.073   5.351   3.874  0.1131 -0.7163  0.3549
 2537THY    HA663425   0.978   5.314   3.911  1.0564 -2.0610  1.5601
 2538THY      O63426   8.645   5.200   3.542  0.3840 -0.7799 -0.2626
 2538THY     HO63427   8.649   5.272   3.477  0.7095  0.8638  1.4812
 2538THY    CA163428   8.772   5.174   3.581 -0.9492  0.2382  0.8740
 2538THY    CA263429   8.810   5.133   3.710  0.6006  0.4234 -0.2759
 2538THY    CP163430   8.706   5.117   3.829 -0.1118  1.2444  0.0730
 2538THY    HP163431   8.611   5.156   3.789  1.1406  3.3088 -1.1083
 2538THY    CP263432   8.687   4.969   3.869 -0.7815  0.0235  0.0180
 2538THY    HP263433   8.785   4.922   3.859 -0.4051  0.6895  0.4915
 2538THY    HP363434   8.660   4.940   3.972 -1.2728 -1.2496 -0.4417
 2538THY    HP463435   8.623   4.912   3.800 -0.1099 -1.4354  0.5567
 2538THY    CP363436   8.758   5.194   3.952  0.1007  0.3355 -0.1600
 2538THY    HP563437   8.771   5.298   3.921  3.5873 -0.2064 -0.8779
 2538THY    HP663438   8.674   5.190   4.023  1.0529 -0.1234  0.9848
 2538THY    HP763439   8.847   5.150   3.998  0.2452  0.8518  0.0537
 2538THY    CA363440   8.941   5.092   3.728 -0.1105 -0.3743 -0.1930
 2538THY    HA363441   8.987   5.047   3.816  1.5678  0.4606 -0.5956
 2538THY    CA463442   9.031   5.088   3.618  0.1488  0.2578  0.4478
 2538THY    HA463443   9.133   5.054   3.635 -0.0121  0.1664  1.3049
 2538THY    CA563444   8.993   5.138   3.495  0.2377  0.0138  0.0633
 2538THY    CM163445   9.088   5.165   3.388 -0.2036  0.2200 -0.0894
 2538THY    HM163446   9.047   5.234   3.313 -0.5812  0.8915  0.7206
 2538THY    HM263447   9.182   5.216   3.407  1.3717 -1.1597 -3.3330
 2538THY    HM363448   9.118   5.069   3.344  1.4021  0.0195  1.3696
 2538THY    CA663449   8.863   5.176   3.475  0.3401  0.3208 -0.2485
 2538THY    HA663450   8.832   5.207   3.376 -2.0485 -0.9116  0.0311
 2539THY      O63451   3.070   3.888   8.028  0.1226 -0.4510  0.3739
 2539THY     HO63452   3.099   3.800   7.999  0.4598 -0.4349  0.6634
 2539THY    CA163453   3.116   3.914   8.152  0.1673  0.6561 -0.0046
 2539THY    CA263454   3.101   4.035   8.214 -0.4702  0.2674  0.1370
 2539THY    CP163455   3.026   4.150   8.148 -0.2249  0.1780  0.0885
 2539THY    HP163456   2.937   4.111   8.099 -1.8389  0.8113  2.3640
 2539THY    CP263457   2.970   4.249   8.251  0.5824 -0.9318  0.4386
 2539THY    HP263458   3.039   4.329   8.282 -2.4902  2.0405  0.2539
 2539THY    HP363459   2.886   4.310   8.215  0.3714  0.2209  2.6890
 2539THY    HP463460   2.934   4.203   8.344  0.2966  2.3769  2.1311
 2539THY    CP363461   3.114   4.224   8.048 -0.7362  0.1800  0.5512
 2539THY    HP563462   3.070   4.317   8.009  0.1595  0.0183 -0.9672
 2539THY    HP663463   3.216   4.244   8.082 -0.8938 -0.4673  1.4264
 2539THY    HP763464   3.136   4.168   7.956  0.6414  0.2038  0.8455
 2539THY    CA363465   3.174   4.056   8.334 -0.2856 -0.2915 -0.6419
 2539THY    HA363466   3.178   4.150   8.389 -1.1329 -0.3212 -0.5201
 2539THY    CA463467   3.240   3.951   8.392 -0.8560  0.0353 -0.2246
 2539THY    HA463468   3.292   3.972   8.485 -0.6654 -0.1035 -0.3003
 2539THY    CA563469   3.233   3.829   8.332  0.2489 -0.4740 -0.6467
 2539THY    CM163470   3.284   3.719   8.415  0.4159  0.1720 -0.5418
 2539THY    HM163471   3.310   3.629   8.357  0.9086  1.1983 -1.9881
 2539THY    HM263472   3.380   3.742   8.463  1.5300 -3.2912 -0.8641
 2539THY    HM363473   3.209   3.686   8.487 -0.8756  1.6407 -1.1535
 2539THY    CA663474   3.181   3.813   8.210 -0.3017 -0.4311 -0.3864
 2539THY    HA663475   3.178   3.714   8.165  0.3018 -1.2070  1.2194
 2540THY      O63476   5.012   1.076   8.287  0.2457 -0.0182 -0.4483
 2540THY     HO63477   4.934   1.078   8.228  0.6034  0.3876 -0.9162
 2540THY    CA163478   5.062   0.954   8.269 -0.5932  0.2332 -0.3578
 2540THY    CA263479   5.200   0.925   8.290 -0.1884 -0.9776  0.2428
 2540THY    CP163480   5.302   1.040   8.308  0.9227  0.4511 -0.5351
 2540THY    HP163481   5.261   1.138   8.338  3.1507  1.3160 -0.0567
 2540THY    CP263482   5.398   0.992   8.410  0.2867  0.4711  0.0701
 2540THY    HP263483   5.349   0.978   8.507 -1.3110  0.1305 -0.7587
 2540THY    HP363484   5.460   0.908   8.377  1.2060  0.7417  1.0603
 2540THY    HP463485   5.453   1.079   8.446  0.1184  0.3396  0.6526
 2540THY    CP363486   5.385   1.063   8.182 -0.0080 -0.0339 -0.0369
 2540THY    HP563487   5.482   1.112   8.196  0.8264 -0.8165 -2.5274
 2540THY    HP663488   5.401   0.969   8.128 -1.4814  0.7042 -1.8737
 2540THY    HP763489   5.326   1.130   8.119 -0.3253  0.0900  0.3834
 2540THY    CA363490   5.242   0.794   8.251  0.5909  0.1001 -1.0741
 2540THY    HA363491   5.346   0.766   8.257  0.8208  0.9737 -0.8321
 2540THY    CA463492   5.154   0.697   8.200 -0.1199  0.3563 -0.7287
 2540THY    HA463493   5.192   0.600   8.170 -0.0160 -0.6735  2.3972
 2540THY    CA563494   5.020   0.731   8.176  0.2905 -0.4718 -0.0712
 2540THY    CM163495   4.924   0.635   8.106  0.6712  0.4820 -0.2106
 2540THY    HM163496   4.980   0.549   8.067  0.5462 -0.0720  0.7929
 2540THY    HM263497   4.848   0.602   8.179  0.1082  0.4662 -0.7921
 2540THY    HM363498   4.875   0.670   8.015  2.5173 -0.7136 -1.7444
 2540THY    CA663499   4.974   0.851   8.224 -0.0444 -0.7539  0.7013
 2540THY    HA663500   4.872   0.880   8.204  0.7760  1.2437 -0.8582
 2541THY      O63501   2.094   8.616   5.197 -0.7671  0.4639 -0.6037
 2541THY     HO63502   2.114   8.709   5.219  0.4519  0.2784 -0.9003
 2541THY    CA163503   1.979   8.579   5.258  0.1416  0.0175 -0.5501
 2541THY    CA263504   1.916   8.459   5.219  0.1753  0.0872 -0.4715
 2541THY    CP163505   1.986   8.356   5.123  0.1508 -0.2520 -0.1867
 2541THY    HP163506   2.085   8.391   5.090  0.2835 -0.6677 -0.2304
 2541THY    CP263507   2.009   8.222   5.204  0.5036 -1.0440  0.4455
 2541THY    HP263508   2.048   8.247   5.303  0.5915  0.4623  0.0555
 2541THY    HP363509   1.918   8.161   5.207 -0.6655  0.6088  0.2672
 2541THY    HP463510   2.085   8.176   5.140  0.9333 -0.7136  0.7115
 2541THY    CP363511   1.899   8.325   5.001  0.2497  0.4578  0.4062
 2541THY    HP563512   1.881   8.416   4.942 -2.1237  0.7091  1.4231
 2541THY    HP663513   1.948   8.249   4.938  0.8225  0.5921  0.6851
 2541THY    HP763514   1.804   8.283   5.037 -0.4753  0.1762 -1.6693
 2541THY    CA363515   1.791   8.423   5.285 -0.3845  0.4047 -0.0779
 2541THY    HA363516   1.746   8.326   5.265 -0.2598  0.0760  1.1655
 2541THY    CA463517   1.730   8.516   5.362  0.2640 -0.5171 -0.0340
 2541THY    HA463518   1.636   8.492   5.412  1.8250 -2.1640  2.3308
 2541THY    CA563519   1.791   8.638   5.398 -0.4770 -1.0949  0.3695
 2541THY    CM163520   1.718   8.744   5.472  0.1415 -0.0091  0.0124
 2541THY    HM163521   1.741   8.841   5.426 -0.4737 -0.4470 -1.2721
 2541THY    HM263522   1.611   8.721   5.466  0.3969 -1.2973  0.2140
 2541THY    HM363523   1.744   8.751   5.578 -0.3397  0.8506  0.0876
 2541THY    CA663524   1.917   8.665   5.345  0.5097  0.3521 -0.5110
 2541THY    HA663525   1.963   8.759   5.375  2.6159 -0.7614 -0.0112
 2542THY      O63526   9.238   6.603   7.547 -0.3236 -0.2192 -0.2863
 2542THY     HO63527   9.195   6.556   7.620  0.0704  2.5661  1.9356
 2542THY    CA163528   9.257   6.729   7.598 -0.0198  0.3309 -0.4505
 2542THY    CA263529   9.326   6.835   7.529 -0.1406  0.4664 -0.4482
 2542THY    CP163530   9.395   6.809   7.392  0.6157  0.7574  0.0717
 2542THY    HP163531   9.388   6.704   7.363  1.7796  0.5954  0.3087
 2542THY    CP263532   9.322   6.890   7.287  0.0157 -0.0225 -0.4497
 2542THY    HP263533   9.331   6.998   7.304 -1.6811  0.0385  0.2052
 2542THY    HP363534   9.351   6.850   7.189  1.5704 -2.9019  1.0611
 2542THY    HP463535   9.215   6.870   7.297 -0.2838  1.6997  0.1790
 2542THY    CP363536   9.545   6.844   7.395  0.2835  0.1562 -0.0009
 2542THY    HP563537   9.588   6.831   7.295  0.1157 -0.2165 -0.0255
 2542THY    HP663538   9.561   6.950   7.420  2.1034  0.0559 -0.6252
 2542THY    HP763539   9.602   6.777   7.459  0.0618 -1.4872 -1.4546
 2542THY    CA363540   9.334   6.964   7.582  0.1276 -0.1071  0.2741
 2542THY    HA363541   9.385   7.046   7.532 -0.8267  2.4492  3.1414
 2542THY    CA463542   9.273   6.983   7.703  0.0487  0.0497  0.8662
 2542THY    HA463543   9.275   7.084   7.742 -0.2688  0.4419 -0.1247
 2542THY    CA563544   9.213   6.878   7.775  0.1260  0.9337  0.0821
 2542THY    CM163545   9.141   6.910   7.910 -0.6833  0.4239 -0.2261
 2542THY    HM163546   9.135   7.018   7.932  1.9137  0.5562  0.1843
 2542THY    HM263547   9.039   6.872   7.912  0.1350 -1.9015  0.6215
 2542THY    HM363548   9.207   6.868   7.986  2.0761  2.5426 -1.2594
 2542THY    CA663549   9.212   6.753   7.730 -0.0282  0.3371  0.3728
 2542THY    HA663550   9.172   6.679   7.799  0.0157 -0.4642 -0.4474
 2543THY      O63551   1.557   5.189   1.768  0.9354  0.2108  0.3809
 2543THY     HO63552   1.635   5.213   1.714 -0.4480  1.1987 -1.2643
 2543THY    CA163553   1.457   5.274   1.735 -0.1462  0.5817  0.1121
 2543THY    CA263554   1.391   5.269   1.615 -0.0855  0.2296 -0.5005
 2543THY    CP163555   1.416   5.157   1.514  0.8617 -0.1712 -0.5041
 2543THY    HP163556   1.525   5.144   1.513  0.7841 -1.0256  0.6257
 2543THY    CP263557   1.362   5.022   1.551 -0.2651 -0.1860 -0.6048
 2543THY    HP263558   1.431   4.943   1.520  0.6479  0.7620 -1.0540
 2543THY    HP363559   1.356   5.014   1.660  0.8290 -0.8814 -0.5851
 2543THY    HP463560   1.260   5.003   1.514 -1.7069 -0.7633  3.2182
 2543THY    CP363561   1.380   5.205   1.371 -0.3485  0.2357 -0.2990
 2543THY    HP563562   1.289   5.266   1.364 -0.7838 -0.1035  1.6513
 2543THY    HP663563   1.462   5.271   1.342  2.0148 -2.6295 -0.6134
 2543THY    HP763564   1.387   5.120   1.302  0.3362  1.1142 -1.3504
 2543THY    CA363565   1.286   5.369   1.596  0.0340 -0.0306 -0.9928
 2543THY    HA363566   1.218   5.368   1.511  1.4016  0.4712 -2.1431
 2543THY    CA463567   1.262   5.463   1.699  0.1478  0.5498  0.5602
 2543THY    HA463568   1.181   5.535   1.689 -1.3955 -1.0900  0.9032
 2543THY    CA563569   1.344   5.467   1.810  0.9140 -0.2230 -0.1814
 2543THY    CM163570   1.324   5.572   1.912  0.5604 -0.2937 -0.2118
 2543THY    HM163571   1.319   5.677   1.881 -2.5693  0.5830  2.7550
 2543THY    HM263572   1.228   5.554   1.961 -0.4189 -0.0776 -1.9507
 2543THY    HM363573   1.404   5.572   1.987 -0.7787  0.8454  1.2836
 2543THY    CA663574   1.438   5.370   1.830 -0.2634  0.9478  0.0976
 2543THY    HA663575   1.490   5.367   1.925  0.5966 -0.7025 -0.3877
 2544THY      O63576   5.878   9.629   0.248 -0.2628 -0.4845 -0.2775
 2544THY     HO63577   5.918   9.711   0.213 -1.2760 -0.0870 -0.5436
 2544THY    CA163578   5.933   9.516   0.198 -0.3991  0.1244  0.1011
 2544THY    CA263579   5.956   9.395   0.274  0.3697 -0.1942  0.6090
 2544THY    CP163580   5.921   9.409   0.420 -0.2667  0.0186  0.8749
 2544THY    HP163581   5.819   9.448   0.425  0.6574  3.0501 -1.1744
 2544THY    CP263582   5.927   9.270   0.494  0.3979  0.0434 -0.5946
 2544THY    HP263583   6.023   9.218   0.500  0.9646  1.2007  3.5483
 2544THY    HP363584   5.890   9.296   0.594 -2.4963  0.8658 -1.7523
 2544THY    HP463585   5.856   9.201   0.446  1.4240 -0.4308 -1.4833
 2544THY    CP363586   6.015   9.508   0.499  0.4601  0.2470 -0.1735
 2544THY    HP563587   5.978   9.611   0.494  0.8167  0.4548  1.0725
 2544THY    HP663588   6.047   9.484   0.601  0.5521 -3.3072 -0.9243
 2544THY    HP763589   6.114   9.506   0.452  0.9203  0.3413  0.7621
 2544THY    CA363590   6.014   9.285   0.201  0.1003  0.5939  0.4191
 2544THY    HA363591   6.042   9.197   0.257  0.6100  1.6089  1.8365
 2544THY    CA463592   6.049   9.290   0.065 -0.2761 -0.0497 -0.6272
 2544THY    HA463593   6.097   9.203   0.021 -0.5017 -2.2600  3.0601
 2544THY    CA563594   6.013   9.406  -0.008 -0.6576 -0.0658 -0.4840
 2544THY    CM163595   6.056   9.424  -0.152  0.0875 -0.3265  0.8592
 2544THY    HM163596   5.971   9.394  -0.214 -1.0635  1.6095  1.4206
 2544THY    HM263597   6.071   9.528  -0.183 -4.7874  0.1481 -0.7339
 2544THY    HM363598   6.141   9.369  -0.193 -0.8112 -2.0211  1.1891
 2544THY    CA663599   5.960   9.520   0.056  0.4520  0.0549  0.8109
 2544THY    HA663600   5.938   9.606  -0.006  1.9742 -0.3658 -0.3987
 2545THY      O63601   5.848   4.221   6.589  0.2952 -0.0209  0.0891
 2545THY     HO63602   5.785   4.148   6.600 -0.2569  0.4255 -0.1081
 2545THY    CA163603   5.792   4.332   6.648  0.1395  0.1569 -0.6049
 2545THY    CA263604   5.868   4.431   6.717  0.9478  0.2593  0.1803
 2545THY    CP163605   6.020   4.419   6.715 -0.1007 -0.0691 -0.2101
 2545THY    HP163606   6.053   4.340   6.647 -0.2879 -2.4263  2.2719
 2545THY    CP263607   6.077   4.546   6.662 -0.9797  0.5430 -0.9860
 2545THY    HP263608   6.096   4.612   6.748  0.6865 -0.5395 -0.4772
 2545THY    HP363609   6.171   4.532   6.609  0.5016  0.6296  1.4467
 2545THY    HP463610   6.009   4.586   6.586 -0.8814 -3.5487 -3.5351
 2545THY    CP363611   6.091   4.373   6.848  0.3052 -0.0667  0.1492
 2545THY    HP563612   6.074   4.441   6.933  0.3774  0.8520 -0.5528
 2545THY    HP663613   6.064   4.269   6.871 -0.3786  0.5044  2.1529
 2545THY    HP763614   6.200   4.378   6.839  0.1951  1.6214 -0.6056
 2545THY    CA363615   5.798   4.542   6.770  0.2989  0.0929 -1.0234
 2545THY    HA363616   5.844   4.631   6.811 -0.4543  1.2070 -2.5163
 2545THY    CA463617   5.660   4.544   6.769  1.5002  0.4571 -0.5102
 2545THY    HA463618   5.605   4.631   6.804 -1.3618 -1.7138  0.8097
 2545THY    CA563619   5.585   4.441   6.707  0.1483 -0.3453 -0.2470
 2545THY    CM163620   5.434   4.466   6.696 -0.6777 -0.3820  0.5205
 2545THY    HM163621   5.377   4.378   6.664 -0.0716  0.2688 -2.6057
 2545THY    HM263622   5.397   4.507   6.791  1.1381 -0.4173  1.2786
 2545THY    HM363623   5.425   4.552   6.629 -0.6425 -0.2340  0.7055
 2545THY    CA663624   5.649   4.335   6.647  0.1911 -0.2272 -0.4063
 2545THY    HA663625   5.596   4.257   6.593  1.5921 -1.0043 -0.7149
 2546THY      O63626   0.597   3.082   7.582 -0.2822  0.9699 -0.2306
 2546THY     HO63627   0.614   3.084   7.678 -1.1150 -3.0901  0.1951
 2546THY    CA163628   0.522   2.969   7.571 -0.2046  0.0545  0.1611
 2546THY    CA263629   0.455   2.944   7.451 -0.1125  0.0965 -0.5046
 2546THY    CP163630   0.477   3.039   7.332  0.2058  0.0340 -0.0651
 2546THY    HP163631   0.557   3.111   7.354 -0.9845  1.0418  1.1316
 2546THY    CP263632   0.510   2.968   7.196 -0.2172  0.9621  0.2728
 2546THY    HP263633   0.541   3.048   7.128 -1.0564  1.9785  1.0634
 2546THY    HP363634   0.593   2.896   7.209 -0.5429  0.6028  0.3776
 2546THY    HP463635   0.433   2.906   7.149  2.3833 -3.5126  1.2272
 2546THY    CP363636   0.347   3.133   7.303 -0.8984  0.0637 -0.3099
 2546THY    HP563637   0.258   3.077   7.272 -0.6643 -2.0917  2.5385
 2546THY    HP663638   0.317   3.188   7.394 -0.4383 -0.9224  0.4548
 2546THY    HP763639   0.371   3.210   7.229  1.8602 -1.8449 -1.5517
 2546THY    CA363640   0.381   2.824   7.440 -1.1278 -0.1246 -0.3685
 2546THY    HA363641   0.334   2.802   7.344  1.6365 -1.2698 -1.5813
 2546THY    CA463642   0.365   2.743   7.552 -0.3145 -0.2796  0.1500
 2546THY    HA463643   0.314   2.647   7.542  1.7835 -1.2975 -2.0691
 2546THY    CA563644   0.428   2.776   7.672  0.1818 -0.1056  0.1220
 2546THY    CM163645   0.422   2.680   7.786  0.3889  0.1823 -0.5735
 2546THY    HM163646   0.440   2.731   7.881  0.0413 -0.4266 -0.1758
 2546THY    HM263647   0.327   2.627   7.796  0.0114  0.9224 -0.2316
 2546THY    HM363648   0.504   2.609   7.766 -0.5390 -1.7949  2.1104
 2546THY    CA663649   0.514   2.881   7.676 -0.1202 -0.5619 -0.3888
 2546THY    HA663650   0.568   2.905   7.767  0.5840 -2.0222 -0.4047
 2547THY      O63651   2.563   1.745   7.548  0.0086  0.2222 -0.0134
 2547THY     HO63652   2.559   1.786   7.459 -1.1302  0.9878  0.3563
 2547THY    CA163653   2.634   1.636   7.539  0.0482  0.0427  0.9708
 2547THY    CA263654   2.610   1.519   7.621 -0.6163 -0.2031  0.4319
 2547THY    CP163655   2.505   1.527   7.735  0.2671 -0.2297 -0.4003
 2547THY    HP163656   2.457   1.626   7.728 -0.1785 -0.2482  1.7634
 2547THY    CP263657   2.389   1.421   7.723 -0.2039  0.1362 -0.3708
 2547THY    HP263658   2.345   1.451   7.627  0.0138  0.4251 -0.3793
 2547THY    HP363659   2.420   1.317   7.742  1.0483  0.8676  1.9434
 2547THY    HP463660   2.315   1.438   7.801 -0.2079 -0.7323 -0.1759
 2547THY    CP363661   2.564   1.520   7.875 -0.6077 -0.2624 -0.2278
 2547THY    HP563662   2.630   1.433   7.866 -2.3967 -1.6646 -0.1527
 2547THY    HP663663   2.608   1.620   7.889  0.9460 -0.9429  0.0079
 2547THY    HP763664   2.487   1.499   7.950 -0.3158 -4.6096 -0.8679
 2547THY    CA363665   2.676   1.398   7.594 -0.6562  0.0055  0.1811
 2547THY    HA363666   2.659   1.306   7.649 -0.6731 -0.5348 -0.7127
 2547THY    CA463667   2.767   1.404   7.488  0.0658  0.1916  0.9076
 2547THY    HA463668   2.826   1.315   7.468  0.6810  0.1621  2.6795
 2547THY    CA563669   2.789   1.515   7.408 -0.0453 -0.0854  0.1386
 2547THY    CM163670   2.908   1.497   7.316  0.0223  0.6954  0.1885
 2547THY    HM163671   2.899   1.557   7.224  0.3571  0.7493  0.1903
 2547THY    HM263672   2.999   1.535   7.363 -0.0473  1.8426 -0.5483
 2547THY    HM363673   2.922   1.393   7.286 -0.0609  0.8754 -0.5145
 2547THY    CA663674   2.726   1.634   7.436  0.3736 -0.7655  0.6506
 2547THY    HA663675   2.750   1.710   7.362 -1.0165  0.1618  1.1199
 2548THY      O63676   8.590   3.436   6.241  0.4685  0.2807 -0.1655
 2548THY     HO63677   8.665   3.436   6.180  0.6520  0.5006  0.0558
 2548THY    CA163678   8.608   3.333   6.326 -0.0744 -0.2070 -0.2605
 2548THY    CA263679   8.499   3.283   6.395 -0.3318  0.8692 -0.4412
 2548THY    CP163680   8.359   3.351   6.384  0.5942 -0.4234  0.0214
 2548THY    HP163681   8.346   3.411   6.293 -1.9556  0.6785  1.0185
 2548THY    CP263682   8.236   3.262   6.402 -0.1908 -0.3617  0.3763
 2548THY    HP263683   8.155   3.328   6.368  0.6783  0.7312  0.3616
 2548THY    HP363684   8.238   3.173   6.338 -0.9942  1.0468 -1.7262
 2548THY    HP463685   8.216   3.255   6.510  3.7885  1.4336  1.4443
 2548THY    CP363686   8.362   3.463   6.491  0.1580 -0.2440  0.2574
 2548THY    HP563687   8.441   3.536   6.472  0.3419 -0.3103  0.7633
 2548THY    HP663688   8.271   3.525   6.483 -0.0944 -0.6949 -0.4527
 2548THY    HP763689   8.369   3.420   6.591  2.2132 -2.2686 -0.6811
 2548THY    CA363690   8.518   3.167   6.485 -0.7353 -0.5204 -0.4423
 2548THY    HA363691   8.438   3.118   6.540 -0.4114 -0.5702 -0.0121
 2548THY    CA463692   8.652   3.113   6.489  0.1867 -0.0814 -0.3094
 2548THY    HA463693   8.661   3.032   6.561 -0.8086 -0.6275 -0.7755
 2548THY    CA563694   8.751   3.155   6.403  1.0041 -0.3920 -0.0362
 2548THY    CM163695   8.884   3.086   6.424  0.9266 -0.5079  0.6028
 2548THY    HM163696   8.963   3.127   6.360  0.8191  1.6621  1.7568
 2548THY    HM263697   8.917   3.113   6.526 -1.8229  0.3937  1.3456
 2548THY    HM363698   8.873   2.979   6.406  2.2778 -0.1630 -2.9524
 2548THY    CA663699   8.729   3.270   6.321 -0.8976  0.0025 -0.3084
 2548THY    HA663700   8.811   3.306   6.260  0.6989  0.5783  2.0377
 2549THY      O63701   4.264   5.217   4.163  0.0583 -0.6224 -0.2130
 2549THY     HO63702   4.259   5.310   4.135  0.0044 -0.6714 -0.3622
 2549THY    CA163703   4.250   5.141   4.053 -0.0710  0.2507  0.2426
 2549THY    CA263704   4.255   5.002   4.045  0.6697  0.0312 -0.2792
 2549THY    CP163705   4.272   4.921   4.166  0.1453 -0.1757 -0.0064
 2549THY    HP163706   4.276   4.991   4.251 -1.0677 -1.7769  1.4239
 2549THY    CP263707   4.149   4.837   4.201 -0.5018  0.3603 -0.4478
 2549THY    HP263708   4.180   4.773   4.284  0.5851  1.2383 -0.1495
 2549THY    HP363709   4.067   4.900   4.236 -0.7942 -0.5076  0.4791
 2549THY    HP463710   4.116   4.785   4.110 -0.2947  0.3246 -0.5036
 2549THY    CP363711   4.391   4.835   4.147  0.3107  0.1691  0.3467
 2549THY    HP563712   4.439   4.787   4.232  0.2852  0.2873  0.4282
 2549THY    HP663713   4.366   4.757   4.074  0.2849  1.3040 -0.8912
 2549THY    HP763714   4.473   4.890   4.099  1.0858 -1.3038 -0.0892
 2549THY    CA363715   4.246   4.945   3.911 -0.2468  0.3252  0.4211
 2549THY    HA363716   4.258   4.838   3.899  1.5982  0.1380  2.9569
 2549THY    CA463717   4.246   5.022   3.793 -0.0827  0.7521  0.4465
 2549THY    HA463718   4.245   4.972   3.697 -1.4598  0.0503  0.7930
 2549THY    CA563719   4.241   5.155   3.804 -0.0670  0.1034  1.2978
 2549THY    CM163720   4.250   5.239   3.673 -0.0283  0.4544 -0.2310
 2549THY    HM163721   4.346   5.291   3.678  0.0559  0.3600 -0.8229
 2549THY    HM263722   4.257   5.184   3.579  3.2924  0.2227  0.0311
 2549THY    HM363723   4.166   5.306   3.655 -0.2755  0.5144  1.0455
 2549THY    CA663724   4.243   5.213   3.934  0.0175 -0.0500  0.5333
 2549THY    HA663725   4.258   5.320   3.928 -0.1774 -0.0943 -1.2021
 2550THY      O63726   8.384   5.195   3.305  0.3605 -1.0311  1.0302
 2550THY     HO63727   8.411   5.116   3.254  2.0859  1.2697 -1.9069
 2550THY    CA163728   8.278   5.169   3.384 -0.3365  0.3921 -0.2210
 2550THY    CA263729   8.216   5.271   3.459 -0.3430  0.0867 -0.0366
 2550THY    CP163730   8.257   5.418   3.428  0.0850  0.3123 -0.2316
 2550THY    HP163731   8.364   5.428   3.410  0.4583 -1.2127  0.9309
 2550THY    CP263732   8.179   5.474   3.305 -0.3665  0.3392 -0.7116
 2550THY    HP263733   8.071   5.468   3.323 -0.6518 -1.2907 -2.6209
 2550THY    HP363734   8.191   5.580   3.281 -1.9209  0.6558 -0.1709
 2550THY    HP463735   8.211   5.418   3.216  2.8397 -1.4641  1.3894
 2550THY    CP363736   8.222   5.510   3.550 -0.7426 -0.6683 -0.1120
 2550THY    HP563737   8.292   5.595   3.545 -1.4986 -0.0771 -1.1876
 2550THY    HP663738   8.123   5.556   3.548 -0.6195 -0.4249 -1.6597
 2550THY    HP763739   8.237   5.464   3.648 -0.0566  2.5281  1.4090
 2550THY    CA363740   8.120   5.237   3.557 -0.4922 -0.1511 -0.0054
 2550THY    HA363741   8.068   5.316   3.610  0.5301  1.0573 -0.7474
 2550THY    CA463742   8.089   5.102   3.581 -0.3662  0.0630 -1.1122
 2550THY    HA463743   8.019   5.085   3.662 -0.5183  1.0742 -1.0189
 2550THY    CA563744   8.142   4.999   3.503  0.1473 -0.2292 -0.3761
 2550THY    CM163745   8.107   4.845   3.510  0.4793 -0.2706  0.5014
 2550THY    HM163746   8.008   4.821   3.549  0.7528  0.5827  1.8125
 2550THY    HM263747   8.122   4.789   3.418  0.8013  0.4809  0.0836
 2550THY    HM363748   8.177   4.792   3.576  0.7043 -0.9268 -0.2420
 2550THY    CA663749   8.236   5.035   3.396 -0.5976  0.7673  0.4527
 2550THY    HA663750   8.289   4.959   3.340  0.0018 -0.6655  2.8111
 2551THY      O63751   8.779   0.820   7.405 -0.4624 -0.2586 -0.5094
 2551THY     HO63752   8.869   0.826   7.369 -0.9813  1.0779 -1.6707
 2551THY    CA163753   8.726   0.702   7.367  0.2390 -0.3008  0.0938
 2551THY    CA263754   8.591   0.685   7.378  0.0826 -0.4235  0.7393
 2551THY    CP163755   8.495   0.795   7.423 -0.1308 -0.1561 -0.4331
 2551THY    HP163756   8.542   0.879   7.477  2.0756 -0.8550 -1.1557
 2551THY    CP263757   8.426   0.863   7.305 -0.7553  1.1382  0.2116
 2551THY    HP263758   8.505   0.898   7.237  0.0401  0.2553  0.6575
 2551THY    HP363759   8.357   0.802   7.247 -0.6039 -0.3493  1.5447
 2551THY    HP463760   8.367   0.949   7.338 -0.8983  1.2220 -0.2530
 2551THY    CP363761   8.379   0.744   7.512 -0.6348 -0.0577  0.4730
 2551THY    HP563762   8.350   0.825   7.580 -1.9493 -0.4290  0.3884
 2551THY    HP663763   8.292   0.714   7.452 -0.5317  0.8632 -0.1617
 2551THY    HP763764   8.425   0.665   7.573 -1.9943 -1.9075 -0.7921
 2551THY    CA363765   8.545   0.557   7.336  0.2672  0.1923  0.1544
 2551THY    HA363766   8.437   0.542   7.330  0.3207  0.2428 -1.1546
 2551THY    CA463767   8.630   0.459   7.280 -0.1769 -0.5780  0.2400
 2551THY    HA463768   8.602   0.361   7.243 -0.2120 -0.3329 -0.4048
 2551THY    CA563769   8.767   0.491   7.279  0.3022 -0.3725 -0.4147
 2551THY    CM163770   8.872   0.398   7.218  0.1273  0.1018  0.2300
 2551THY    HM163771   8.963   0.387   7.278  0.6464 -0.5783 -0.6583
 2551THY    HM263772   8.831   0.298   7.203  0.6108 -0.0761  0.0627
 2551THY    HM363773   8.889   0.442   7.119 -2.4655  2.7076  0.8108
 2551THY    CA663774   8.815   0.609   7.325  0.4019 -0.0383 -1.1384
 2551THY    HA663775   8.920   0.634   7.313  1.0262 -0.8817  1.7880
 2552THY      O63776   0.354   8.308   6.809 -0.2643  0.7915 -0.9917
 2552THY     HO63777   0.447   8.328   6.828 -0.2534  0.4720 -0.6875
 2552THY    CA163778   0.341   8.288   6.673  0.1452  0.3744 -0.4681
 2552THY    CA263779   0.246   8.201   6.617 -0.2042 -0.0476  0.4987
 2552THY    CP163780   0.155   8.114   6.708 -0.3160 -0.3444  0.0203
 2552THY    HP163781   0.187   8.115   6.813 -0.7554 -3.0357  0.2569
 2552THY    CP263782   0.008   8.146   6.694 -0.0387  0.2418  0.6223
 2552THY    HP263783  -0.039   8.135   6.595 -0.4248  0.8224  0.7349
 2552THY    HP363784  -0.054   8.087   6.762  0.8331  0.5230  1.6918
 2552THY    HP463785  -0.011   8.252   6.716 -1.4231  0.1702 -0.0916
 2552THY    CP363786   0.176   7.967   6.684 -0.1148 -0.2103  0.2344
 2552THY    HP563787   0.267   7.916   6.716 -0.1894 -0.5407 -0.0836
 2552THY    HP663788   0.100   7.913   6.743 -1.3891  1.1515 -0.1092
 2552THY    HP763789   0.166   7.943   6.578  0.2322 -1.9750  0.5637
 2552THY    CA363790   0.235   8.182   6.476 -0.0851 -0.2016 -0.0206
 2552THY    HA363791   0.153   8.125   6.434  1.2777 -0.9384 -1.7537
 2552THY    CA463792   0.310   8.268   6.394 -0.4529  0.9558 -0.1900
 2552THY    HA463793   0.304   8.267   6.285  0.6504 -0.4970 -0.2606
 2552THY    CA563794   0.401   8.364   6.454  0.2735  0.0436 -0.3480
 2552THY    CM163795   0.492   8.441   6.366  0.0623 -0.1460  0.4637
 2552THY    HM163796   0.593   8.441   6.409 -0.3168 -0.9223  1.3797
 2552THY    HM263797   0.501   8.382   6.273  0.5247 -2.4118  1.8565
 2552THY    HM363798   0.465   8.546   6.354  0.1696 -0.1280  0.3839
 2552THY    CA663799   0.418   8.369   6.589  0.7895  1.2519 -0.7698
 2552THY    HA663800   0.488   8.445   6.623  0.6463  0.1679  2.2631
 2553THY      O63801   9.348   9.648   8.354  0.2556 -0.1219  0.2453
 2553THY     HO63802   9.295   9.695   8.421 -0.7864  1.9624 -1.8872
 2553THY    CA163803   9.321   9.707   8.241 -0.1378  0.4309  0.2029
 2553THY    CA263804   9.416   9.756   8.153 -0.0047 -0.5462 -0.0558
 2553THY    CP163805   9.565   9.741   8.186 -0.1946 -0.3351  0.0484
 2553THY    HP163806   9.568   9.739   8.295  0.0538  0.6976  0.0732
 2553THY    CP263807   9.637   9.628   8.122  0.2260  0.1143 -0.9230
 2553THY    HP263808   9.592   9.531   8.143  0.4819 -0.0028 -0.9140
 2553THY    HP363809   9.622   9.642   8.014 -2.2347 -2.2068 -0.9875
 2553THY    HP463810   9.741   9.630   8.159  0.5628 -0.9561 -1.7482
 2553THY    CP363811   9.640   9.866   8.146 -0.1892  1.0374 -0.0514
 2553THY    HP563812   9.610   9.954   8.202 -0.3611  1.4198 -0.7269
 2553THY    HP663813   9.748   9.857   8.163 -0.1451  2.7945  0.8137
 2553THY    HP763814   9.629   9.890   8.039 -2.8352  1.3121  0.2374
 2553THY    CA363815   9.379   9.825   8.037  0.6890  0.2079  0.2102
 2553THY    HA363816   9.448   9.851   7.957  0.0529  1.9436  0.1871
 2553THY    CA463817   9.243   9.862   8.024  0.0466 -0.0538 -0.1422
 2553THY    HA463818   9.214   9.907   7.929  1.1984  1.5580  0.2247
 2553THY    CA563819   9.142   9.827   8.121 -0.9077 -0.4362  0.4219
 2553THY    CM163820   8.997   9.874   8.125  0.1679  0.2140  0.3614
 2553THY    HM163821   8.981   9.962   8.063  1.7189 -0.5340 -1.1884
 2553THY    HM263822   8.949   9.783   8.086  0.7339  0.1928 -0.3034
 2553THY    HM363823   8.961   9.882   8.228 -0.7179 -0.5642  0.1284
 2553THY    CA663824   9.192   9.742   8.232  0.8646 -0.5238  0.6801
 2553THY    HA663825   9.137   9.704   8.318  1.0275  0.5006  1.2646
 2554THY      O63826   5.254   9.830   5.502  0.0799 -0.1405  0.4068
 2554THY     HO63827   5.306   9.758   5.463  1.1863  0.8816 -0.0693
 2554THY    CA163828   5.133   9.784   5.542 -0.5901 -0.1273 -0.2530
 2554THY    CA263829   5.046   9.852   5.631 -0.0977  0.2405 -0.1833
 2554THY    CP163830   5.088   9.988   5.695  0.0861  0.5656 -0.5388
 2554THY    HP163831   5.179  10.027   5.648  0.3165  0.4761 -0.1745
 2554THY    CP263832   4.979  10.101   5.668  0.3832 -0.5611 -1.0131
 2554THY    HP263833   5.006  10.192   5.721  1.4581 -0.0526 -2.3792
 2554THY    HP363834   4.972  10.112   5.559  0.1065  2.4620 -0.7636
 2554THY    HP463835   4.881  10.072   5.707  0.7002  1.4714  1.5126
 2554THY    CP363836   5.111   9.971   5.848 -0.0615  0.0264 -0.2438
 2554THY    HP563837   5.015   9.947   5.895 -0.0267 -2.0249 -1.0862
 2554THY    HP663838   5.182   9.893   5.879 -0.0866  0.0097 -0.2305
 2554THY    HP763839   5.159  10.059   5.892 -0.9794 -0.2344  1.3172
 2554THY    CA363840   4.940   9.775   5.679  0.5419  0.2209  0.8610
 2554THY    HA363841   4.869   9.830   5.740 -0.8339 -0.6157  0.0867
 2554THY    CA463842   4.922   9.639   5.655  0.1440 -0.5084  0.4845
 2554THY    HA463843   4.832   9.592   5.695  1.6000 -1.5206  2.7782
 2554THY    CA563844   5.010   9.575   5.559  0.4411 -0.4677  0.0871
 2554THY    CM163845   4.981   9.435   5.519 -0.4710  0.4751  0.1786
 2554THY    HM163846   4.872   9.433   5.502 -0.3849 -2.2600 -0.4631
 2554THY    HM263847   5.020   9.407   5.421  0.4179 -0.4795  0.7878
 2554THY    HM363848   5.003   9.358   5.594 -0.9840  0.2582  0.1162
 2554THY    CA663849   5.112   9.648   5.504  0.7535 -0.1417  0.8755
 2554THY    HA663850   5.180   9.597   5.436  0.8398  0.1063  0.7740
 2555THY      O63851   8.542   4.691   8.868  0.1636 -0.0257 -1.0601
 2555THY     HO63852   8.534   4.768   8.809  0.1928  0.0726 -0.9375
 2555THY    CA163853   8.673   4.679   8.907 -0.0335 -0.1036 -0.1693
 2555THY    CA263854   8.726   4.563   8.958 -0.6575 -0.0804 -0.5585
 2555THY    CP163855   8.650   4.436   8.966  0.1895  0.3914  0.0647
 2555THY    HP163856   8.556   4.452   8.911  1.0786  0.9047 -1.3622
 2555THY    CP263857   8.724   4.325   8.898 -0.7383  0.2432 -0.1677
 2555THY    HP263858   8.654   4.243   8.883  1.2449 -0.9474 -4.6444
 2555THY    HP363859   8.753   4.350   8.795  2.3419 -0.5976  0.3960
 2555THY    HP463860   8.816   4.297   8.951  0.4535  1.2163 -1.5958
 2555THY    CP363861   8.627   4.399   9.112 -0.1540 -0.4990  0.0729
 2555THY    HP563862   8.711   4.350   9.162  1.5602 -1.6472 -3.6316
 2555THY    HP663863   8.606   4.491   9.168 -0.8266 -0.9775  0.6340
 2555THY    HP763864   8.545   4.326   9.120 -0.5868  0.0604  0.8390
 2555THY    CA363865   8.867   4.570   8.997 -0.1448  0.4844  0.7951
 2555THY    HA363866   8.908   4.489   9.057 -0.0767  0.5029  0.7720
 2555THY    CA463867   8.943   4.682   8.985 -0.0672 -0.3149 -0.5502
 2555THY    HA463868   9.048   4.676   9.012 -0.3161 -1.0186  0.2789
 2555THY    CA563869   8.887   4.794   8.921  0.1538  0.4768  0.2144
 2555THY    CM163870   8.984   4.909   8.894 -0.3594 -0.1936 -0.2988
 2555THY    HM163871   8.993   4.980   8.977  0.4985  0.2928 -0.7900
 2555THY    HM263872   9.087   4.872   8.888 -0.6118 -1.0592  0.5451
 2555THY    HM363873   8.954   4.963   8.803  1.4992  4.7057  1.6217
 2555THY    CA663874   8.755   4.789   8.877 -0.5389  0.8812 -0.9086
 2555THY    HA663875   8.714   4.878   8.830 -2.6754 -1.5225 -4.0443
 2556THY      O63876   0.873   9.705   2.113 -0.1803  0.3697 -0.0716
 2556THY     HO63877   0.792   9.650   2.111 -0.6679  1.0908 -0.7035
 2556THY    CA163878   0.973   9.632   2.171  0.7065  0.8035 -0.2106
 2556THY    CA263879   1.090   9.685   2.224  0.4768  0.0565 -0.4955
 2556THY    CP163880   1.103   9.835   2.245  0.8217  0.1785 -0.6652
 2556THY    HP163881   1.019   9.888   2.199 -0.5782 -1.8810 -0.6208
 2556THY    CP263882   1.082   9.877   2.394 -1.3627  0.2637  0.3630
 2556THY    HP263883   1.087   9.987   2.399  0.0459  0.3483 -1.7481
 2556THY    HP363884   0.986   9.846   2.436  0.0900 -0.6112  3.3107
 2556THY    HP463885   1.150   9.820   2.458 -0.1804  0.2936 -0.8385
 2556THY    CP363886   1.223   9.898   2.182 -0.1964  0.3813  0.1314
 2556THY    HP563887   1.315   9.852   2.220  1.1326  2.6633 -0.1151
 2556THY    HP663888   1.221   9.885   2.073  0.3721  0.3910  0.1177
 2556THY    HP763889   1.231  10.007   2.191  1.2406  0.3843 -0.8389
 2556THY    CA363890   1.191   9.605   2.267  0.0857  0.0358 -0.5333
 2556THY    HA363891   1.284   9.641   2.310  0.5985 -2.5190  0.7212
 2556THY    CA463892   1.170   9.462   2.264  0.0652  0.0906  0.1259
 2556THY    HA463893   1.247   9.395   2.300  0.6976  0.0547 -1.2391
 2556THY    CA563894   1.045   9.414   2.236 -0.1711 -0.2967  1.3432
 2556THY    CM163895   1.033   9.265   2.218 -0.4252 -0.2739  1.2145
 2556THY    HM163896   1.126   9.224   2.179 -1.1965 -1.4879  0.5828
 2556THY    HM263897   1.022   9.221   2.318  0.2164 -0.2917  1.2792
 2556THY    HM363898   0.955   9.235   2.147  0.6379  0.2447 -0.2118
 2556THY    CA663899   0.947   9.497   2.187 -0.4052 -0.1027 -0.4359
 2556THY    HA663900   0.856   9.449   2.152 -0.2985 -0.7206  0.1053
 2557THY      O63901   0.312   6.171   0.700 -0.1786 -1.0717 -0.4735
 2557THY     HO63902   0.398   6.216   0.699 -0.2586 -0.9110 -0.2351
 2557THY    CA163903   0.215   6.271   0.696 -0.4604 -0.1895  0.0128
 2557THY    CA263904   0.098   6.269   0.766 -0.7873  0.5694  0.6584
 2557THY    CP163905   0.078   6.154   0.871 -0.1740  0.1318 -0.1750
 2557THY    HP163906   0.106   6.058   0.825 -0.6441 -0.2062  0.2305
 2557THY    CP263907   0.179   6.176   0.982  1.0616  0.6757 -0.8895
 2557THY    HP263908   0.144   6.132   1.077 -0.2816  0.2735 -1.5470
 2557THY    HP363909   0.276   6.129   0.961  0.0999 -0.7046 -2.5385
 2557THY    HP463910   0.189   6.283   1.001 -0.1277  1.5460 -4.5483
 2557THY    CP363911  -0.062   6.137   0.922 -0.5737 -0.4922  0.2473
 2557THY    HP563912  -0.059   6.057   0.997  1.5450 -1.1419 -0.4834
 2557THY    HP663913  -0.102   6.226   0.972 -3.9415 -1.5870 -0.2381
 2557THY    HP763914  -0.138   6.104   0.850 -1.3559 -0.3417  0.9914
 2557THY    CA363915   0.003   6.367   0.752 -0.1104 -0.8207  0.5392
 2557THY    HA363916  -0.090   6.356   0.807  0.2114 -0.4418  1.1628
 2557THY    CA463917   0.019   6.462   0.651  0.6460 -0.8089  0.1400
 2557THY    HA463918  -0.064   6.529   0.634 -0.9387 -2.2738  1.7182
 2557THY    CA563919   0.144   6.472   0.590 -0.0221  0.0699  0.4195
 2557THY    CM163920   0.176   6.592   0.491 -0.3202 -0.2217 -0.7992
 2557THY    HM163921   0.233   6.670   0.543  0.8068 -2.2794  1.2911
 2557THY    HM263922   0.228   6.561   0.399  0.5288 -1.4039  0.0464
 2557THY    HM363923   0.080   6.635   0.462  0.5950  0.9455 -2.2236
 2557THY    CA663924   0.238   6.374   0.604 -0.3345  0.1129 -1.0367
 2557THY    HA663925   0.329   6.369   0.544  0.7300  0.6400  0.4657
 2558THY      O63926   0.756   5.794   8.397 -0.2081 -0.4479 -0.3608
 2558THY     HO63927   0.848   5.773   8.419 -0.4725 -0.3476  0.8793
 2558THY    CA163928   0.686   5.719   8.490  0.4545 -0.2678 -0.3407
 2558THY    CA263929   0.572   5.769   8.550  1.1019 -0.0253 -0.3644
 2558THY    CP163930   0.519   5.906   8.515  0.1464  0.1458  0.2472
 2558THY    HP163931   0.561   5.937   8.419 -2.4411 -1.0400 -1.3842
 2558THY    CP263932   0.370   5.899   8.484  0.3441 -0.6405 -0.1356
 2558THY    HP263933   0.350   5.836   8.396 -4.3669  0.8655 -0.4051
 2558THY    HP363934   0.311   5.866   8.570  0.6223  1.2840  0.8505
 2558THY    HP463935   0.339   6.004   8.474  1.9502 -0.1394 -0.0942
 2558THY    CP363936   0.557   6.012   8.617 -0.6849 -0.4483 -0.4721
 2558THY    HP563937   0.506   5.997   8.713  1.2395  0.1713  0.6879
 2558THY    HP663938   0.663   6.013   8.642 -0.7270  0.7526 -0.2460
 2558THY    HP763939   0.521   6.109   8.581 -0.8249  0.0598  0.9797
 2558THY    CA363940   0.519   5.686   8.654 -0.2228  0.2352  0.4110
 2558THY    HA363941   0.432   5.710   8.715 -1.1119  0.6329 -0.9662
 2558THY    CA463942   0.558   5.557   8.670 -0.7483  0.0526  0.1821
 2558THY    HA463943   0.504   5.493   8.739  2.8662 -3.7993 -0.1729
 2558THY    CA563944   0.676   5.504   8.603  0.8886  0.3401  1.0023
 2558THY    CM163945   0.728   5.368   8.624  0.6125  0.0510  0.8725
 2558THY    HM163946   0.697   5.292   8.552  0.6310  0.2392  0.6641
 2558THY    HM263947   0.838   5.373   8.628  0.7748  1.4383 -2.1686
 2558THY    HM363948   0.696   5.340   8.724  0.1448  2.0536  1.3173
 2558THY    CA663949   0.743   5.595   8.521 -0.3688  0.1384 -0.2900
 2558THY    HA663950   0.840   5.571   8.479 -0.5517  0.2270 -0.7647
 2559THY      O63951   6.601   5.929   3.121 -0.7303 -0.1047  0.1120
 2559THY     HO63952   6.586   5.834   3.113 -2.0071 -0.2548  2.8912
 2559THY    CA163953   6.705   5.971   3.037 -0.0036  0.7406 -0.1539
 2559THY    CA263954   6.766   6.096   3.056  0.2180  0.1948  0.0324
 2559THY    CP163955   6.723   6.187   3.163 -0.7594  0.5275  0.1412
 2559THY    HP163956   6.684   6.128   3.247  3.9499 -1.9298  0.9375
 2559THY    CP263957   6.837   6.266   3.232 -0.2052 -0.7156  0.0833
 2559THY    HP263958   6.828   6.283   3.340 -0.9890 -1.1786  0.0992
 2559THY    HP363959   6.933   6.213   3.222  0.1057  0.1606 -2.0618
 2559THY    HP463960   6.864   6.351   3.169  2.6367 -0.9092  0.8693
 2559THY    CP363961   6.607   6.277   3.129 -0.2996 -0.4411  0.2305
 2559THY    HP563962   6.641   6.333   3.041  0.5191 -0.5088  0.5012
 2559THY    HP663963   6.530   6.205   3.100  0.1912 -0.8268 -0.1309
 2559THY    HP763964   6.579   6.345   3.211 -0.1729 -0.5351  0.3508
 2559THY    CA363965   6.854   6.140   2.958  0.1886 -0.5988 -0.3249
 2559THY    HA363966   6.903   6.237   2.958  0.7357 -0.7996 -2.8125
 2559THY    CA463967   6.893   6.046   2.859  0.0875 -0.2284  0.2120
 2559THY    HA463968   6.964   6.079   2.785  0.1208 -1.3379 -0.2684
 2559THY    CA563969   6.839   5.911   2.858  0.6038  0.7003 -0.2221
 2559THY    CM163970   6.873   5.816   2.751 -0.4110  0.5020  0.2037
 2559THY    HM163971   6.795   5.810   2.675  0.7599  1.4805 -1.1264
 2559THY    HM263972   6.956   5.836   2.681 -2.2063  0.7234 -1.9876
 2559THY    HM363973   6.890   5.725   2.809  2.3997 -0.3388 -1.7210
 2559THY    CA663974   6.744   5.877   2.946  0.5578  0.1354 -0.4830
 2559THY    HA663975   6.702   5.777   2.955 -0.0758  0.3984 -0.4864
 2560THY      O63976   7.428   5.195   8.417  0.1493 -0.2063  0.0048
 2560THY     HO63977   7.415   5.266   8.352 -2.8470 -0.1746  0.5153
 2560THY    CA163978   7.346   5.234   8.525  0.0076 -0.2558  0.1219
 2560THY    CA263979   7.357   5.176   8.651  0.6535  0.0430  0.7932
 2560THY    CP163980   7.450   5.053   8.677 -0.0288  0.4600  0.1015
 2560THY    HP163981   7.464   4.987   8.590  2.7433 -2.2325  2.3901
 2560THY    CP263982   7.590   5.103   8.729 -0.0520 -0.5216 -0.6629
 2560THY    HP263983   7.623   5.180   8.659  1.9581 -0.7488 -0.0324
 2560THY    HP363984   7.583   5.152   8.827  7.5321  1.7834 -0.6214
 2560THY    HP463985   7.668   5.025   8.736 -1.7389 -2.3682 -1.3726
 2560THY    CP363986   7.388   4.957   8.780  0.7478 -0.3681 -0.8905
 2560THY    HP563987   7.396   4.991   8.884 -0.7662  0.4458 -1.0113
 2560THY    HP663988   7.283   4.935   8.755  0.7652 -0.3886 -0.9428
 2560THY    HP763989   7.443   4.862   8.779  1.2844 -0.0816  0.1278
 2560THY    CA363990   7.289   5.238   8.758 -0.4846  0.0853 -0.5483
 2560THY    HA363991   7.288   5.192   8.857 -0.9330  1.2496  0.0026
 2560THY    CA463992   7.219   5.360   8.735  0.1192  0.2306 -0.0368
 2560THY    HA463993   7.161   5.400   8.818  0.5043 -0.0454  0.3641
 2560THY    CA563994   7.210   5.407   8.604 -0.0085 -0.4300  0.4584
 2560THY    CM163995   7.135   5.529   8.568 -0.2746  0.4807  0.3341
 2560THY    HM163996   7.077   5.519   8.475  0.0410 -0.3916  0.2152
 2560THY    HM263997   7.064   5.549   8.649  0.3994 -1.5556  1.5031
 2560THY    HM363998   7.192   5.621   8.556  0.0592  0.3025  0.5303
 2560THY    CA663999   7.280   5.350   8.498 -0.6399  0.2961  0.1385
 2560THY    HA664000   7.274   5.399   8.402  0.6889 -2.5272 -1.5106
 2561THY      O64001   1.180   8.353   6.077 -0.5549  0.0205 -0.9613
 2561THY     HO64002   1.095   8.382   6.115 -0.4742 -0.3268 -0.5130
 2561THY    CA164003   1.238   8.285   6.174 -0.5864  1.0349  0.7636
 2561THY    CA264004   1.372   8.248   6.171  0.0195  0.2211  0.7084
 2561THY    CP164005   1.462   8.299   6.062 -0.5491 -0.0453 -0.0742
 2561THY    HP164006   1.435   8.405   6.069 -0.2998 -0.0215  0.4977
 2561THY    CP264007   1.612   8.292   6.098 -0.3212  0.1522  0.5377
 2561THY    HP264008   1.649   8.189   6.102  0.0252  0.2205 -0.4744
 2561THY    HP364009   1.668   8.351   6.023  0.3542 -0.1581  0.7864
 2561THY    HP464010   1.634   8.343   6.193 -0.7535 -2.0977  1.8956
 2561THY    CP364011   1.443   8.238   5.916 -0.1707  0.3500 -0.0578
 2561THY    HP564012   1.337   8.243   5.888 -1.2246  2.1741  3.6318
 2561THY    HP664013   1.503   8.285   5.837 -1.6588  0.1298 -1.3667
 2561THY    HP764014   1.472   8.133   5.915  0.1189  0.4276  0.2760
 2561THY    CA364015   1.412   8.171   6.281 -0.1370  0.2911 -0.4745
 2561THY    HA364016   1.517   8.149   6.294  0.4825  2.2967 -1.5944
 2561THY    CA464017   1.324   8.129   6.382  0.0425  0.0355 -0.1068
 2561THY    HA464018   1.354   8.062   6.463  0.7120 -1.4016 -1.4801
 2561THY    CA564019   1.188   8.161   6.366 -0.4097  0.8398 -0.4483
 2561THY    CM164020   1.097   8.113   6.471 -0.5523  0.2509 -0.1061
 2561THY    HM164021   1.010   8.071   6.420 -0.0415 -0.1616 -0.6591
 2561THY    HM264022   1.151   8.043   6.536 -1.0755  0.1477  0.2192
 2561THY    HM364023   1.064   8.197   6.533  4.8615  1.3796  1.8531
 2561THY    CA664024   1.145   8.243   6.265  0.5011 -0.0934 -0.5790
 2561THY    HA664025   1.042   8.275   6.273  1.0550  1.4898  1.1272
 2562THY      O64026   1.020   9.052   4.489 -0.4665  0.3034  0.9233
 2562THY     HO64027   0.933   9.015   4.468 -0.1702 -0.8191  1.5861
 2562THY    CA164028   1.109   9.005   4.387  0.0022 -0.3507 -1.0955
 2562THY    CA264029   1.242   8.985   4.420 -0.0908  0.1577 -0.6305
 2562THY    CP164030   1.294   9.030   4.561 -0.3120 -0.3261  0.5562
 2562THY    HP164031   1.210   9.049   4.628  1.4325 -1.0106  3.0793
 2562THY    CP264032   1.389   8.929   4.630  0.6056 -0.2561 -0.0195
 2562THY    HP264033   1.397   8.950   4.738  3.4615 -0.8111 -0.0587
 2562THY    HP364034   1.340   8.836   4.599 -2.1256  0.8147  0.7979
 2562THY    HP464035   1.490   8.940   4.590  0.8563 -0.3656  0.5689
 2562THY    CP364036   1.370   9.159   4.541 -0.2742 -0.3824 -0.7024
 2562THY    HP564037   1.306   9.236   4.496 -2.4412 -0.6373  1.6626
 2562THY    HP664038   1.402   9.193   4.641  1.2439 -3.0346 -0.1980
 2562THY    HP764039   1.466   9.152   4.490  0.8063  1.7917  0.8538
 2562THY    CA364040   1.328   8.935   4.325  0.0147 -0.5310 -0.3024
 2562THY    HA364041   1.436   8.934   4.341  0.0628 -1.1641 -0.6379
 2562THY    CA464042   1.280   8.904   4.196  0.4521  1.2207 -0.7214
 2562THY    HA464043   1.351   8.877   4.119  1.5172 -0.3143  0.7352
 2562THY    CA564044   1.145   8.920   4.169  0.4930  0.5352 -0.2226
 2562THY    CM164045   1.094   8.900   4.026  0.4962 -0.6036  0.4284
 2562THY    HM164046   1.124   8.977   3.954 -2.2500 -1.3511 -1.6432
 2562THY    HM264047   1.131   8.808   3.979  2.3832  0.0587  0.5398
 2562THY    HM364048   0.985   8.901   4.027  0.4262  1.1365 -1.9222
 2562THY    CA664049   1.061   8.972   4.267 -0.3376 -0.5504  0.2060
 2562THY    HA664050   0.954   8.978   4.253 -0.3361 -0.4466  0.2398
 2563THY      O64051   3.780   3.436   0.864  0.7682  0.0709 -0.5852
 2563THY     HO64052   3.718   3.486   0.920  1.2056  0.1069 -0.1309
 2563THY    CA164053   3.857   3.523   0.802  0.0939  0.2616  0.2195
 2563THY    CA264054   3.963   3.480   0.719 -0.4634 -0.5455 -0.4011
 2563THY    CP164055   4.001   3.333   0.708 -0.1709  0.1221  0.0217
 2563THY    HP164056   3.956   3.275   0.789 -0.8646 -0.2352 -0.6030
 2563THY    CP264057   3.948   3.269   0.587  0.6191  0.5582 -0.0256
 2563THY    HP264058   3.839   3.276   0.585  0.6519  1.8664  1.2373
 2563THY    HP364059   3.975   3.309   0.489 -1.1096  4.9857  1.0717
 2563THY    HP464060   3.978   3.163   0.586 -1.2146  0.0096  0.0052
 2563THY    CP364061   4.151   3.319   0.727 -0.2689 -0.0793  0.3213
 2563THY    HP564062   4.196   3.353   0.633 -1.9773  1.5586  0.0483
 2563THY    HP664063   4.188   3.368   0.817  0.0854 -1.7521  1.1348
 2563THY    HP764064   4.177   3.213   0.745 -2.7087 -1.1412 -1.8467
 2563THY    CA364065   4.027   3.580   0.634 -0.0339 -0.0094  0.4312
 2563THY    HA364066   4.108   3.552   0.567  1.3210 -1.0597  2.4212
 2563THY    CA464067   3.985   3.714   0.646 -0.3626  0.0522 -0.2114
 2563THY    HA464068   4.034   3.788   0.583 -0.2681  1.4332  1.4267
 2563THY    CA564069   3.891   3.757   0.741 -0.6107  0.0775  0.1612
 2563THY    CM164070   3.848   3.897   0.744  0.3900  1.1181  0.1529
 2563THY    HM164071   3.817   3.921   0.846  0.1762  2.5382 -0.2222
 2563THY    HM264072   3.928   3.969   0.723  0.1544  1.4496  0.3882
 2563THY    HM364073   3.760   3.914   0.681 -0.7932 -0.7333  1.2288
 2563THY    CA664074   3.822   3.656   0.812  0.2256 -0.2819  0.5346
 2563THY    HA664075   3.751   3.688   0.888  0.2043 -0.1281  0.4493
 2564THY      O64076   0.137   1.898   1.264 -0.4581  0.7181 -0.2227
 2564THY     HO64077   0.162   1.828   1.327 -0.4106  2.9457  2.4019
 2564THY    CA164078   0.005   1.925   1.286  0.4979 -0.3820 -0.4078
 2564THY    CA264079  -0.102   1.900   1.195  0.6043 -0.2658  0.0346
 2564THY    CP164080  -0.084   1.833   1.059  0.5253 -0.4459  0.5861
 2564THY    HP164081   0.015   1.857   1.018 -0.1444 -0.9357 -1.4158
 2564THY    CP264082  -0.094   1.682   1.080 -0.0806 -0.0130 -0.5441
 2564THY    HP264083  -0.034   1.648   1.165 -0.5815 -2.0246 -0.9391
 2564THY    HP364084  -0.194   1.644   1.104  1.4520 -2.2880  3.1393
 2564THY    HP464085  -0.072   1.626   0.989 -2.6123 -0.0269 -1.2260
 2564THY    CP364086  -0.171   1.887   0.943 -0.7917  0.2231  0.1314
 2564THY    HP564087  -0.149   1.994   0.931 -1.1301  0.1494 -1.3392
 2564THY    HP664088  -0.156   1.827   0.852 -0.6082  0.2328  0.1556
 2564THY    HP764089  -0.279   1.876   0.961 -0.7004 -1.1194 -0.0018
 2564THY    CA364090  -0.237   1.922   1.236 -0.6254 -0.1666  0.2618
 2564THY    HA364091  -0.318   1.902   1.167  0.7956  0.5120 -1.6900
 2564THY    CA464092  -0.257   1.973   1.372 -0.2544  0.7126  0.3385
 2564THY    HA464093  -0.360   1.982   1.403 -0.2400  0.6331  0.4098
 2564THY    CA564094  -0.147   1.994   1.454  0.3132 -0.3121 -0.2669
 2564THY    CM164095  -0.171   2.043   1.593  1.0203 -0.0175  0.0008
 2564THY    HM164096  -0.265   2.000   1.632  1.8743 -0.8331  1.2517
 2564THY    HM264097  -0.096   1.999   1.659 -0.3546 -1.8659  0.4344
 2564THY    HM364098  -0.171   2.152   1.598  0.5761  0.0870 -1.7332
 2564THY    CA664099  -0.021   1.974   1.409  0.0883 -0.4127 -0.5050
 2564THY    HA664100   0.058   1.986   1.482  1.2356 -0.6527 -1.6706
 2565THY      O64101   5.590   6.512   4.352  0.4442 -0.5700 -0.2291
 2565THY     HO64102   5.516   6.472   4.304  1.1898 -1.9471 -0.2948
 2565THY    CA164103   5.671   6.550   4.248 -0.1018 -0.3044 -0.0767
 2565THY    CA264104   5.806   6.577   4.285  0.2667  0.6235 -0.0953
 2565THY    CP164105   5.848   6.586   4.430 -0.0146 -0.1901  0.3141
 2565THY    HP164106   5.786   6.528   4.499  1.1307  0.8436  2.3149
 2565THY    CP264107   5.993   6.540   4.449  0.0737  0.0133  0.6972
 2565THY    HP264108   6.010   6.522   4.556  0.5961  0.6045  0.7169
 2565THY    HP364109   6.012   6.441   4.404 -0.4800 -0.1391  0.7984
 2565THY    HP464110   6.069   6.615   4.425  0.5253  0.0237  2.0908
 2565THY    CP364111   5.844   6.733   4.475  0.0706  0.5373  0.4044
 2565THY    HP564112   5.878   6.741   4.580  1.2545 -0.7207  0.1412
 2565THY    HP664113   5.913   6.795   4.416 -1.0481 -0.7739 -2.4445
 2565THY    HP764114   5.746   6.781   4.472 -0.3738 -0.2572  1.5401
 2565THY    CA364115   5.894   6.626   4.179  0.3161 -0.0947 -0.2104
 2565THY    HA364116   5.993   6.666   4.197  0.9354 -2.2572  1.5630
 2565THY    CA464117   5.848   6.610   4.047  0.2774  0.9268  1.1495
 2565THY    HA464118   5.909   6.638   3.962 -2.4658 -1.3716 -1.8136
 2565THY    CA564119   5.719   6.562   4.019 -0.4388  0.3922 -0.5038
 2565THY    CM164120   5.677   6.545   3.875 -0.0262  0.5251  0.3803
 2565THY    HM164121   5.591   6.609   3.851  0.8990  1.9417  0.7056
 2565THY    HM264122   5.760   6.578   3.811  0.5965  1.3936  1.5832
 2565THY    HM364123   5.648   6.441   3.859  0.3510  0.2128  1.5892
 2565THY    CA664124   5.629   6.537   4.116  0.6420  0.6980 -0.4778
 2565THY    HA664125   5.527   6.503   4.097  0.0918  0.6911  2.1903
 2566THY      O64126   3.732   2.806   8.277 -0.7154 -0.2705 -0.7021
 2566THY     HO64127   3.733   2.831   8.371 -1.7630 -2.3351 -0.0832
 2566THY    CA164128   3.816   2.893   8.214 -0.1155  0.1022  0.6908
 2566THY    CA264129   3.829   2.897   8.072  0.1328  0.1771  0.5329
 2566THY    CP164130   3.744   2.796   7.987  0.0358  0.0294  0.0749
 2566THY    HP164131   3.668   2.758   8.055  0.6307 -2.1405 -0.4025
 2566THY    CP264132   3.677   2.860   7.865 -0.0774  0.2728 -0.4610
 2566THY    HP264133   3.596   2.924   7.902  1.3858  1.9733 -0.1090
 2566THY    HP364134   3.756   2.906   7.805  1.7248  1.1751  2.3912
 2566THY    HP464135   3.638   2.773   7.810  0.1462  0.9824 -1.7753
 2566THY    CP364136   3.828   2.685   7.947  0.2516  0.4739  0.2802
 2566THY    HP564137   3.896   2.726   7.871  3.1061 -0.7054  2.0694
 2566THY    HP664138   3.887   2.637   8.026  0.2374 -0.7645 -0.4332
 2566THY    HP764139   3.776   2.600   7.900 -2.7882  0.4524  3.2636
 2566THY    CA364140   3.921   2.985   8.016  0.4933  0.2545  0.5235
 2566THY    HA364141   3.941   2.994   7.909 -1.3555  0.9512  0.2057
 2566THY    CA464142   4.006   3.057   8.103 -0.5764 -0.2843  0.4440
 2566THY    HA464143   4.095   3.106   8.064 -0.4359  0.7756  2.0162
 2566THY    CA564144   4.003   3.034   8.239  0.1415  0.5832 -0.1313
 2566THY    CM164145   4.107   3.106   8.323  0.1872  0.4024 -0.1096
 2566THY    HM164146   4.081   3.107   8.429  1.1735 -1.5696  0.1812
 2566THY    HM264147   4.209   3.068   8.323 -0.2466 -0.7984  0.7556
 2566THY    HM364148   4.111   3.212   8.293  3.2141  1.1300  2.3775
 2566THY    CA664149   3.909   2.950   8.296  0.5906  0.7487  0.2503
 2566THY    HA664150   3.910   2.928   8.402  0.0724 -0.8579 -0.0418
 2567THY      O64151   2.502   8.988   6.948 -0.3911 -0.0365 -0.2253
 2567THY     HO64152   2.515   9.082   6.965  0.5929 -0.2583  0.2973
 2567THY    CA164153   2.380   8.969   7.011 -0.3193 -0.0078 -0.2942
 2567THY    CA264154   2.320   8.840   7.006  0.1048  0.1990  0.2192
 2567THY    CP164155   2.401   8.715   6.953 -0.4519 -0.1827  0.2080
 2567THY    HP164156   2.491   8.750   6.900 -0.2736 -1.6145 -0.4852
 2567THY    CP264157   2.462   8.633   7.066 -0.0914  0.6432 -0.3191
 2567THY    HP264158   2.526   8.548   7.038  1.9152  1.4320  1.6163
 2567THY    HP364159   2.532   8.697   7.120  0.1286  1.4900 -1.5642
 2567THY    HP464160   2.373   8.605   7.123 -0.2545  0.4251 -0.6727
 2567THY    CP364161   2.314   8.624   6.851  0.3387 -0.7053  0.8585
 2567THY    HP564162   2.215   8.588   6.882  0.4174 -0.7174  1.0995
 2567THY    HP664163   2.310   8.691   6.764  2.7923 -1.2367  0.2666
 2567THY    HP764164   2.371   8.547   6.800 -0.3330 -1.1313  0.7380
 2567THY    CA364165   2.195   8.823   7.059 -0.1775  0.7551 -0.7718
 2567THY    HA364166   2.137   8.732   7.048 -1.4958  1.3678  0.6743
 2567THY    CA464167   2.139   8.921   7.137 -0.7580  1.3687  0.2528
 2567THY    HA464168   2.044   8.900   7.185  0.7690  0.0080  2.9645
 2567THY    CA564169   2.192   9.048   7.146 -0.4509  0.1683  0.5464
 2567THY    CM164170   2.120   9.162   7.205 -0.0091  0.2452 -0.0491
 2567THY    HM164171   2.184   9.215   7.276 -1.0598  1.4551  0.0369
 2567THY    HM264172   2.102   9.240   7.130 -1.2907  1.0610  1.0636
 2567THY    HM364173   2.020   9.135   7.241 -0.4331 -1.6008 -2.3973
 2567THY    CA664174   2.315   9.076   7.077  0.1435 -0.3153  0.2125
 2567THY    HA664175   2.359   9.174   7.089  0.1151 -0.4471  1.4844
 2568THY      O64176   5.677   1.212   9.854 -0.5960 -0.2029  0.3880
 2568THY     HO64177   5.740   1.138   9.851 -1.0981 -0.6306  0.1817
 2568THY    CA164178   5.635   1.244   9.726 -0.1781 -0.0908 -0.1570
 2568THY    CA264179   5.499   1.267   9.710 -0.3318  0.5682  0.0288
 2568THY    CP164180   5.403   1.243   9.823 -0.1535 -0.2071 -0.1135
 2568THY    HP164181   5.454   1.265   9.918 -1.2970  0.3503  0.3986
 2568THY    CP264182   5.285   1.340   9.829  0.1131  0.0969 -0.4119
 2568THY    HP264183   5.218   1.314   9.747 -0.2941  3.3107 -1.2140
 2568THY    HP364184   5.218   1.337   9.916  0.0026 -2.1177 -0.5068
 2568THY    HP464185   5.319   1.440   9.803  0.5902 -0.6407 -2.9273
 2568THY    CP364186   5.342   1.105   9.827 -0.3289  0.9855 -0.5539
 2568THY    HP564187   5.251   1.098   9.888 -0.8300  0.3375 -1.3510
 2568THY    HP664188   5.304   1.069   9.731 -1.7863 -1.3528  0.7989
 2568THY    HP764189   5.417   1.033   9.859 -0.1435  0.7437 -1.5122
 2568THY    CA364190   5.457   1.281   9.574  0.1347  0.8275 -0.9384
 2568THY    HA364191   5.354   1.290   9.540  0.1883 -1.2152 -1.7813
 2568THY    CA464192   5.557   1.273   9.472  0.5303  0.0241 -0.1873
 2568THY    HA464193   5.533   1.307   9.371  0.7614  5.7962  1.3809
 2568THY    CA564194   5.686   1.249   9.492 -0.7698  0.8497  0.6098
 2568THY    CM164195   5.794   1.218   9.386 -0.1994  0.3399  0.6873
 2568THY    HM164196   5.839   1.118   9.393  1.0176  0.7852 -0.4273
 2568THY    HM264197   5.742   1.211   9.290 -1.7757 -4.5850  1.5837
 2568THY    HM364198   5.873   1.293   9.384  0.4917 -0.3775 -1.3617
 2568THY    CA664199   5.730   1.234   9.620 -0.1318 -0.3008  0.1596
 2568THY    HA664200   5.832   1.199   9.637 -0.2810 -1.8119 -1.7633
 2569THY      O64201   6.256   9.848   5.059 -0.3969  0.0842  0.2516
 2569THY     HO64202   6.295   9.913   5.119 -0.9212  0.6803 -0.0461
 2569THY    CA164203   6.318   9.729   5.084  0.0123  0.0634  0.8085
 2569THY    CA264204   6.257   9.605   5.053  0.9378 -0.4754  0.2728
 2569THY    CP164205   6.126   9.603   4.990  0.5325 -0.5139  0.2723
 2569THY    HP164206   6.093   9.707   4.983  0.6470 -0.4820  0.2113
 2569THY    CP264207   6.131   9.553   4.850  0.3526 -0.4667  0.6329
 2569THY    HP264208   6.164   9.448   4.854  1.2198 -0.4277 -2.6219
 2569THY    HP364209   6.034   9.558   4.800  1.9083  1.1769 -2.5401
 2569THY    HP464210   6.209   9.602   4.790  0.4148 -4.2460 -2.8458
 2569THY    CP364211   6.027   9.520   5.073  0.3266 -0.1220  0.6780
 2569THY    HP564212   6.004   9.575   5.166 -2.4027  0.0942 -0.0345
 2569THY    HP664213   5.929   9.512   5.025  0.6340 -1.8503  0.2954
 2569THY    HP764214   6.073   9.422   5.088  0.8191  0.1453  0.9288
 2569THY    CA364215   6.335   9.485   5.059  0.0989  0.1933  0.4183
 2569THY    HA364216   6.304   9.387   5.023  1.0322 -0.2947  0.8857
 2569THY    CA464217   6.459   9.494   5.124 -0.0490  0.3465  0.6926
 2569THY    HA464218   6.522   9.411   5.154 -1.4423 -1.3029 -0.7245
 2569THY    CA564219   6.519   9.622   5.142  0.0435 -0.3654  0.2203
 2569THY    CM164220   6.663   9.633   5.186 -0.1229 -0.2426  0.1924
 2569THY    HM164221   6.670   9.645   5.295 -2.3910  1.9319  0.1696
 2569THY    HM264222   6.722   9.546   5.152  1.0844  0.4688  0.3971
 2569THY    HM364223   6.716   9.717   5.138  0.5477  0.2511  1.7384
 2569THY    CA664224   6.446   9.736   5.125 -0.3346  0.0596  0.2943
 2569THY    HA664225   6.503   9.829   5.134  0.3764  0.0417 -2.7847
 2570THY      O64226   8.647   5.343   9.824  0.0479  0.2925  0.4031
 2570THY     HO64227   8.552   5.350   9.842 -0.5951 -2.0515 -1.5495
 2570THY    CA164228   8.698   5.371   9.945 -0.0242 -0.3005  1.2439
 2570THY    CA264229   8.832   5.356   9.977 -0.5940 -0.6269  0.6706
 2570THY    CP164230   8.935   5.321   9.870 -0.6091  0.4017  0.7920
 2570THY    HP164231   8.881   5.257   9.799  1.3316  0.8695 -1.2329
 2570THY    CP264232   8.979   5.444   9.794 -0.2473  0.0447  0.1870
 2570THY    HP264233   8.901   5.487   9.730  0.5257  0.9141 -0.2057
 2570THY    HP364234   9.017   5.513   9.870  2.1138 -4.3852  3.4484
 2570THY    HP464235   9.060   5.431   9.721  0.5502  1.6422  0.7269
 2570THY    CP364236   9.063   5.252   9.922 -0.4489 -0.3479 -0.4681
 2570THY    HP564237   9.121   5.205   9.842  1.4104  1.3035 -0.1627
 2570THY    HP664238   9.124   5.324   9.978  0.6506 -0.6063 -1.2998
 2570THY    HP764239   9.037   5.167   9.985 -0.5769 -0.5671 -0.8098
 2570THY    CA364240   8.867   5.368  10.111  0.1822 -0.3176  0.3446
 2570THY    HA364241   8.971   5.350  10.136 -0.0948 -0.5629  1.3816
 2570THY    CA464242   8.765   5.402  10.206 -0.4058 -0.7571  0.0502
 2570THY    HA464243   8.795   5.428  10.307  0.3404 -0.0773 -0.3295
 2570THY    CA564244   8.635   5.424  10.172  0.3866 -0.4701  0.9115
 2570THY    CM164245   8.534   5.479  10.270 -0.0549  1.0836 -0.2021
 2570THY    HM164246   8.491   5.388  10.314  0.3122  1.1717  0.3486
 2570THY    HM264247   8.573   5.538  10.353  2.3534 -0.8108  0.1553
 2570THY    HM364248   8.459   5.536  10.214 -0.4413  0.9127  0.1371
 2570THY    CA664249   8.601   5.406  10.039  0.2223 -0.5445 -0.2778
 2570THY    HA664250   8.497   5.404  10.010  0.3839  0.6676 -0.9828
 2571THY      O64251   7.806   0.286   5.114 -0.0648  0.5883 -0.7260
 2571THY     HO64252   7.864   0.227   5.062 -0.4357  0.5504 -1.1029
 2571THY    CA164253   7.894   0.371   5.169  0.1098 -0.0087  0.4195
 2571THY    CA264254   7.858   0.486   5.251 -0.0600  0.3612 -0.1833
 2571THY    CP164255   7.712   0.501   5.293  0.3472 -0.7209 -0.0806
 2571THY    HP164256   7.642   0.479   5.211  0.7336  2.3517 -1.3804
 2571THY    CP264257   7.669   0.395   5.396 -0.2545 -0.1500  0.3247
 2571THY    HP264258   7.744   0.380   5.474 -0.4494 -2.3591  0.1568
 2571THY    HP364259   7.567   0.407   5.435 -1.3320  1.0792 -2.5351
 2571THY    HP464260   7.666   0.301   5.339  1.8698  0.3158 -0.6570
 2571THY    CP364261   7.680   0.647   5.333  0.2380 -0.3563 -0.1781
 2571THY    HP564262   7.571   0.652   5.335  0.1428 -2.2449  1.1365
 2571THY    HP664263   7.713   0.672   5.434 -0.9147 -0.9149  0.3438
 2571THY    HP764264   7.718   0.715   5.255 -1.5296 -0.1129 -0.8702
 2571THY    CA364265   7.955   0.567   5.315 -0.1429 -0.1687  0.6009
 2571THY    HA364266   7.931   0.640   5.392  2.5300  0.8724  0.5614
 2571THY    CA464267   8.087   0.542   5.287  0.1640  0.7394  0.2705
 2571THY    HA464268   8.171   0.607   5.308  1.0999 -0.5733  0.7329
 2571THY    CA564269   8.124   0.432   5.201  0.0779  0.8391  0.0594
 2571THY    CM164270   8.261   0.419   5.145  0.4112 -0.0090  0.0872
 2571THY    HM164271   8.266   0.472   5.048  0.2338 -1.3292 -0.6691
 2571THY    HM264272   8.342   0.442   5.216  0.1436  3.9732 -0.6197
 2571THY    HM364273   8.271   0.317   5.107 -0.8663  0.0507 -0.4596
 2571THY    CA664274   8.029   0.344   5.149  0.2944 -0.3335  0.4592
 2571THY    HA664275   8.052   0.261   5.083  1.3502  0.2413  0.0812
 2572THY      O64276   6.322   7.910   8.996 -0.2638  0.0057  0.0544
 2572THY     HO64277   6.288   7.926   8.907 -1.1065 -2.5098 -0.1642
 2572THY    CA164278   6.223   7.845   9.065 -0.1039 -0.1332 -0.4038
 2572THY    CA264279   6.250   7.756   9.173  0.6877  0.2654  0.1642
 2572THY    CP164280   6.396   7.732   9.218  0.1546  0.2288  0.1139
 2572THY    HP164281   6.456   7.823   9.202 -1.4420  1.5387  1.2891
 2572THY    CP264282   6.420   7.684   9.363 -0.3538 -0.5569  0.1473
 2572THY    HP264283   6.525   7.695   9.390 -0.1121 -1.2880 -0.4660
 2572THY    HP364284   6.366   7.749   9.432 -0.3981 -0.9044  0.4453
 2572THY    HP464285   6.392   7.582   9.391  0.4167 -0.4705  1.3062
 2572THY    CP364286   6.452   7.633   9.112 -0.4018 -0.7533  0.3746
 2572THY    HP564287   6.413   7.639   9.010 -1.6074 -1.1457  0.8019
 2572THY    HP664288   6.562   7.640   9.117 -0.3726 -1.5611  1.3020
 2572THY    HP764289   6.423   7.532   9.145 -1.8272 -0.1969  0.8948
 2572THY    CA364290   6.147   7.678   9.226  0.5069  0.1293  0.0679
 2572THY    HA364291   6.155   7.604   9.304  0.2276 -0.0553 -0.0782
 2572THY    CA464292   6.021   7.703   9.182 -0.3639 -0.2696 -0.1930
 2572THY    HA464293   5.950   7.644   9.239 -0.1335 -0.8447 -0.4956
 2572THY    CA564294   5.986   7.798   9.078  0.1594 -1.0292  0.4390
 2572THY    CM164295   5.844   7.829   9.043  0.1850 -0.4886 -0.5072
 2572THY    HM164296   5.774   7.761   9.093  0.2406 -2.7702 -3.2692
 2572THY    HM264297   5.820   7.933   9.069 -1.9440 -1.6013  2.6805
 2572THY    HM364298   5.835   7.830   8.934  0.7069 -0.6900 -0.5538
 2572THY    CA664299   6.089   7.865   9.020 -0.6069 -0.6075  0.3122
 2572THY    HA664300   6.072   7.939   8.942  0.6860 -1.8491 -1.2158
 2573THY      O64301   3.918   2.811   9.952  0.1776  0.6133 -0.2993
 2573THY     HO64302   3.979   2.738   9.977  0.6226  0.8551 -0.6647
 2573THY    CA164303   3.869   2.858  10.070 -0.0775 -0.0191 -0.3780
 2573THY    CA264304   3.729   2.884  10.084  0.8059  0.3523 -0.0140
 2573THY    CP164305   3.637   2.866   9.968 -0.2802  0.4488 -0.5491
 2573THY    HP164306   3.689   2.847   9.873  0.9780  2.0526 -0.2273
 2573THY    CP264307   3.532   2.765   9.995 -0.1119 -0.0635 -0.0987
 2573THY    HP264308   3.474   2.737   9.906 -1.6454 -0.3682  0.9508
 2573THY    HP364309   3.571   2.670  10.035 -1.1667 -0.6289 -0.3745
 2573THY    HP464310   3.467   2.803  10.075  0.0920  0.3412 -0.1283
 2573THY    CP364311   3.571   3.001   9.931 -0.2200  0.1138 -0.4260
 2573THY    HP564312   3.469   2.983   9.894 -0.1408 -1.0551 -0.1218
 2573THY    HP664313   3.561   3.069  10.016 -2.1335 -2.4809  1.5947
 2573THY    HP764314   3.631   3.064   9.865  0.6829  1.3742  1.5001
 2573THY    CA364315   3.678   2.934  10.205 -0.7848  0.0178 -0.5566
 2573THY    HA364316   3.576   2.967  10.218 -1.1831 -1.5849  0.6640
 2573THY    CA464317   3.765   2.945  10.317  0.2159  0.8286 -0.1335
 2573THY    HA464318   3.731   3.002  10.402 -1.0899  0.5329 -0.4295
 2573THY    CA564319   3.902   2.907  10.313  0.4647 -0.1538 -0.3611
 2573THY    CM164320   3.990   2.900  10.432 -0.7490  0.0026 -0.2886
 2573THY    HM164321   3.938   2.956  10.510  0.2180  1.4659 -0.6596
 2573THY    HM264322   4.004   2.801  10.477 -0.5076  0.4134  0.5630
 2573THY    HM364323   4.094   2.932  10.417 -1.4015  2.3558 -0.2503
 2573THY    CA664324   3.947   2.868  10.187  0.1328 -0.3274  0.5845
 2573THY    HA664325   4.051   2.838  10.176  0.0779  0.1755 -1.9378
 2574THY      O64326   0.772   4.295   2.679  0.0193  0.2477 -0.5006
 2574THY     HO64327   0.711   4.225   2.653  0.3112 -1.4073  2.7798
 2574THY    CA164328   0.740   4.414   2.607  0.5001  0.5013 -0.0147
 2574THY    CA264329   0.788   4.541   2.639  0.2132 -0.5882 -0.1960
 2574THY    CP164330   0.892   4.553   2.753  0.4827  0.7320 -0.7029
 2574THY    HP164331   0.876   4.464   2.815  1.3879  0.6235 -0.5983
 2574THY    CP264332   1.036   4.553   2.698 -0.0388  0.8644 -0.3004
 2574THY    HP264333   1.038   4.648   2.645 -3.6379  0.0739 -2.2380
 2574THY    HP364334   1.115   4.561   2.772 -2.0868 -0.0768  2.1374
 2574THY    HP464335   1.065   4.470   2.632 -0.0094  2.1456 -1.9524
 2574THY    CP364336   0.880   4.680   2.838  0.3745  0.3681 -0.3815
 2574THY    HP564337   0.779   4.685   2.880  1.1278 -0.4142  1.6611
 2574THY    HP664338   0.952   4.676   2.920 -1.3511  1.2641  1.2665
 2574THY    HP764339   0.898   4.771   2.779  1.8429 -0.8102 -1.8443
 2574THY    CA364340   0.749   4.650   2.561 -1.1591 -0.1885  0.2151
 2574THY    HA364341   0.784   4.751   2.584  0.0667 -0.4418 -0.4340
 2574THY    CA464342   0.668   4.627   2.453  0.2349 -0.9163 -0.1627
 2574THY    HA464343   0.629   4.711   2.397  0.1652  0.8826  2.3997
 2574THY    CA564344   0.618   4.502   2.428  0.1337 -0.1079  0.0762
 2574THY    CM164345   0.512   4.480   2.317  0.3423 -0.4194  0.0960
 2574THY    HM164346   0.563   4.440   2.228 -1.5255 -1.3572 -0.6127
 2574THY    HM264347   0.442   4.412   2.366  1.6192 -0.3379  2.1643
 2574THY    HM364348   0.447   4.566   2.298 -0.9656 -1.7145 -1.5764
 2574THY    CA664349   0.663   4.392   2.495  0.3665 -0.1373 -0.5058
 2574THY    HA664350   0.628   4.294   2.463 -0.7073 -0.0188  0.2378
 2575THY      O64351   4.166   3.290   6.922  0.6732 -0.1104 -0.8184
 2575THY     HO64352   4.132   3.343   6.847 -2.5284 -1.0292 -0.1701
 2575THY    CA164353   4.302   3.297   6.923  0.9656 -0.6096  0.0594
 2575THY    CA264354   4.364   3.352   7.031  0.1903 -0.2527  0.0585
 2575THY    CP164355   4.277   3.421   7.136  0.2782  0.3246  0.0170
 2575THY    HP164356   4.175   3.381   7.137 -0.6729  2.3613 -2.8285
 2575THY    CP264357   4.321   3.371   7.274  0.1558  0.4046 -1.1052
 2575THY    HP264358   4.333   3.262   7.280  0.2737  0.4455 -0.5280
 2575THY    HP364359   4.414   3.416   7.311 -0.3947  0.3511  0.3995
 2575THY    HP464360   4.251   3.402   7.352  0.7204 -1.6333  0.2785
 2575THY    CP364361   4.273   3.570   7.113 -0.1073  0.1782  0.0785
 2575THY    HP564362   4.209   3.614   7.191  0.5218  0.5003  0.4210
 2575THY    HP664363   4.367   3.624   7.130 -2.1444  3.8231  0.8726
 2575THY    HP764364   4.231   3.581   7.012  1.7158  1.3155 -0.6052
 2575THY    CA364365   4.497   3.379   7.023 -0.1354  0.4393 -0.1134
 2575THY    HA364366   4.553   3.438   7.095 -0.5324  1.1732 -0.3962
 2575THY    CA464367   4.576   3.330   6.918 -0.5280 -0.4985  0.9688
 2575THY    HA464368   4.681   3.356   6.909 -0.4001 -0.1200  3.0995
 2575THY    CA564369   4.510   3.282   6.804  0.0202  0.3405 -0.5788
 2575THY    CM164370   4.595   3.248   6.686  0.3891  0.1219  0.4368
 2575THY    HM164371   4.547   3.207   6.596  0.6778  1.9553 -0.6110
 2575THY    HM264372   4.634   3.338   6.636 -1.1973  0.3603 -0.4435
 2575THY    HM364373   4.664   3.169   6.718 -1.5592 -1.5686  0.6942
 2575THY    CA664374   4.372   3.262   6.812  0.2289 -0.1781  0.9488
 2575THY    HA664375   4.313   3.230   6.727  0.6060 -0.0820  0.6433
 2576THY      O64376   3.572   5.917   3.866  0.3442  0.4274 -0.4106
 2576THY     HO64377   3.516   5.858   3.813  1.3674  0.3654 -1.4402
 2576THY    CA164378   3.676   5.949   3.791 -0.2934 -0.1017  0.4803
 2576THY    CA264379   3.789   5.995   3.850 -0.4680  0.1977  0.7649
 2576THY    CP164380   3.796   5.999   4.000  0.2224  0.3144 -0.3138
 2576THY    HP164381   3.748   5.908   4.036  0.2306  0.2161 -0.5485
 2576THY    CP264382   3.937   6.009   4.061  0.0520  0.2411  0.1475
 2576THY    HP264383   3.992   6.097   4.026  1.9767 -0.9453  0.0152
 2576THY    HP364384   3.924   6.003   4.170 -1.3561 -0.2165 -0.0232
 2576THY    HP464385   3.989   5.920   4.023  0.4357  0.4172  0.2587
 2576THY    CP364386   3.707   6.107   4.061 -0.5209 -0.5355  0.0199
 2576THY    HP564387   3.767   6.197   4.081 -1.3615 -0.1712  1.0174
 2576THY    HP664388   3.634   6.144   3.988 -0.5576 -0.5628  0.0429
 2576THY    HP764389   3.646   6.083   4.149 -3.0547 -0.1571 -1.5276
 2576THY    CA364390   3.901   6.021   3.759  0.2137  0.0087  0.2034
 2576THY    HA364391   4.001   6.044   3.796  0.0921 -0.7399  1.0408
 2576THY    CA464392   3.890   6.012   3.620 -0.0385 -0.7077  0.2299
 2576THY    HA464393   3.977   6.031   3.559  0.3106  1.1632  1.2464
 2576THY    CA564394   3.765   5.981   3.561 -0.4431  0.2759 -0.4341
 2576THY    CM164395   3.746   5.981   3.417  0.4003 -0.7931  0.8235
 2576THY    HM164396   3.718   6.079   3.376  0.7300 -0.4324  1.4395
 2576THY    HM264397   3.839   5.960   3.362  1.3653  0.9709  1.6888
 2576THY    HM364398   3.672   5.904   3.394  0.7862 -1.3834  1.4980
 2576THY    CA664399   3.655   5.952   3.649 -0.8057 -0.2444  0.5965
 2576THY    HA664400   3.555   5.929   3.614 -0.9784  0.3196  0.6961
 2577THY      O64401   7.867   9.331   3.401  0.2648 -0.2447  0.0443
 2577THY     HO64402   7.945   9.374   3.439  0.8396 -1.9954  0.9303
 2577THY    CA164403   7.896   9.306   3.263  0.6383 -0.4869  0.6684
 2577THY    CA264404   7.835   9.201   3.197  0.0007 -0.0062  1.0435
 2577THY    CP164405   7.722   9.121   3.266  0.2155  0.3341  1.1711
 2577THY    HP164406   7.716   9.117   3.376 -1.6108 -1.8379  1.0668
 2577THY    CP264407   7.587   9.168   3.218 -0.1593 -0.0390  0.7465
 2577THY    HP264408   7.578   9.135   3.114 -1.5394  1.0455  0.4913
 2577THY    HP364409   7.508   9.128   3.282 -0.8811 -0.0008 -0.1070
 2577THY    HP464410   7.579   9.278   3.218 -1.0747 -0.0859  1.5685
 2577THY    CP364411   7.734   8.976   3.220 -0.1170  0.5337 -0.5596
 2577THY    HP564412   7.831   8.930   3.246  0.6984  0.7976 -2.8712
 2577THY    HP664413   7.653   8.927   3.275  1.0437  2.8484  3.7062
 2577THY    HP764414   7.711   8.956   3.115 -0.5801  0.2660 -0.4110
 2577THY    CA364415   7.871   9.180   3.061  0.1052  0.1050  0.1586
 2577THY    HA364416   7.824   9.108   2.995  0.5002  2.1932 -2.6231
 2577THY    CA464417   7.967   9.262   2.999  0.4333  0.0056 -0.9527
 2577THY    HA464418   7.990   9.244   2.894  2.2502  1.1677 -0.7902
 2577THY    CA564419   8.014   9.372   3.063  0.0743  0.4239 -0.0591
 2577THY    CM164420   8.115   9.462   2.997  0.2866 -0.1207  0.1741
 2577THY    HM164421   8.057   9.531   2.934 -2.6537  0.6024  3.4007
 2577THY    HM264422   8.170   9.516   3.075 -1.0119 -1.5908  2.1991
 2577THY    HM364423   8.183   9.395   2.943  0.9963  0.5192  0.2537
 2577THY    CA664424   7.981   9.394   3.199  0.0497 -0.1868 -0.1855
 2577THY    HA664425   8.026   9.480   3.248 -1.0528  0.5859 -0.4857
 2578THY      O64426   4.241   1.087   8.575  0.5214  0.2312 -0.1129
 2578THY     HO64427   4.280   1.029   8.643  1.6936 -1.2722 -1.9836
 2578THY    CA164428   4.165   1.170   8.645  0.3821  0.0328 -0.0529
 2578THY    CA264429   4.148   1.303   8.622 -0.1135  0.0900 -0.0267
 2578THY    CP164430   4.221   1.363   8.505 -0.5262 -0.4344 -0.0960
 2578THY    HP164431   4.304   1.297   8.477  0.3986 -0.3307  2.2148
 2578THY    CP264432   4.130   1.382   8.386  0.1672  0.0589  0.4415
 2578THY    HP264433   4.078   1.293   8.348  0.8841 -0.6429  1.0598
 2578THY    HP364434   4.068   1.470   8.406 -0.3800 -0.2124 -0.0239
 2578THY    HP464435   4.174   1.414   8.291  1.3634 -2.3127  0.1202
 2578THY    CP364436   4.295   1.497   8.532 -0.2144  0.0129  0.1903
 2578THY    HP564437   4.312   1.509   8.640  3.4972  1.0170 -0.3673
 2578THY    HP664438   4.395   1.493   8.488  0.2038  0.0833  1.1049
 2578THY    HP764439   4.239   1.588   8.507  0.2395  0.7543  1.7396
 2578THY    CA364440   4.087   1.385   8.715 -0.1832  0.7073  0.0709
 2578THY    HA364441   4.085   1.492   8.694 -1.5661  0.9109  1.0907
 2578THY    CA464442   4.036   1.327   8.834  0.1811  0.5506 -0.5932
 2578THY    HA464443   3.987   1.390   8.907  0.4296  0.5367 -0.4136
 2578THY    CA564444   4.042   1.187   8.857  0.5936 -0.6136 -0.2436
 2578THY    CM164445   3.960   1.129   8.966  0.4745  0.0609  0.8699
 2578THY    HM164446   3.982   1.169   9.065 -0.2500  0.7680  0.7669
 2578THY    HM264447   3.856   1.158   8.945  0.8688  0.5844 -0.4777
 2578THY    HM364448   3.968   1.020   8.958  3.2415  0.2910 -0.4833
 2578THY    CA664449   4.111   1.108   8.764  0.7398 -0.5904  0.5507
 2578THY    HA664450   4.121   1.000   8.775 -2.6184 -1.0667  0.0133
 2579THY      O64451   9.543   7.384   7.953 -0.2552 -0.2294  0.2503
 2579THY     HO64452   9.466   7.444   7.960 -0.1918 -0.2929  1.8047
 2579THY    CA164453   9.545   7.342   7.818 -0.3541 -0.4925 -0.6186
 2579THY    CA264454   9.660   7.273   7.770 -0.4570 -0.6684 -0.0293
 2579THY    CP164455   9.780   7.231   7.855  0.4736 -0.5382  0.3405
 2579THY    HP164456   9.769   7.252   7.962  0.6981 -4.1591  1.2247
 2579THY    CP264457   9.797   7.078   7.854 -0.6172 -0.1726 -0.2446
 2579THY    HP264458   9.858   7.044   7.939  1.0106 -2.4222 -2.1733
 2579THY    HP364459   9.708   7.014   7.854  0.8577 -2.3817 -1.4723
 2579THY    HP464460   9.840   7.031   7.764 -2.1623 -1.1670 -0.5003
 2579THY    CP364461   9.906   7.298   7.816 -0.1192  0.5095 -0.8652
 2579THY    HP564462   9.899   7.404   7.787  1.1338  0.4059 -1.6032
 2579THY    HP664463   9.983   7.282   7.893 -0.7779  0.0684 -0.2889
 2579THY    HP764464   9.950   7.242   7.733  0.6790  3.0121 -2.2424
 2579THY    CA364465   9.664   7.269   7.628  0.4496  0.0507  0.3501
 2579THY    HA364466   9.751   7.224   7.580 -2.6793 -2.6759 -3.4440
 2579THY    CA464467   9.549   7.284   7.545  0.3023 -0.2862 -0.4381
 2579THY    HA464468   9.538   7.275   7.438  0.7639 -0.4285 -0.4769
 2579THY    CA564469   9.435   7.332   7.606  0.0736 -0.7014 -0.0981
 2579THY    CM164470   9.323   7.382   7.522 -0.3339 -0.0493  0.1664
 2579THY    HM164471   9.262   7.457   7.574 -0.8832  0.1008 -0.6597
 2579THY    HM264472   9.353   7.410   7.420 -1.2683 -4.4425 -1.5421
 2579THY    HM364473   9.244   7.309   7.501 -0.8960  0.4596  0.4869
 2579THY    CA664474   9.432   7.374   7.743 -0.2817  0.6307  0.6846
 2579THY    HA664475   9.345   7.419   7.790 -0.9597 -0.9431  1.0306
 2580THY      O64476   5.379   1.783   2.366  0.0090 -0.5679 -0.3666
 2580THY     HO64477   5.449   1.722   2.396  0.5810  0.4057  0.3659
 2580THY    CA164478   5.285   1.707   2.318  0.4750 -0.8415  0.7013
 2580THY    CA264479   5.167   1.759   2.252 -0.3613 -0.4639  0.8183
 2580THY    CP164480   5.148   1.907   2.234  0.6202  0.1227  0.5845
 2580THY    HP164481   5.232   1.964   2.276  0.7473  1.2906 -1.1539
 2580THY    CP264482   5.133   1.950   2.089  0.8546 -0.6351  0.5698
 2580THY    HP264483   5.051   1.895   2.042  0.1926  0.9725 -0.2100
 2580THY    HP364484   5.104   2.055   2.082 -0.2690 -0.9929 -0.5795
 2580THY    HP464485   5.219   1.950   2.022 -0.4573 -0.2862 -1.1733
 2580THY    CP364486   5.019   1.957   2.304 -1.1000 -0.2427 -0.0498
 2580THY    HP564487   5.035   2.065   2.315  2.6342 -0.6794  0.1192
 2580THY    HP664488   4.930   1.933   2.246  0.6270 -2.0353 -2.1425
 2580THY    HP764489   5.017   1.916   2.406  2.4425 -2.0098 -0.5200
 2580THY    CA364490   5.073   1.675   2.197  0.0316  0.4313 -0.0275
 2580THY    HA364491   4.983   1.709   2.146  0.0323 -2.0995 -1.8523
 2580THY    CA464492   5.092   1.532   2.209  0.2437 -0.6751  0.1010
 2580THY    HA464493   5.013   1.460   2.186 -0.5680  0.0208  0.6452
 2580THY    CA564494   5.214   1.483   2.267 -0.9328 -0.8618 -0.4376
 2580THY    CM164495   5.245   1.337   2.277  0.3715  0.4455  0.0661
 2580THY    HM164496   5.347   1.321   2.312  0.1806  1.1302  0.9853
 2580THY    HM264497   5.190   1.287   2.358  1.1544  0.7401  0.7897
 2580THY    HM364498   5.217   1.285   2.185 -2.3387 -3.2066  2.6505
 2580THY    CA664499   5.306   1.573   2.332  0.3246  0.5502 -0.3741
 2580THY    HA664500   5.391   1.518   2.370 -1.0736 -1.4464  0.0438
 2581THY      O64501   3.392   8.119   9.900  0.5083  0.1254  0.1485
 2581THY     HO64502   3.397   8.177   9.978 -0.0623  0.1183  0.1961
 2581THY    CA164503   3.308   8.195   9.831 -0.1389  0.5875 -0.2321
 2581THY    CA264504   3.285   8.173   9.693 -0.2095  0.6404 -1.0093
 2581THY    CP164505   3.360   8.054   9.627 -0.2945  0.0584 -0.8017
 2581THY    HP164506   3.389   7.978   9.700  0.9523  0.2372 -1.0781
 2581THY    CP264507   3.266   7.984   9.525  0.8339 -0.1284  0.0069
 2581THY    HP264508   3.272   8.052   9.440  1.8871 -0.5417 -0.2716
 2581THY    HP364509   3.302   7.887   9.487 -1.4706 -0.3403 -1.8650
 2581THY    HP464510   3.168   7.972   9.572  0.8065 -0.2367 -0.0767
 2581THY    CP364511   3.499   8.100   9.571  0.4663 -0.1115 -0.4686
 2581THY    HP564512   3.563   8.113   9.659  0.5207 -3.4640  0.1227
 2581THY    HP664513   3.552   8.026   9.510  1.1898 -2.1152  2.3367
 2581THY    HP764514   3.492   8.194   9.516 -1.5713 -0.4806 -0.9256
 2581THY    CA364515   3.196   8.258   9.621 -0.3018  0.4554 -0.1296
 2581THY    HA364516   3.172   8.238   9.517 -0.0039  0.0738 -0.1265
 2581THY    CA464517   3.146   8.369   9.686 -0.2835 -0.4599  0.1287
 2581THY    HA464518   3.086   8.440   9.630  0.6846 -0.5768 -1.1158
 2581THY    CA564519   3.163   8.389   9.821 -0.7426  0.5829  0.2588
 2581THY    CM164520   3.106   8.514   9.878  0.4742 -0.4916 -0.6106
 2581THY    HM164521   3.103   8.607   9.821  0.3291  0.5130  0.9819
 2581THY    HM264522   3.002   8.493   9.904  1.1220 -3.1151  0.2101
 2581THY    HM364523   3.151   8.544   9.973 -1.8890 -2.3828  1.2529
 2581THY    CA664524   3.244   8.299   9.893  0.3515  0.5173 -0.4763
 2581THY    HA664525   3.268   8.327   9.995 -1.0222 -0.0303  0.0126
 2582THY      O64526   1.242   4.758   7.402  0.1483 -0.8938  0.1690
 2582THY     HO64527   1.269   4.672   7.439  0.9615 -0.8005 -0.1902
 2582THY    CA164528   1.260   4.856   7.498 -0.8675  0.1751 -0.9572
 2582THY    CA264529   1.194   4.979   7.496 -0.2329 -0.5129 -0.1236
 2582THY    CP164530   1.088   5.002   7.386 -0.2032  0.0267  0.0688
 2582THY    HP164531   1.096   4.925   7.308 -1.5032  0.6105 -0.6736
 2582THY    CP264532   0.941   5.012   7.436 -0.3417  0.0500 -0.0703
 2582THY    HP264533   0.932   5.105   7.494  0.0313 -0.1787  0.3643
 2582THY    HP364534   0.875   5.026   7.351 -0.8575 -1.1101  0.1232
 2582THY    HP464535   0.915   4.913   7.474 -0.5877  0.5214  1.0411
 2582THY    CP364536   1.123   5.135   7.303  0.2005  0.7772  0.1730
 2582THY    HP564537   1.089   5.127   7.199  1.1160  0.6735 -0.1280
 2582THY    HP664538   1.077   5.220   7.355  2.4436  1.1469  1.6913
 2582THY    HP764539   1.231   5.151   7.308  0.5576 -1.3576  0.0393
 2582THY    CA364540   1.237   5.085   7.581  0.6764  0.4603  0.7480
 2582THY    HA364541   1.188   5.182   7.572 -0.4032 -0.2674 -2.9787
 2582THY    CA464542   1.345   5.062   7.676 -0.3796  0.0402  0.0382
 2582THY    HA464543   1.377   5.149   7.732 -0.4288  0.0961 -0.0203
 2582THY    CA564544   1.393   4.928   7.690 -0.3798  0.2842 -0.5051
 2582THY    CM164545   1.494   4.893   7.792  0.5815  0.4233 -0.4198
 2582THY    HM164546   1.456   4.813   7.857 -0.3355  0.4951 -0.8591
 2582THY    HM264547   1.588   4.850   7.755  0.8689 -0.1737  0.9151
 2582THY    HM364548   1.516   4.978   7.857 -1.4978  0.3084  0.5092
 2582THY    CA664549   1.358   4.826   7.596 -0.3616  0.1039  0.4129
 2582THY    HA664550   1.404   4.728   7.595 -1.7448 -0.6091 -1.6050
 2583THY      O64551   9.631   4.506   1.362 -0.2344  0.7412 -0.4082
 2583THY     HO64552   9.710   4.472   1.317  0.6217 -0.7308  2.0034
 2583THY    CA164553   9.529   4.437   1.309  0.3233  0.2506  0.2897
 2583THY    CA264554   9.393   4.455   1.347 -0.0367  0.4664 -0.1180
 2583THY    CP164555   9.349   4.529   1.479  0.0437 -0.2277  0.6469
 2583THY    HP164556   9.247   4.492   1.490 -0.4708  0.4070 -1.4496
 2583THY    CP264557   9.410   4.482   1.610 -0.0478  0.3212  0.5433
 2583THY    HP264558   9.366   4.536   1.695  1.2955 -0.3728  1.7345
 2583THY    HP364559   9.382   4.377   1.621 -0.8044  0.5861  1.2345
 2583THY    HP464560   9.520   4.481   1.607 -0.0345 -1.2594  0.6753
 2583THY    CP364561   9.342   4.684   1.467 -0.4207  0.8996  0.8223
 2583THY    HP564562   9.433   4.707   1.411 -0.2032 -1.5162  0.0463
 2583THY    HP664563   9.257   4.718   1.406 -0.4746 -0.8321 -0.1501
 2583THY    HP764564   9.335   4.735   1.564  0.3076  0.0724  1.3223
 2583THY    CA364565   9.287   4.382   1.278  0.1662  0.1576  0.1754
 2583THY    HA364566   9.185   4.391   1.316 -0.4033  1.5148 -1.5141
 2583THY    CA464567   9.321   4.299   1.173 -0.3699 -0.0674 -0.5333
 2583THY    HA464568   9.252   4.226   1.130 -0.3874 -0.6637  0.4894
 2583THY    CA564569   9.450   4.301   1.120 -0.2070  0.2447 -0.8095
 2583THY    CM164570   9.480   4.216   0.999  0.1429  0.1037  0.0402
 2583THY    HM164571   9.407   4.136   0.983  0.1440  0.0915  0.0962
 2583THY    HM264572   9.476   4.263   0.899  1.1590 -0.2118 -0.1613
 2583THY    HM364573   9.578   4.167   1.010  0.3054  0.1444 -1.0262
 2583THY    CA664574   9.552   4.365   1.191  0.7707 -0.3674  0.0643
 2583THY    HA664575   9.654   4.359   1.157  0.6061 -0.5428 -0.4092
 2584THY      O64576   6.478   6.059   1.897  0.1410  0.1274 -0.1019
 2584THY     HO64577   6.474   5.962   1.891 -2.4309  0.1308  0.5531
 2584THY    CA164578   6.451   6.101   1.773  0.8992  0.2077 -0.4328
 2584THY    CA264579   6.375   6.223   1.754 -0.5322 -0.0438  0.2336
 2584THY    CP164580   6.316   6.306   1.875 -0.6698 -0.0709 -0.1670
 2584THY    HP164581   6.372   6.302   1.969 -0.9561  2.1764  0.1422
 2584THY    CP264582   6.306   6.446   1.848  0.5632  0.3646 -0.6709
 2584THY    HP264583   6.239   6.478   1.768  0.1665 -1.4059 -1.0813
 2584THY    HP364584   6.272   6.493   1.941 -0.4782 -1.0196 -0.3250
 2584THY    HP464585   6.408   6.479   1.824  1.0371  0.0876  0.8325
 2584THY    CP364586   6.182   6.244   1.913  0.2793 -0.4227  0.3840
 2584THY    HP564587   6.101   6.294   1.858 -0.1744 -1.9662 -0.4205
 2584THY    HP664588   6.170   6.136   1.895 -0.9418 -0.6028  2.0723
 2584THY    HP764589   6.175   6.260   2.021  3.6249  1.9079  0.4209
 2584THY    CA364590   6.366   6.273   1.617 -0.6779 -0.4180  0.3553
 2584THY    HA364591   6.306   6.360   1.591  0.7260  0.0831 -1.4053
 2584THY    CA464592   6.428   6.195   1.510 -0.4655 -0.0213 -0.0950
 2584THY    HA464593   6.422   6.225   1.406  0.7808 -0.1648 -0.2294
 2584THY    CA564594   6.509   6.088   1.538  0.2283 -0.4594 -0.2477
 2584THY    CM164595   6.574   6.010   1.422 -0.2156  0.8058  0.3451
 2584THY    HM164596   6.636   6.079   1.364 -1.8358  2.2348  0.2406
 2584THY    HM264597   6.639   5.926   1.451 -2.5049 -0.5794  1.7970
 2584THY    HM364598   6.497   5.988   1.348 -0.9109  0.7380  1.0708
 2584THY    CA664599   6.507   6.029   1.667  0.1329 -0.5910  0.3380
 2584THY    HA664600   6.548   5.932   1.689 -0.5763 -1.4606 -1.8794
 2585THY      O64601   8.831   0.001   7.342  0.1791  0.1963  0.0931
 2585THY     HO64602   8.922   0.001   7.375 -0.0082 -1.4727  0.7083
 2585THY    CA164603   8.757  -0.031   7.448  0.0951  0.3316 -0.4940
 2585THY    CA264604   8.619  -0.016   7.449  0.3851 -0.4454 -0.1715
 2585THY    CP164605   8.538   0.054   7.336  0.1192 -0.3978 -0.0018
 2585THY    HP164606   8.608   0.119   7.282  1.2324 -1.4863  0.0926
 2585THY    CP264607   8.478  -0.043   7.232 -0.5903  0.1918 -0.3667
 2585THY    HP264608   8.549  -0.111   7.183 -3.2893 -2.0774 -1.4126
 2585THY    HP364609   8.401  -0.107   7.277 -1.6287  1.2560 -0.5933
 2585THY    HP464610   8.425   0.002   7.147 -3.9258  0.2937  1.5722
 2585THY    CP364611   8.432   0.145   7.381  0.5136  0.4852 -0.0131
 2585THY    HP564612   8.356   0.076   7.419  1.3148 -0.3053  0.1751
 2585THY    HP664613   8.474   0.208   7.460 -0.3387  0.2279  0.6592
 2585THY    HP764614   8.376   0.185   7.296 -0.4229  2.7632  1.5915
 2585THY    CA364615   8.552  -0.047   7.570  0.5858  0.2682  0.2719
 2585THY    HA364616   8.446  -0.032   7.590  0.3892 -2.0463  1.3234
 2585THY    CA464617   8.619  -0.108   7.684  0.2033 -0.4058  0.2311
 2585THY    HA464618   8.558  -0.131   7.771 -0.6966 -0.3936 -0.3790
 2585THY    CA564619   8.755  -0.138   7.670  0.2780 -0.1528 -1.1435
 2585THY    CM164620   8.832  -0.200   7.794  0.2262  0.1818  0.3106
 2585THY    HM164621   8.910  -0.130   7.826 -0.2819  0.5187  0.8155
 2585THY    HM264622   8.770  -0.208   7.884  2.3049  2.6648  2.1048
 2585THY    HM364623   8.875  -0.296   7.762 -3.4339 -1.3655 -0.4738
 2585THY    CA664624   8.824  -0.095   7.557  0.4323  0.7454 -0.2349
 2585THY    HA664625   8.923  -0.140   7.560 -0.2464 -0.8892  3.7688
 2586THY      O64626   6.018   3.048   9.181 -0.5532  0.4675  0.5165
 2586THY     HO64627   5.958   3.080   9.111  1.2502  0.4642 -1.1188
 2586THY    CA164628   5.942   3.024   9.293 -0.0380  0.0333 -0.2003
 2586THY    CA264629   5.992   2.984   9.419 -0.5871 -0.3670 -1.0348
 2586THY    CP164630   6.139   2.951   9.418 -0.0538  0.0191 -0.4284
 2586THY    HP164631   6.171   2.917   9.319 -0.9627  1.9651 -1.4369
 2586THY    CP264632   6.219   3.067   9.472 -0.4984  0.0157 -0.2602
 2586THY    HP264633   6.184   3.093   9.573 -0.8815  0.1636 -0.4302
 2586THY    HP364634   6.325   3.042   9.480 -0.8881 -1.1223  2.2122
 2586THY    HP464635   6.224   3.159   9.412  1.0701  0.2025  0.0994
 2586THY    CP364636   6.169   2.831   9.516  0.1089  0.5656 -0.5330
 2586THY    HP564637   6.275   2.804   9.514 -0.2122 -0.8168 -0.1243
 2586THY    HP664638   6.143   2.848   9.621 -0.7639  0.4735 -0.7235
 2586THY    HP764639   6.114   2.744   9.477 -1.1203  0.8714  0.4580
 2586THY    CA364640   5.906   2.952   9.526  0.3967 -0.0472  0.5197
 2586THY    HA364641   5.951   2.910   9.615  1.6692  0.0298 -0.0723
 2586THY    CA464642   5.765   2.970   9.504 -0.1027  0.2718  0.4957
 2586THY    HA464643   5.699   2.948   9.588 -0.1283  2.1946  1.0201
 2586THY    CA564644   5.714   3.011   9.380 -0.2743  0.8222  0.0735
 2586THY    CM164645   5.567   3.001   9.353 -0.9037 -0.1743 -0.0886
 2586THY    HM164646   5.514   2.950   9.435  2.0484 -0.1104  2.0293
 2586THY    HM264647   5.529   3.103   9.356 -1.5751 -0.4137 -0.2334
 2586THY    HM364648   5.553   2.973   9.248  1.2137  1.2425 -0.7998
 2586THY    CA664649   5.803   3.041   9.279 -0.2148  0.4619 -0.1326
 2586THY    HA664650   5.762   3.070   9.182 -0.2718  0.6287 -0.0586
 2587THY      O64651   0.368   9.086   2.599 -0.4101 -0.2643  0.5705
 2587THY     HO64652   0.286   9.034   2.588  0.8603 -2.3928  0.5553
 2587THY    CA164653   0.391   9.130   2.471  0.1175  0.2392  0.2858
 2587THY    CA264654   0.518   9.172   2.435 -0.8440 -0.4320 -0.1498
 2587THY    CP164655   0.635   9.186   2.534 -0.2464  0.1089  0.1897
 2587THY    HP164656   0.598   9.174   2.637  1.3974  1.0194  0.9426
 2587THY    CP264657   0.741   9.078   2.507  0.1872  0.0394 -0.4283
 2587THY    HP264658   0.784   9.078   2.406  0.1122 -1.2622 -0.4857
 2587THY    HP364659   0.833   9.097   2.564 -0.1655  0.4350  0.0090
 2587THY    HP464660   0.705   8.981   2.544  1.0323 -0.2915 -0.4489
 2587THY    CP364661   0.705   9.319   2.530 -0.6920  0.4439  0.8653
 2587THY    HP564662   0.635   9.400   2.507 -0.1572  0.6742  0.0214
 2587THY    HP664663   0.753   9.347   2.625  1.3120  0.8941 -0.2139
 2587THY    HP764664   0.790   9.323   2.460 -0.5104  3.7843  1.1205
 2587THY    CA364665   0.539   9.215   2.302 -0.4651 -0.4740 -0.2592
 2587THY    HA364666   0.636   9.253   2.271  0.2902  0.3452  2.6949
 2587THY    CA464667   0.437   9.209   2.208  0.2042 -0.1955 -0.0277
 2587THY    HA464668   0.465   9.222   2.104  1.9372 -3.0410 -0.0307
 2587THY    CA564669   0.310   9.164   2.246 -0.3621  0.7569 -0.5154
 2587THY    CM164670   0.200   9.153   2.147 -0.1960 -0.3105 -0.0501
 2587THY    HM164671   0.128   9.079   2.184  0.9663 -2.4387 -1.8173
 2587THY    HM264672   0.163   9.251   2.113  0.3487 -0.0693  0.0464
 2587THY    HM364673   0.229   9.102   2.054  1.1985 -0.9243  0.6927
 2587THY    CA664674   0.286   9.128   2.377  0.4495 -0.4314  0.1307
 2587THY    HA664675   0.188   9.097   2.411  0.3491  0.0634  0.3110
 2588THY      O64676   6.835   0.320   1.736 -0.4272  0.7689  0.2698
 2588THY     HO64677   6.750   0.335   1.780 -0.7269  2.4854 -0.8087
 2588THY    CA164678   6.889   0.213   1.804  0.2050 -0.2820  0.3287
 2588THY    CA264679   7.026   0.188   1.826  0.2855 -0.3223  0.5396
 2588THY    CP164680   7.121   0.290   1.767  0.4569  0.3649  0.4199
 2588THY    HP164681   7.075   0.349   1.687  0.6021 -0.9813 -0.6917
 2588THY    CP264682   7.167   0.384   1.884 -0.1073  0.2521  0.6870
 2588THY    HP264683   7.193   0.476   1.831 -0.3466 -0.1225 -0.1050
 2588THY    HP364684   7.081   0.384   1.951 -1.8404 -1.3316 -1.3718
 2588THY    HP464685   7.253   0.345   1.940  0.7981 -0.3915 -1.0678
 2588THY    CP364686   7.246   0.224   1.699  0.4016  0.5453  0.1401
 2588THY    HP564687   7.308   0.304   1.658  0.0962 -0.1598 -1.8320
 2588THY    HP664688   7.310   0.166   1.766 -0.6834  0.8116  1.4382
 2588THY    HP764689   7.223   0.171   1.606 -0.8313  0.6060  0.4001
 2588THY    CA364690   7.069   0.081   1.903  0.4055 -0.2632  0.7521
 2588THY    HA364691   7.175   0.062   1.913 -0.0493 -2.3575  2.1296
 2588THY    CA464692   6.977  -0.008   1.948 -0.4289  0.1836 -0.4255
 2588THY    HA464693   7.007  -0.097   2.002  0.3285 -0.8832 -2.4840
 2588THY    CA564694   6.844   0.012   1.918 -0.2834 -0.0525 -0.4995
 2588THY    CM164695   6.741  -0.093   1.966 -0.1681  0.3727  0.5696
 2588THY    HM164696   6.661  -0.114   1.894  0.7475 -2.7571  0.3653
 2588THY    HM264697   6.788  -0.191   1.977 -0.4475  0.1903  0.1567
 2588THY    HM364698   6.703  -0.066   2.065 -0.8924 -1.8303  0.9253
 2588THY    CA664699   6.795   0.130   1.857 -0.4655  0.1310  0.0975
 2588THY    HA664700   6.688   0.147   1.853 -0.8875 -1.2101  2.9087
 2589THY      O64701   6.621   4.845   2.147 -0.0226  0.2118 -0.6255
 2589THY     HO64702   6.524   4.857   2.152  0.0277  0.2488  0.7506
 2589THY    CA164703   6.639   4.727   2.216 -0.2330 -0.4025 -0.3842
 2589THY    CA264704   6.761   4.650   2.206  0.2622  0.5372  0.2791
 2589THY    CP164705   6.877   4.699   2.124 -0.0124  0.2233  0.7467
 2589THY    HP164706   6.837   4.764   2.046  1.0787 -0.9692 -0.8625
 2589THY    CP264707   6.993   4.778   2.193  0.7889 -0.7503 -0.1021
 2589THY    HP264708   7.052   4.728   2.271  0.8826  1.9706  1.6867
 2589THY    HP364709   7.066   4.808   2.116 -0.0048  0.4887 -0.3983
 2589THY    HP464710   6.948   4.865   2.242  0.2307 -1.5370  0.7960
 2589THY    CP364711   6.949   4.572   2.067  0.5737  0.6995 -0.1481
 2589THY    HP564712   7.031   4.537   2.131 -1.4175  0.1719  2.2261
 2589THY    HP664713   6.887   4.486   2.040  0.5938  0.5888  0.1556
 2589THY    HP764714   7.001   4.601   1.974 -1.0469 -0.0043 -1.3128
 2589THY    CA364715   6.775   4.538   2.293  0.4224 -0.0687  0.1122
 2589THY    HA364716   6.858   4.468   2.289 -1.3751 -2.3528  0.5730
 2589THY    CA464717   6.663   4.498   2.364 -0.3564 -0.1204 -0.1108
 2589THY    HA464718   6.676   4.413   2.431  1.2603 -0.0412 -0.2765
 2589THY    CA564719   6.546   4.582   2.374  0.5579  0.0299  0.0538
 2589THY    CM164720   6.433   4.527   2.462 -0.1971 -0.0318  0.4963
 2589THY    HM164721   6.359   4.608   2.469  0.3202  0.6952 -1.8472
 2589THY    HM264722   6.379   4.443   2.415  0.9939 -0.8916  0.6202
 2589THY    HM364723   6.479   4.488   2.554  1.2738 -0.4386 -0.3889
 2589THY    CA664724   6.531   4.693   2.294 -0.6390  0.3546 -1.2356
 2589THY    HA664725   6.446   4.758   2.312  0.5654  1.3374  1.3543
 2590THY      O64726   7.664   3.701   5.458 -0.1487 -0.2415  0.3312
 2590THY     HO64727   7.748   3.745   5.476 -0.6276  0.6024  0.5577
 2590THY    CA164728   7.584   3.800   5.412  0.5784  0.0873  0.2767
 2590THY    CA264729   7.474   3.767   5.329 -0.2313  0.6110 -0.3146
 2590THY    CP164730   7.462   3.630   5.268  0.0106  0.5847  1.0220
 2590THY    HP164731   7.504   3.545   5.323 -0.4406 -1.1757 -1.1841
 2590THY    CP264732   7.316   3.590   5.256 -0.3749  0.0571  0.5546
 2590THY    HP264733   7.275   3.631   5.163  2.8303  0.4974 -0.7906
 2590THY    HP364734   7.323   3.481   5.255 -0.4738 -0.0437  3.0711
 2590THY    HP464735   7.256   3.616   5.345 -2.8959 -3.1739  0.0315
 2590THY    CP364736   7.524   3.623   5.130  0.2754 -0.8184  0.3072
 2590THY    HP564737   7.501   3.710   5.067  1.9815  0.1227  0.9187
 2590THY    HP664738   7.633   3.625   5.146  0.4804  1.8250 -0.8415
 2590THY    HP764739   7.493   3.532   5.079 -0.6614 -0.7815  0.7966
 2590THY    CA364740   7.389   3.869   5.297 -0.9805  0.3918 -0.2706
 2590THY    HA364741   7.297   3.845   5.245 -0.3911 -1.0599 -0.7099
 2590THY    CA464742   7.417   3.999   5.341  0.7564 -0.4084  0.0866
 2590THY    HA464743   7.350   4.076   5.305 -0.0697 -1.7344 -1.3593
 2590THY    CA564744   7.515   4.027   5.434 -0.4227 -0.3499 -0.1161
 2590THY    CM164745   7.532   4.162   5.497 -0.2009 -0.5907 -0.0554
 2590THY    HM164746   7.630   4.184   5.540 -0.5140 -0.7709  0.7829
 2590THY    HM264747   7.506   4.237   5.421 -2.2972  0.4043  1.5399
 2590THY    HM364748   7.462   4.174   5.581  0.8388 -0.0537  0.7560
 2590THY    CA664749   7.609   3.926   5.465 -0.1174  0.2658 -0.6724
 2590THY    HA664750   7.683   3.942   5.542 -1.7173 -2.9880  1.8239
 2591THY      O64751   4.233   2.060   7.014  0.3453  0.3499 -0.3468
 2591THY     HO64752   4.193   2.099   7.094  0.1622  0.6881 -0.6008
 2591THY    CA164753   4.225   2.154   6.913  0.2534  0.3768 -0.8177
 2591THY    CA264754   4.261   2.124   6.784 -1.0518 -0.0016 -0.3926
 2591THY    CP164755   4.289   1.980   6.740  0.0424  0.7333  0.6895
 2591THY    HP164756   4.319   1.917   6.824 -0.7848  0.1884  0.5833
 2591THY    CP264757   4.177   1.904   6.660  0.2704  0.3740 -0.4010
 2591THY    HP264758   4.141   1.968   6.578  0.3946 -0.8411 -1.4268
 2591THY    HP364759   4.195   1.804   6.618  0.3053 -0.0154  0.5166
 2591THY    HP464760   4.091   1.905   6.728  0.3343  0.4354 -0.3213
 2591THY    CP364761   4.421   1.981   6.668 -0.3917  0.5203 -0.1612
 2591THY    HP564762   4.473   1.886   6.654  3.1115  2.2899 -0.1596
 2591THY    HP664763   4.409   2.026   6.568  3.0560  2.1135  0.0118
 2591THY    HP764764   4.491   2.041   6.727  0.2580 -1.2342  0.9167
 2591THY    CA364765   4.242   2.224   6.687 -0.0873 -0.6235  0.2817
 2591THY    HA364766   4.276   2.200   6.587  2.5360  1.2281  0.6390
 2591THY    CA464767   4.187   2.352   6.722  0.3824  1.0551  0.6879
 2591THY    HA464768   4.163   2.421   6.643  0.5988 -2.1433 -2.4212
 2591THY    CA564769   4.150   2.374   6.856  0.1190 -0.1656 -0.4589
 2591THY    CM164770   4.071   2.497   6.881 -0.1547 -1.3682 -0.0335
 2591THY    HM164771   4.122   2.587   6.846 -1.3139 -0.9834 -0.7872
 2591THY    HM264772   3.979   2.496   6.821  0.2136 -1.2000 -0.6038
 2591THY    HM364773   4.051   2.513   6.987 -0.9670 -0.1131 -0.3550
 2591THY    CA664774   4.174   2.275   6.950 -0.3853  1.0928  0.0212
 2591THY    HA664775   4.141   2.285   7.052 -1.3143 -0.4202 -0.1106
 2592THY      O64776   5.682   1.374   0.125  0.2039 -0.3498  0.3995
 2592THY     HO64777   5.655   1.320   0.049 -0.0833  2.3560 -1.5385
 2592THY    CA164778   5.566   1.416   0.183 -0.0686  0.1950  0.1391
 2592THY    CA264779   5.533   1.551   0.179  0.1433  0.1146  0.5403
 2592THY    CP164780   5.631   1.647   0.106  0.6845 -0.3352 -0.1754
 2592THY    HP164781   5.732   1.606   0.092  0.9947 -0.1590  1.3325
 2592THY    CP264782   5.572   1.674  -0.030 -0.3731 -0.0093  0.2223
 2592THY    HP264783   5.630   1.740  -0.095 -1.3831  1.1343  0.4401
 2592THY    HP364784   5.548   1.583  -0.087  0.5428 -0.1578  0.0597
 2592THY    HP464785   5.472   1.718  -0.033  0.0027  0.8363 -3.0549
 2592THY    CP364786   5.656   1.790   0.180  0.0028 -0.3872 -0.1671
 2592THY    HP564787   5.566   1.852   0.174  0.2088 -0.1157 -0.4118
 2592THY    HP664788   5.683   1.756   0.281 -2.6051 -2.1907  0.0432
 2592THY    HP764789   5.739   1.842   0.132 -0.2991 -0.1771 -0.4689
 2592THY    CA364790   5.408   1.599   0.235  0.0677  0.3640 -0.1761
 2592THY    HA364791   5.379   1.703   0.231 -2.3506 -0.1813  1.1062
 2592THY    CA464792   5.328   1.497   0.298 -0.6642  0.3221 -0.3012
 2592THY    HA464793   5.244   1.538   0.354 -0.5720 -0.9028  0.7655
 2592THY    CA564794   5.366   1.360   0.305  0.2463  0.7906 -0.0003
 2592THY    CM164795   5.267   1.255   0.367 -0.8114  0.2071  0.0989
 2592THY    HM164796   5.177   1.239   0.307 -1.3969 -1.6952  1.3868
 2592THY    HM264797   5.305   1.154   0.383  1.3028  0.8322 -0.6027
 2592THY    HM364798   5.236   1.286   0.467 -0.4189  1.5617 -0.1722
 2592THY    CA664799   5.486   1.317   0.241  0.4133 -0.5414 -0.0516
 2592THY    HA664800   5.516   1.214   0.227 -0.4220 -0.5150 -2.5689
 2593THY      O64801   0.854   9.370   5.067  0.2623  0.4513  0.0908
 2593THY     HO64802   0.763   9.380   5.100  0.4808 -2.7450  2.1663
 2593THY    CA164803   0.900   9.242   5.096 -0.0202  0.1724  0.5454
 2593THY    CA264804   1.031   9.215   5.049  0.0027  0.1991  0.2078
 2593THY    CP164805   1.106   9.303   4.949  0.1972 -0.3060  0.2842
 2593THY    HP164806   1.029   9.359   4.895  0.2309 -1.6104 -1.1921
 2593THY    CP264807   1.212   9.400   5.022 -0.8692  0.1111 -0.0169
 2593THY    HP264808   1.279   9.356   5.096  0.8744  1.6746 -0.6052
 2593THY    HP364809   1.270   9.464   4.955  0.0714  0.6906  1.3255
 2593THY    HP464810   1.151   9.473   5.077 -0.3973 -0.1892  0.9247
 2593THY    CP364811   1.170   9.233   4.831  0.3728 -0.7990 -0.4810
 2593THY    HP564812   1.248   9.161   4.857  1.2763 -0.7523 -2.8139
 2593THY    HP664813   1.090   9.181   4.777 -2.2382 -0.4557  2.7640
 2593THY    HP764814   1.217   9.312   4.772 -0.6955  1.2533  1.3011
 2593THY    CA364815   1.095   9.097   5.102 -0.3097 -0.5146 -0.4441
 2593THY    HA364816   1.195   9.069   5.068 -0.3390 -4.1216  1.9345
 2593THY    CA464817   1.031   9.012   5.193  0.0819 -0.0160  0.4102
 2593THY    HA464818   1.085   8.930   5.237 -0.8309 -0.3724  0.8861
 2593THY    CA564819   0.900   9.054   5.238 -0.2811  0.2094  0.3888
 2593THY    CM164820   0.840   8.977   5.347 -0.6284  0.1222 -0.1417
 2593THY    HM164821   0.791   8.888   5.306 -2.0617  1.0081 -0.4499
 2593THY    HM264822   0.926   8.954   5.411  0.2681 -0.3611 -1.4760
 2593THY    HM364823   0.774   9.026   5.420 -2.6068 -2.2616 -0.2039
 2593THY    CA664824   0.833   9.169   5.189  0.5042  0.2550 -0.3544
 2593THY    HA664825   0.737   9.197   5.232 -0.6332  0.2421 -2.7218
 2594THY      O64826   8.315   2.281   2.448  0.2722  0.3044  0.2849
 2594THY     HO64827   8.230   2.236   2.433  1.4823 -2.3814  0.8366
 2594THY    CA164828   8.301   2.403   2.395 -0.4008  0.0325  0.0455
 2594THY    CA264829   8.353   2.512   2.458 -0.5499 -0.0633 -0.1288
 2594THY    CP164830   8.445   2.499   2.585 -0.3572 -0.2590 -0.3278
 2594THY    HP164831   8.504   2.407   2.573  1.1455  0.8741 -2.3807
 2594THY    CP264832   8.562   2.606   2.593  0.4860 -0.4837  0.4476
 2594THY    HP264833   8.641   2.573   2.661  0.7328 -0.9780 -0.0747
 2594THY    HP364834   8.602   2.624   2.492  1.3897  1.8497  1.1542
 2594THY    HP464835   8.521   2.702   2.625  2.0958  1.1729 -2.1088
 2594THY    CP364836   8.359   2.481   2.707  0.0644 -0.1077  0.2383
 2594THY    HP564837   8.274   2.415   2.691 -0.4195  0.3729  0.7970
 2594THY    HP664838   8.426   2.427   2.775  0.6151 -0.7857 -0.8067
 2594THY    HP764839   8.322   2.579   2.740  0.4094  1.2315 -2.9696
 2594THY    CA364840   8.314   2.639   2.413  0.5157 -0.3057 -0.0171
 2594THY    HA364841   8.358   2.726   2.462  1.9154 -0.5589 -0.7652
 2594THY    CA464842   8.229   2.658   2.299  0.0541  0.2831 -0.1126
 2594THY    HA464843   8.203   2.751   2.251 -0.3542 -0.9527 -2.4119
 2594THY    CA564844   8.191   2.545   2.231  0.2271 -0.1544  1.1684
 2594THY    CM164845   8.107   2.571   2.102 -0.0315  0.6885 -0.1466
 2594THY    HM164846   8.056   2.668   2.092 -0.2794  0.3491 -3.4296
 2594THY    HM264847   8.162   2.552   2.009  1.8618 -2.2660  1.4037
 2594THY    HM364848   8.018   2.506   2.106  0.3718  0.1896  1.4009
 2594THY    CA664849   8.215   2.421   2.289  0.7878  0.0098  0.6823
 2594THY    HA664850   8.176   2.331   2.241 -0.4617  0.4733  0.8134
 2595THY      O64851   0.279   0.106   6.728  0.7592  0.3813 -0.1824
 2595THY     HO64852   0.244   0.017   6.744  0.6841  0.2967 -0.8121
 2595THY    CA164853   0.393   0.113   6.794  0.3450  0.4572 -0.0774
 2595THY    CA264854   0.472   0.230   6.810  0.2391 -0.7025  0.4994
 2595THY    CP164855   0.409   0.354   6.763  0.1003  0.3477  0.3482
 2595THY    HP164856   0.345   0.332   6.676 -0.4128  0.7297  0.6287
 2595THY    CP264857   0.319   0.424   6.863  0.6423 -0.4985  0.5013
 2595THY    HP264858   0.263   0.506   6.817  3.8422  0.8885 -1.2377
 2595THY    HP364859   0.252   0.361   6.922 -0.0648 -1.0325 -0.8140
 2595THY    HP464860   0.394   0.465   6.931  2.3766  1.6816 -2.4947
 2595THY    CP364861   0.512   0.440   6.696 -0.0786 -0.2477 -0.0062
 2595THY    HP564862   0.549   0.390   6.606  0.9327 -1.7058  1.1742
 2595THY    HP664863   0.471   0.535   6.660  0.7310  1.0236  2.1714
 2595THY    HP764864   0.601   0.461   6.757 -0.9431 -0.3881  1.3725
 2595THY    CA364865   0.596   0.228   6.872 -0.4107  0.6983  0.2650
 2595THY    HA364866   0.647   0.318   6.906  0.6587 -0.6200  2.3749
 2595THY    CA464867   0.642   0.106   6.934  0.3045 -0.3456 -0.2597
 2595THY    HA464868   0.728   0.106   7.000  1.0760 -1.3758 -1.2218
 2595THY    CA564869   0.558  -0.008   6.926 -0.4020  0.4326 -0.4387
 2595THY    CM164870   0.591  -0.134   6.996  0.6275  0.9850  0.5099
 2595THY    HM164871   0.604  -0.120   7.104 -4.2667 -0.2144  1.5319
 2595THY    HM264872   0.507  -0.204   6.984 -0.0301  1.7271  0.6603
 2595THY    HM364873   0.676  -0.172   6.940 -1.8733  1.0549 -3.7521
 2595THY    CA664874   0.442  -0.010   6.850  0.3887  0.2494  0.1760
 2595THY    HA664875   0.390  -0.104   6.839 -1.0922  1.0738 -0.1019
 2596THY      O64876   5.570   1.677   1.546  0.2562  0.1069  0.0926
 2596THY     HO64877   5.630   1.602   1.532 -0.7700 -0.5877 -0.6919
 2596THY    CA164878   5.454   1.667   1.475 -0.0239 -0.2266  0.4789
 2596THY    CA264879   5.345   1.753   1.496 -0.1457 -0.3941  0.3645
 2596THY    CP164880   5.349   1.883   1.579 -0.5552  0.1770 -0.8247
 2596THY    HP164881   5.450   1.892   1.620 -1.8067 -0.8259  2.8679
 2596THY    CP264882   5.318   2.013   1.495  0.1808 -0.1400 -0.0232
 2596THY    HP264883   5.307   2.099   1.563 -0.6887 -1.5160  1.6725
 2596THY    HP364884   5.398   2.035   1.423  0.0239  2.7229  0.5385
 2596THY    HP464885   5.218   1.997   1.452  0.1626  3.3960 -1.6767
 2596THY    CP364886   5.259   1.866   1.696 -0.1368  0.1625 -0.1408
 2596THY    HP564887   5.156   1.844   1.666 -0.5313  0.3559  1.0003
 2596THY    HP664888   5.292   1.778   1.753 -0.3390 -0.4223 -0.9109
 2596THY    HP764889   5.257   1.955   1.760 -1.9884  0.3341 -0.3936
 2596THY    CA364890   5.226   1.733   1.425  0.5381  1.0731 -0.0531
 2596THY    HA364891   5.137   1.791   1.446  1.0572  1.9353 -0.1516
 2596THY    CA464892   5.209   1.613   1.349  0.0009 -0.1184  0.0732
 2596THY    HA464893   5.114   1.580   1.309  1.4947 -0.0559 -4.0400
 2596THY    CA564894   5.322   1.534   1.337  0.2389  0.2736 -0.1405
 2596THY    CM164895   5.310   1.418   1.247 -1.2006  0.5445  0.1035
 2596THY    HM164896   5.398   1.407   1.182 -1.9163  1.9129 -1.1572
 2596THY    HM264897   5.306   1.327   1.308  0.8593 -0.6944 -1.4325
 2596THY    HM364898   5.234   1.426   1.168  0.9648 -0.8937 -2.3185
 2596THY    CA664899   5.440   1.558   1.392 -0.5206  0.6899  0.2779
 2596THY    HA664900   5.530   1.500   1.375  1.0947  2.6072  1.7699
 2597THY      O64901   9.553   8.323   8.220  0.3202 -0.0965  0.2106
 2597THY     HO64902   9.633   8.331   8.165  0.9875 -1.3580  0.9506
 2597THY    CA164903   9.453   8.398   8.159 -0.4176  0.8750 -0.0379
 2597THY    CA264904   9.318   8.399   8.201 -0.6258  0.0483 -0.2405
 2597THY    CP164905   9.280   8.337   8.341 -0.4851 -0.3591  0.2346
 2597THY    HP164906   9.360   8.281   8.390 -2.6691 -2.5764  1.5100
 2597THY    CP264907   9.241   8.457   8.428 -0.6115 -0.5297  0.2591
 2597THY    HP264908   9.155   8.512   8.389 -0.9230 -1.5591 -0.5562
 2597THY    HP364909   9.228   8.434   8.534 -0.6274  0.2008  0.4210
 2597THY    HP464910   9.333   8.516   8.418  0.0944 -1.9345 -2.6202
 2597THY    CP364911   9.160   8.244   8.321 -0.2175 -0.3671 -0.1956
 2597THY    HP564912   9.131   8.189   8.411  1.2916 -0.7293  0.1065
 2597THY    HP664913   9.074   8.289   8.271 -0.4080 -2.4255 -1.8418
 2597THY    HP764914   9.185   8.166   8.249  0.0120 -0.6503  0.1835
 2597THY    CA364915   9.224   8.472   8.130  0.2347 -0.3566 -0.1696
 2597THY    HA364916   9.124   8.473   8.171  1.3125 -0.9056  2.6749
 2597THY    CA464917   9.258   8.532   8.013  0.3079  0.2543  0.5903
 2597THY    HA464918   9.172   8.564   7.955 -0.0398 -0.7138  0.5594
 2597THY    CA564919   9.385   8.509   7.958  0.0100 -0.9133  0.5749
 2597THY    CM164920   9.413   8.552   7.813  0.4680 -0.0688  0.3281
 2597THY    HM164921   9.517   8.573   7.787 -0.0315  1.4664 -0.5968
 2597THY    HM264922   9.396   8.471   7.741  3.0332 -3.0315  2.7934
 2597THY    HM364923   9.355   8.644   7.796 -2.8624 -2.0101  0.2688
 2597THY    CA664924   9.487   8.449   8.037  0.0518 -0.0605  0.4888
 2597THY    HA664925   9.585   8.434   7.993 -1.1551 -0.8052 -2.1529
 2598THY      O64926   2.251   0.782   4.325  0.1598 -0.5871 -0.2575
 2598THY     HO64927   2.325   0.800   4.386 -0.0536  0.9299 -0.4031
 2598THY    CA164928   2.273   0.665   4.276  0.1896  0.3784 -0.2709
 2598THY    CA264929   2.166   0.567   4.254 -0.0407 -0.1825  0.6041
 2598THY    CP164930   2.031   0.594   4.323 -0.1253  0.0988  0.1166
 2598THY    HP164931   2.015   0.700   4.344 -0.6220  0.0406  0.0446
 2598THY    CP264932   1.909   0.537   4.251 -0.3792  0.1676  0.3532
 2598THY    HP264933   1.891   0.430   4.263  0.2522 -0.0588 -0.5486
 2598THY    HP364934   1.826   0.595   4.291 -0.3288  0.1556  0.4760
 2598THY    HP464935   1.919   0.559   4.144 -0.6846 -2.6255 -0.3173
 2598THY    CP364936   2.031   0.531   4.468 -0.8283 -0.7083 -0.4937
 2598THY    HP564937   1.948   0.576   4.524  0.5194  1.5738 -0.1943
 2598THY    HP664938   2.025   0.422   4.470 -1.8738 -0.6580  1.5717
 2598THY    HP764939   2.125   0.564   4.513 -1.2465  0.3684 -0.3686
 2598THY    CA364940   2.188   0.453   4.177  1.2194  0.8675 -0.6090
 2598THY    HA364941   2.115   0.373   4.168  1.3722  0.6711 -0.1521
 2598THY    CA464942   2.319   0.432   4.138 -0.4355  0.1239 -0.7881
 2598THY    HA464943   2.340   0.343   4.079  1.5982  0.3665 -0.4756
 2598THY    CA564944   2.421   0.520   4.159 -0.2266 -0.5668  0.8122
 2598THY    CM164945   2.552   0.494   4.107 -0.8834 -0.8242  0.0650
 2598THY    HM164946   2.626   0.573   4.126 -1.3543 -0.9525  2.9338
 2598THY    HM264947   2.587   0.395   4.138 -3.7645 -2.0514 -0.2937
 2598THY    HM364948   2.541   0.488   3.998 -2.8748  2.4675 -0.0705
 2598THY    CA664949   2.397   0.644   4.226 -0.4896 -0.2410 -0.2450
 2598THY    HA664950   2.468   0.725   4.235 -1.1739  0.9520 -4.0002
 2599THY      O64951   9.908   4.439   1.249  0.1217 -0.5473 -0.1996
 2599THY     HO64952   9.949   4.505   1.190  1.0852  0.7084  1.7693
 2599THY    CA164953  10.004   4.362   1.297  0.4319 -0.5915  0.3180
 2599THY    CA264954  10.029   4.241   1.234 -0.2920  0.6246  0.4896
 2599THY    CP164955   9.938   4.185   1.116 -0.0487 -0.4071 -0.7533
 2599THY    HP164956   9.844   4.239   1.130  0.9995  0.6622  4.0666
 2599THY    CP264957  10.004   4.210   0.984 -0.0127  0.1826  0.0199
 2599THY    HP264958  10.033   4.316   0.976 -0.2362  0.2988  0.6892
 2599THY    HP364959  10.098   4.154   0.977  0.7662  0.8572  3.3726
 2599THY    HP464960   9.937   4.184   0.901 -0.4137 -1.4091  0.8223
 2599THY    CP364961   9.902   4.047   1.134  0.1482  0.6374 -0.0330
 2599THY    HP564962   9.983   3.978   1.107  0.1237 -0.5588  2.6222
 2599THY    HP664963   9.878   4.020   1.238  2.4501 -0.6888  0.2442
 2599THY    HP764964   9.812   4.027   1.076 -0.6673  0.6245  1.1882
 2599THY    CA364965  10.144   4.175   1.280  0.2152 -0.2842 -1.1174
 2599THY    HA364966  10.166   4.076   1.242  2.1302 -0.2263 -0.2569
 2599THY    CA464967  10.228   4.228   1.372 -0.0569  0.0279  0.3446
 2599THY    HA464968  10.313   4.166   1.399 -0.8165 -1.0562  0.3386
 2599THY    CA564969  10.199   4.351   1.430 -0.1655  0.3499  0.7731
 2599THY    CM164970  10.292   4.408   1.528 -0.4712  0.4053  0.3436
 2599THY    HM164971  10.269   4.360   1.623  0.3456 -1.3221 -0.2877
 2599THY    HM264972  10.398   4.389   1.511 -0.6338 -1.3980  1.1108
 2599THY    HM364973  10.272   4.515   1.544 -0.6366  0.4818 -0.3059
 2599THY    CA664974  10.084   4.419   1.392  0.2664 -0.4793  0.4630
 2599THY    HA664975  10.057   4.516   1.433 -0.9703  0.7269 -2.8589
 2600THY      O64976   6.108   8.957   4.916  0.4300 -0.2950 -1.6278
 2600THY     HO64977   6.186   8.906   4.946  0.9189 -1.2178 -4.2180
 2600THY    CA164978   6.064   9.034   5.019  0.7233 -0.2600  1.0564
 2600THY    CA264979   5.953   9.122   5.001 -0.0905  0.2757  0.0954
 2600THY    CP164980   5.868   9.123   4.880 -0.1402 -0.6596  0.3767
 2600THY    HP164981   5.926   9.076   4.799  0.7997  0.0224  0.6405
 2600THY    CP264982   5.742   9.038   4.887  0.3138  1.1677  1.0383
 2600THY    HP264983   5.678   9.098   4.953 -1.7494  1.2778 -0.9651
 2600THY    HP364984   5.686   9.032   4.793  0.9440 -2.4111  0.7507
 2600THY    HP464985   5.760   8.935   4.918 -1.9099  0.6874  0.8905
 2600THY    CP364986   5.848   9.263   4.826 -0.0808  0.1929  1.2847
 2600THY    HP564987   5.935   9.330   4.822 -0.6747  0.9693  1.0981
 2600THY    HP664988   5.815   9.259   4.721 -1.7542 -0.6760  1.8075
 2600THY    HP764989   5.766   9.310   4.881  1.1422  0.5766  2.8245
 2600THY    CA364990   5.900   9.194   5.107  0.3843 -0.3660 -0.0225
 2600THY    HA364991   5.805   9.245   5.101  0.6518  0.0168 -1.6101
 2600THY    CA464992   5.971   9.186   5.232 -0.0279  0.2716  0.7490
 2600THY    HA464993   5.951   9.249   5.318 -1.6702 -0.2688  0.8002
 2600THY    CA564994   6.083   9.105   5.246 -0.5847 -0.9933 -0.7107
 2600THY    CM164995   6.145   9.099   5.376 -0.1147 -0.0293  0.2775
 2600THY    HM164996   6.126   8.999   5.416 -4.9086  0.7879  0.6114
 2600THY    HM264997   6.251   9.125   5.373  0.1538 -1.1777 -1.6640
 2600THY    HM364998   6.102   9.173   5.445 -0.4094 -1.0299  1.1884
 2600THY    CA664999   6.131   9.035   5.135 -0.3438 -0.1526  0.7767
 2600THY    HA665000   6.214   8.966   5.138 -1.3801 -1.5438 -0.5513
 2601THY      O65001   5.938   6.496   0.554 -0.1894  0.1809 -0.1717
 2601THY     HO65002   5.916   6.560   0.624 -1.9457 -0.5037 -0.0438
 2601THY    CA165003   5.919   6.371   0.607 -0.4811  0.0772 -0.2145
 2601THY    CA265004   6.007   6.259   0.578 -0.1658  0.1094  0.4514
 2601THY    CP165005   6.147   6.279   0.518 -0.0803  0.1158  0.4755
 2601THY    HP165006   6.149   6.381   0.477 -0.4804 -0.1033 -0.1110
 2601THY    CP265007   6.249   6.282   0.633  0.4058 -0.0629 -0.7146
 2601THY    HP265008   6.245   6.189   0.690 -2.3671  0.9431  0.9551
 2601THY    HP365009   6.353   6.301   0.604  1.6530 -2.6387  1.6557
 2601THY    HP465010   6.216   6.360   0.703 -1.8715 -0.2926 -1.4804
 2601THY    CP365011   6.194   6.165   0.419  0.1631 -0.8401  0.2730
 2601THY    HP565012   6.147   6.175   0.320 -0.8823  0.1485  0.8465
 2601THY    HP665013   6.302   6.177   0.403  0.4100  2.0042  3.1512
 2601THY    HP765014   6.169   6.064   0.452 -0.3860 -1.4476 -1.8453
 2601THY    CA365015   5.969   6.129   0.637  0.0882 -0.2202 -0.2045
 2601THY    HA365016   6.023   6.035   0.627 -2.0369 -1.6219  0.7605
 2601THY    CA465017   5.852   6.110   0.709  0.5172 -0.3362  0.1059
 2601THY    HA465018   5.816   6.013   0.744 -1.7911 -0.1358 -1.4634
 2601THY    CA565019   5.769   6.223   0.739 -0.0968 -0.6817  0.1530
 2601THY    CM165020   5.637   6.197   0.812  0.2602  0.1560  0.5581
 2601THY    HM165021   5.618   6.090   0.822  0.4541  0.3253  3.6099
 2601THY    HM265022   5.641   6.247   0.909  0.3883  1.4621 -0.0964
 2601THY    HM365023   5.548   6.238   0.762  0.4195  1.3886  1.2441
 2601THY    CA665024   5.801   6.343   0.681  0.6879  0.8245  0.1190
 2601THY    HA665025   5.719   6.414   0.678 -1.4285 -1.5028 -1.4150
 2602THY      O65026   4.098   4.291   7.783 -0.7764  0.2262  0.0422
 2602THY     HO65027   4.107   4.230   7.858 -2.0732  0.1557  0.1749
 2602THY    CA165028   4.207   4.361   7.780  0.0263  0.6498 -0.0802
 2602THY    CA265029   4.256   4.405   7.657 -0.3630  0.1845  0.2072
 2602THY    CP165030   4.182   4.398   7.525  0.1175 -0.1550  0.3438
 2602THY    HP165031   4.075   4.414   7.540  0.3290  1.1241  0.6543
 2602THY    CP265032   4.222   4.492   7.412  0.1661 -0.1214  0.4105
 2602THY    HP265033   4.223   4.596   7.448  1.3315 -0.2076  0.6904
 2602THY    HP365034   4.321   4.462   7.374  0.2655  2.2135 -1.3486
 2602THY    HP465035   4.152   4.477   7.329  1.1015 -0.2741 -0.3678
 2602THY    CP365036   4.182   4.259   7.471 -0.3960  0.4354 -0.1112
 2602THY    HP565037   4.135   4.202   7.552 -1.2064 -0.6345 -1.3000
 2602THY    HP665038   4.124   4.258   7.378  0.3901 -0.5081 -0.5997
 2602THY    HP765039   4.282   4.217   7.456 -0.7119 -0.6159  0.6101
 2602THY    CA365040   4.383   4.478   7.667 -0.1738 -0.0919  0.0946
 2602THY    HA365041   4.424   4.520   7.576 -2.7725  2.3960 -0.0775
 2602THY    CA465042   4.445   4.494   7.796 -0.5783  0.7702  0.7655
 2602THY    HA465043   4.533   4.558   7.801 -0.1743  0.3598 -0.6488
 2602THY    CA565044   4.394   4.431   7.913 -0.7702  0.9974  1.0483
 2602THY    CM165045   4.459   4.427   8.046 -0.2683 -0.4864 -0.2320
 2602THY    HM165046   4.569   4.433   8.039 -0.2520 -1.6668 -1.2895
 2602THY    HM265047   4.430   4.519   8.099  2.0229 -0.2827  0.8046
 2602THY    HM365048   4.442   4.340   8.110  2.8865 -0.8497  0.3122
 2602THY    CA665049   4.271   4.370   7.902  0.1454 -0.0189 -0.0486
 2602THY    HA665050   4.229   4.341   7.998 -0.1935  1.0763  0.1375
 2603THY      O65051   1.020   6.878   6.908 -0.2247 -0.6272  0.0337
 2603THY     HO65052   1.081   6.894   6.981 -0.5455  1.5509 -0.1214
 2603THY    CA165053   1.098   6.804   6.830 -0.5238 -0.1708 -0.0151
 2603THY    CA265054   1.064   6.701   6.741 -0.5688  0.0270  0.2525
 2603THY    CP165055   0.922   6.655   6.723 -0.5042  0.2852  0.4652
 2603THY    HP165056   0.858   6.695   6.802  0.7414 -0.6709  2.0012
 2603THY    CP265057   0.872   6.706   6.590  0.4603 -0.5291  1.3081
 2603THY    HP265058   0.882   6.815   6.592  0.2360 -0.4600 -0.0542
 2603THY    HP365059   0.932   6.667   6.507  1.1956  0.6026  1.2906
 2603THY    HP465060   0.767   6.678   6.575  0.5879 -0.3038 -0.2100
 2603THY    CP365061   0.906   6.501   6.740  0.3070 -0.6124 -0.3258
 2603THY    HP565062   0.966   6.443   6.669  0.5526  0.3530 -0.9219
 2603THY    HP665063   0.921   6.467   6.844 -1.0578  0.7906  0.3807
 2603THY    HP765064   0.801   6.482   6.715 -0.0739 -1.0700  1.4211
 2603THY    CA365065   1.165   6.629   6.664 -0.3000  0.3861 -0.7857
 2603THY    HA365066   1.132   6.549   6.598 -0.6544 -0.0318 -0.1077
 2603THY    CA465067   1.302   6.662   6.682  0.0391  0.8323  0.0772
 2603THY    HA465068   1.383   6.610   6.632 -0.7336  0.1150 -0.4719
 2603THY    CA565069   1.335   6.768   6.767 -0.7032  0.7469 -0.2666
 2603THY    CM165070   1.480   6.793   6.798 -0.2659  0.2841 -0.4031
 2603THY    HM165071   1.548   6.709   6.779 -1.3045 -0.1099 -2.6580
 2603THY    HM265072   1.516   6.877   6.737 -0.1131  1.8207  1.6831
 2603THY    HM365073   1.488   6.830   6.901 -2.1253 -1.5014  0.4572
 2603THY    CA665074   1.233   6.846   6.837  0.1589  0.0578  0.6669
 2603THY    HA665075   1.261   6.922   6.909  1.3450 -0.1582  0.4566
 2604THY      O65076   9.739   9.569   9.289 -0.6005 -0.3578  0.2591
 2604THY     HO65077   9.754   9.548   9.196 -1.3712 -3.2242  0.6983
 2604THY    CA165078   9.859   9.563   9.358  0.5735  0.1012  0.3476
 2604THY    CA265079   9.864   9.597   9.494 -0.4105 -0.8715  0.0826
 2604THY    CP165080   9.738   9.612   9.576 -0.0267  0.5975 -0.5694
 2604THY    HP165081   9.662   9.650   9.506 -0.2564  0.6584 -0.2895
 2604THY    CP265082   9.690   9.470   9.615  0.2999  0.2241  0.2155
 2604THY    HP265083   9.688   9.407   9.526  0.9169  0.0120  0.3495
 2604THY    HP365084   9.763   9.429   9.686  0.4460 -2.0781 -1.1699
 2604THY    HP465085   9.589   9.472   9.658  0.2080 -0.9005  0.0774
 2604THY    CP365086   9.732   9.707   9.696  0.1196  0.7930 -0.2101
 2604THY    HP565087   9.630   9.743   9.718  0.0856 -0.1229  1.2572
 2604THY    HP665088   9.787   9.667   9.782 -1.1945  0.5455  0.5432
 2604THY    HP765089   9.789   9.794   9.661  0.0050  0.6314 -0.8033
 2604THY    CA365090   9.993   9.609   9.550  0.1365 -0.5522 -0.0223
 2604THY    HA365091  10.012   9.620   9.656  0.7604 -1.8524  0.0147
 2604THY    CA465092  10.109   9.590   9.480  0.2542  0.5414 -0.6017
 2604THY    HA465093  10.207   9.602   9.526 -0.1640 -0.3437  0.5631
 2604THY    CA565094  10.102   9.558   9.344 -0.3670 -0.0486  0.2923
 2604THY    CM165095  10.227   9.536   9.255  0.1909  0.2551 -0.2340
 2604THY    HM165096  10.300   9.617   9.259  0.7012 -0.1250 -1.2940
 2604THY    HM265097  10.285   9.455   9.301  0.4492  0.1535 -0.7311
 2604THY    HM365098  10.195   9.521   9.151 -0.2777  0.9204 -0.1898
 2604THY    CA665099   9.975   9.549   9.285  0.1719  0.0593 -0.0434
 2604THY    HA665100   9.975   9.536   9.178  0.9476 -0.2985 -0.0073
 2605THY      O65101   7.089   8.893   9.351 -0.2794 -0.2220 -0.1397
 2605THY     HO65102   7.145   8.896   9.430 -0.5204 -1.0763  0.0802
 2605THY    CA165103   6.965   8.857   9.393  0.1727 -0.0295  0.0874
 2605THY    CA265104   6.867   8.818   9.298  1.2236 -0.4980 -0.9189
 2605THY    CP165105   6.902   8.793   9.149 -0.5445  0.2897 -0.1790
 2605THY    HP165106   6.981   8.856   9.107  0.8747 -1.9716 -1.0848
 2605THY    CP265107   6.963   8.656   9.106  0.2110  1.0776 -0.5829
 2605THY    HP265108   6.997   8.649   9.002 -0.0679  0.4944 -0.6372
 2605THY    HP365109   7.052   8.643   9.168 -0.2561  1.6151  0.2265
 2605THY    HP465110   6.896   8.573   9.131  0.6767  0.7699 -0.3308
 2605THY    CP365111   6.785   8.826   9.049  0.5819 -0.4863  0.0803
 2605THY    HP565112   6.817   8.822   8.944 -1.2317 -1.5367 -0.4732
 2605THY    HP665113   6.697   8.765   9.073 -0.8402  0.4575 -2.3898
 2605THY    HP765114   6.754   8.930   9.061 -0.5721 -0.5508 -1.9374
 2605THY    CA365115   6.726   8.805   9.344 -0.1818  0.3235  0.4088
 2605THY    HA365116   6.644   8.775   9.280 -0.3978 -0.3086  0.9670
 2605THY    CA465117   6.692   8.829   9.483 -0.3043  0.3441 -0.0600
 2605THY    HA465118   6.594   8.808   9.524 -0.5120 -1.4903 -1.3865
 2605THY    CA565119   6.797   8.865   9.575  0.0023 -0.1662  0.8161
 2605THY    CM165120   6.763   8.869   9.717  0.0207 -1.1713 -0.2747
 2605THY    HM165121   6.838   8.925   9.774  0.6790 -3.0616  0.8221
 2605THY    HM265122   6.659   8.899   9.738  0.3724 -0.9795  1.3297
 2605THY    HM365123   6.773   8.765   9.751  0.8791 -1.0298 -0.0745
 2605THY    CA665124   6.926   8.870   9.529 -0.1189 -0.6311 -0.1746
 2605THY    HA665125   7.005   8.879   9.602 -0.8536 -1.3411  0.7266
 2606THY      O65126   5.399   5.450   5.477  0.1150  0.3302  0.4622
 2606THY     HO65127   5.423   5.388   5.548 -2.9346 -0.4560  0.9473
 2606THY    CA165128   5.318   5.381   5.396  0.2309 -0.1077  0.9237
 2606THY    CA265129   5.249   5.441   5.288  0.4814  0.7213  0.2617
 2606THY    CP165130   5.257   5.591   5.255  0.1235  0.1991  0.2506
 2606THY    HP165131   5.343   5.633   5.308 -0.3444  0.9821  0.4086
 2606THY    CP265132   5.283   5.618   5.097  0.1916  0.0097 -0.4239
 2606THY    HP265133   5.317   5.717   5.067  0.0217 -0.2705 -1.5920
 2606THY    HP365134   5.375   5.569   5.065 -0.4928 -0.6145 -1.4947
 2606THY    HP465135   5.194   5.591   5.038  0.2937 -0.2502 -0.4594
 2606THY    CP365136   5.146   5.677   5.298  0.0875  0.5802  0.4655
 2606THY    HP565137   5.098   5.650   5.393 -0.8505 -0.6803 -0.3262
 2606THY    HP665138   5.177   5.781   5.308 -0.3363  0.6886  0.6907
 2606THY    HP765139   5.072   5.667   5.218  2.0391 -0.6993 -1.2861
 2606THY    CA365140   5.158   5.362   5.219 -0.0849  0.0051  1.3113
 2606THY    HA365141   5.087   5.406   5.150 -0.5419  1.5497  2.7145
 2606THY    CA465142   5.158   5.225   5.234 -0.5194 -0.8592 -0.3445
 2606THY    HA465143   5.096   5.158   5.175  1.3881 -1.8369 -1.3495
 2606THY    CA565144   5.239   5.168   5.340 -0.3073 -0.2033  1.4257
 2606THY    CM165145   5.222   5.018   5.357 -0.4034  0.2634  0.0639
 2606THY    HM165146   5.288   4.964   5.288 -1.9686 -2.3738  0.5074
 2606THY    HM265147   5.257   4.999   5.459  0.9793  0.5942 -0.3131
 2606THY    HM365148   5.122   4.981   5.335 -0.0463  0.9331 -3.1548
 2606THY    CA665149   5.313   5.248   5.424  0.1404  0.1398 -0.0194
 2606THY    HA665150   5.382   5.198   5.492  0.0928 -1.0104 -0.7832
 2607THY      O65151   1.526   0.438   7.123  0.3879  0.1946 -0.0345
 2607THY     HO65152   1.500   0.360   7.069 -0.6662  0.3049  0.2807
 2607THY    CA165153   1.543   0.390   7.251 -0.3197 -0.2847  0.3867
 2607THY    CA265154   1.611   0.462   7.348  0.8944  0.3363 -0.2304
 2607THY    CP165155   1.677   0.599   7.315  0.5881 -0.8537 -0.3968
 2607THY    HP165156   1.698   0.603   7.207  1.7205 -1.0163 -0.1944
 2607THY    CP265157   1.571   0.718   7.333  0.1293 -0.0519  0.3440
 2607THY    HP265158   1.500   0.709   7.416  0.9611  1.7202  1.2890
 2607THY    HP365159   1.624   0.812   7.350 -2.0615  1.0830  1.2784
 2607THY    HP465160   1.503   0.735   7.249 -0.6954  2.4251  1.4259
 2607THY    CP365161   1.808   0.637   7.386  0.3936  0.3169  0.0575
 2607THY    HP565162   1.793   0.656   7.493 -0.9514  0.6481 -0.1648
 2607THY    HP665163   1.881   0.556   7.394  0.4032  0.4883  2.1769
 2607THY    HP765164   1.847   0.731   7.345 -1.8627  1.1412 -0.3824
 2607THY    CA365165   1.618   0.417   7.486 -0.3569 -0.7210  0.0304
 2607THY    HA365166   1.662   0.477   7.565 -1.8025 -0.2488  0.5140
 2607THY    CA465167   1.555   0.296   7.519  0.9107 -0.2713 -0.5131
 2607THY    HA465168   1.561   0.265   7.623 -2.0076 -0.2291 -0.2508
 2607THY    CA565169   1.486   0.220   7.430  0.2451 -0.7767 -0.5140
 2607THY    CM165170   1.429   0.092   7.471  0.1331  0.8888  0.3462
 2607THY    HM165171   1.490   0.004   7.449 -1.8441 -0.4347 -0.1691
 2607THY    HM265172   1.405   0.102   7.577 -0.3559 -1.4744  0.5021
 2607THY    HM365173   1.331   0.077   7.423  0.5672 -1.8752  0.2159
 2607THY    CA665174   1.491   0.260   7.288 -0.8884  0.1549  0.1954
 2607THY    HA665175   1.432   0.200   7.220  1.1306  0.0439 -1.5632
 2608THY      O65176   6.986   1.090   3.728 -0.1279 -0.0669  0.3027
 2608THY     HO65177   7.083   1.098   3.733  0.1229 -2.5916  1.4876
 2608THY    CA165178   6.939   0.978   3.774 -0.3210 -0.2429 -0.4808
 2608THY    CA265179   6.802   0.952   3.805  0.3163 -0.5231 -0.2158
 2608THY    CP165180   6.693   1.063   3.773  0.1432 -0.2629  0.0381
 2608THY    HP165181   6.725   1.130   3.693 -1.9279  0.3146 -0.3793
 2608THY    CP265182   6.556   1.015   3.730 -0.4585  0.0332  0.0259
 2608THY    HP265183   6.494   1.101   3.705  2.0564  1.7805 -0.5787
 2608THY    HP365184   6.569   0.956   3.638 -1.2350  0.1663 -0.1700
 2608THY    HP465185   6.507   0.949   3.802 -2.0975 -2.6449 -3.2421
 2608THY    CP365186   6.670   1.146   3.904 -0.6003  0.6030  0.4226
 2608THY    HP565187   6.596   1.226   3.891 -1.2451  0.0849  0.8814
 2608THY    HP665188   6.634   1.081   3.985 -2.0985 -0.6487 -1.1926
 2608THY    HP765189   6.768   1.193   3.916  0.1707 -1.1304  1.2988
 2608THY    CA365190   6.761   0.825   3.849 -0.3031  0.3992 -0.3851
 2608THY    HA365191   6.655   0.809   3.865  0.1237 -1.1123  1.3517
 2608THY    CA465192   6.860   0.721   3.864  0.8885  0.1282  0.9572
 2608THY    HA465193   6.829   0.622   3.898 -1.4992 -0.1629 -1.6814
 2608THY    CA565194   6.993   0.752   3.846 -0.6466 -0.5236  0.1952
 2608THY    CM165195   7.103   0.650   3.888  0.4297  0.7235  0.4244
 2608THY    HM165196   7.187   0.644   3.818  2.1565  1.2347  2.3823
 2608THY    HM265197   7.155   0.678   3.980  1.6753  1.1261 -0.3746
 2608THY    HM365198   7.071   0.547   3.905 -1.0874  0.8791 -1.1393
 2608THY    CA665199   7.024   0.875   3.798  0.1205  0.1398  0.0122
 2608THY    HA665200   7.129   0.899   3.783  0.6211 -0.8086  1.7845
 2609THY      O65201   2.321   0.474   3.374  1.2382  0.1334  0.1673
 2609THY     HO65202   2.379   0.463   3.452 -0.1669  0.9486  1.3753
 2609THY    CA165203   2.333   0.364   3.297 -0.1455  0.7555 -0.3069
 2609THY    CA265204   2.356   0.371   3.159  0.2910 -0.3447  0.5886
 2609THY    CP165205   2.373   0.511   3.095 -0.1473  0.2349 -0.2242
 2609THY    HP165206   2.368   0.586   3.175 -1.4336 -0.7386  0.6471
 2609THY    CP265207   2.513   0.526   3.040  0.0738  0.2630 -0.6472
 2609THY    HP265208   2.579   0.528   3.127 -1.8489  2.8084  0.8982
 2609THY    HP365209   2.544   0.436   2.985  0.1627 -0.4266  0.4844
 2609THY    HP465210   2.540   0.621   2.992 -1.3031  1.9885  1.7985
 2609THY    CP365211   2.270   0.549   2.985  0.6747  0.2621 -0.6008
 2609THY    HP565212   2.279   0.464   2.916 -0.6439 -0.4203  0.0141
 2609THY    HP665213   2.168   0.549   3.026  1.1366 -1.1174  0.6588
 2609THY    HP765214   2.293   0.645   2.939  1.1796 -0.5231 -2.0797
 2609THY    CA365215   2.369   0.254   3.081  0.1362 -0.3704  0.1194
 2609THY    HA365216   2.389   0.266   2.975  1.5990 -0.4405  0.3670
 2609THY    CA465217   2.348   0.131   3.144 -0.1241  0.2945  0.1011
 2609THY    HA465218   2.354   0.036   3.092 -0.3967  0.9485 -1.1737
 2609THY    CA565219   2.311   0.125   3.277 -0.1581  0.0139 -0.3282
 2609THY    CM165220   2.286  -0.012   3.340  0.9808 -0.2853  0.0275
 2609THY    HM165221   2.380  -0.064   3.361  1.1669 -0.7529 -1.8340
 2609THY    HM265222   2.240   0.003   3.439  0.9153  3.6299 -0.4099
 2609THY    HM365223   2.221  -0.070   3.274 -1.1374  1.6388  0.3123
 2609THY    CA665224   2.311   0.240   3.357 -0.4624  0.1332 -0.3313
 2609THY    HA665225   2.273   0.232   3.458 -3.6455 -0.3284 -1.4489
 2610THY      O65226   6.877   4.659   8.601 -0.1878 -0.7798  0.5489
 2610THY     HO65227   6.907   4.571   8.571  0.9232 -0.1640 -0.2127
 2610THY    CA165228   6.963   4.754   8.550 -0.2543 -0.1030 -0.3291
 2610THY    CA265229   6.943   4.892   8.566  0.1222  0.5597  0.5306
 2610THY    CP165230   6.831   4.943   8.653 -0.4301 -0.8460 -0.3631
 2610THY    HP165231   6.779   4.868   8.714  0.0770  0.2002  1.4050
 2610THY    CP265232   6.873   5.045   8.763 -0.5157 -0.8309  0.8880
 2610THY    HP265233   6.792   5.045   8.837 -0.2975 -2.7773  1.1722
 2610THY    HP365234   6.963   5.002   8.809 -0.4330 -0.2766  1.2617
 2610THY    HP465235   6.896   5.140   8.713 -0.1816 -1.0477  0.6282
 2610THY    CP365236   6.722   5.012   8.568  0.4011  0.8733  0.0216
 2610THY    HP565237   6.655   5.076   8.626  0.8067  0.2706  1.1848
 2610THY    HP665238   6.768   5.074   8.490  0.5384 -0.7604 -1.2535
 2610THY    HP765239   6.664   4.933   8.519  3.9291 -1.5161 -0.6793
 2610THY    CA365240   7.029   4.982   8.505 -0.0151 -0.4593 -0.4849
 2610THY    HA365241   7.006   5.087   8.520  2.9917  0.1684  0.2785
 2610THY    CA465242   7.140   4.940   8.432 -0.2843 -0.0584 -0.4878
 2610THY    HA465243   7.213   5.010   8.390 -2.0583  1.1904 -1.6338
 2610THY    CA565244   7.168   4.802   8.439 -0.2041  0.2819  0.5016
 2610THY    CM165245   7.302   4.766   8.384 -0.1733 -0.1687  0.3940
 2610THY    HM165246   7.319   4.658   8.390 -2.6982 -0.6428  0.1394
 2610THY    HM265247   7.329   4.804   8.285 -0.3169  0.3376  0.5462
 2610THY    HM365248   7.382   4.800   8.451  0.4291 -1.6964  0.4878
 2610THY    CA665249   7.083   4.711   8.494 -0.2463  0.3015 -0.0292
 2610THY    HA665250   7.116   4.608   8.502 -1.0538 -0.0094 -0.5748
 2611THY      O65251   1.846   8.847   9.022  0.1135  0.3533 -0.0192
 2611THY     HO65252   1.891   8.908   8.961 -1.4493  1.2289 -0.3472
 2611THY    CA165253   1.891   8.882   9.145  0.4838 -0.2183  0.1027
 2611THY    CA265254   1.925   8.791   9.248 -0.5284  0.0249 -0.2944
 2611THY    CP165255   1.905   8.632   9.227  0.4300  0.0587 -0.6346
 2611THY    HP165256   1.845   8.610   9.138  0.9289  0.3901 -1.0577
 2611THY    CP265257   2.037   8.557   9.211  0.5612  0.4652  0.8557
 2611THY    HP265258   2.045   8.456   9.169 -1.4454  0.0165  1.4583
 2611THY    HP365259   2.090   8.619   9.138 -1.1356  1.0963  0.0962
 2611THY    HP465260   2.099   8.566   9.301  0.3057 -1.8948  1.3521
 2611THY    CP365261   1.833   8.568   9.352 -0.4030 -0.8352  0.1773
 2611THY    HP565262   1.802   8.464   9.336 -0.4958 -0.5335 -2.0341
 2611THY    HP665263   1.909   8.560   9.430 -0.2158 -0.3917  0.0459
 2611THY    HP765264   1.749   8.631   9.384 -0.0103 -0.2218  0.0115
 2611THY    CA365265   1.982   8.847   9.367  0.3547  0.0008 -0.0862
 2611THY    HA365266   2.017   8.783   9.447  0.3821 -1.0117 -0.8877
 2611THY    CA465267   2.013   8.981   9.375  0.0571 -0.2352 -0.6874
 2611THY    HA465268   2.060   9.014   9.467 -0.4049 -0.1225 -0.4918
 2611THY    CA565269   1.987   9.069   9.268  0.0870 -0.4489  0.1822
 2611THY    CM165270   2.032   9.212   9.269  0.6893  0.1404  0.1285
 2611THY    HM165271   1.949   9.277   9.298 -0.4724 -1.8382  1.5402
 2611THY    HM265272   2.115   9.219   9.340  1.2187  0.9370 -0.5556
 2611THY    HM365273   2.077   9.242   9.173  0.9751  2.9245  1.0500
 2611THY    CA665274   1.914   9.018   9.161  0.0928 -0.2737  0.3627
 2611THY    HA665275   1.890   9.081   9.076 -2.7422 -1.3986  0.2240
 2612THY      O65276   4.694   5.139   1.326 -0.0941  0.4267 -0.0997
 2612THY     HO65277   4.606   5.099   1.336 -0.4044  0.3409 -2.5528
 2612THY    CA165278   4.655   5.265   1.285 -0.1066  0.4630  0.9494
 2612THY    CA265279   4.744   5.351   1.227  0.1652 -0.6292  0.5863
 2612THY    CP165280   4.891   5.312   1.199 -0.7831 -0.4056  0.3328
 2612THY    HP165281   4.893   5.221   1.139 -1.6948  0.2840 -0.7860
 2612THY    CP265282   4.968   5.403   1.109  0.4924  0.5537 -0.6497
 2612THY    HP265283   4.923   5.413   1.010 -0.6663 -2.3859 -0.5263
 2612THY    HP365284   4.989   5.505   1.144  0.1941 -0.1932  1.9855
 2612THY    HP465285   5.066   5.354   1.104  0.8211  0.8909  1.3051
 2612THY    CP365286   4.981   5.297   1.328  0.7951 -1.0591 -0.3382
 2612THY    HP565287   4.940   5.240   1.411 -0.9278  2.8291  1.7373
 2612THY    HP665288   5.083   5.261   1.307  1.6590  1.5909 -1.1163
 2612THY    HP765289   4.997   5.393   1.378 -0.4751 -0.8052 -0.3975
 2612THY    CA365290   4.702   5.480   1.191  0.2899  0.4501 -0.0353
 2612THY    HA365291   4.769   5.551   1.144  2.5049  0.0791  2.3412
 2612THY    CA465292   4.561   5.512   1.210 -0.2082 -0.8538  0.4540
 2612THY    HA465293   4.521   5.610   1.191 -1.5207 -1.4287  0.1819
 2612THY    CA565294   4.464   5.413   1.256 -0.2755 -0.4808 -0.2341
 2612THY    CM165295   4.314   5.439   1.268  0.5832  0.3899  0.2842
 2612THY    HM165296   4.267   5.521   1.213 -1.1069  0.1295  1.2719
 2612THY    HM265297   4.258   5.348   1.239  0.6977  0.9918 -2.0403
 2612THY    HM365298   4.287   5.472   1.369 -0.0629  0.4059  0.1093
 2612THY    CA665299   4.508   5.288   1.300 -0.3578 -0.0116  0.0534
 2612THY    HA665300   4.436   5.219   1.346  0.9628 -1.0423  0.6534
 2613THY      O65301   2.216   0.128   7.408 -0.1414  0.1181  0.2343
 2613THY     HO65302   2.281   0.154   7.340  0.7509 -0.0294  1.0143
 2613THY    CA165303   2.096   0.165   7.359 -0.3792 -0.1308 -0.0568
 2613THY    CA265304   1.977   0.140   7.432  0.7576  0.3077  0.4938
 2613THY    CP165305   1.975   0.055   7.556  0.9457  0.2042 -0.5962
 2613THY    HP165306   2.071   0.057   7.609 -0.0443  1.4510  1.2723
 2613THY    CP265307   1.876   0.106   7.658  0.0966  0.1547  0.1935
 2613THY    HP265308   1.875   0.214   7.677 -0.6405  0.2757 -0.4954
 2613THY    HP365309   1.772   0.081   7.631  0.6382 -0.2769 -1.6360
 2613THY    HP465310   1.895   0.055   7.753  1.6135 -1.5392 -0.9579
 2613THY    CP365311   1.954  -0.081   7.510 -0.0816  0.5374 -0.5453
 2613THY    HP565312   2.030  -0.116   7.440  1.2321  2.9136 -0.4013
 2613THY    HP665313   1.951  -0.148   7.597  0.6544  3.0533  1.5450
 2613THY    HP765314   1.854  -0.090   7.466 -0.9521  0.5922  1.3160
 2613THY    CA365315   1.858   0.181   7.360  0.1844 -0.5631  0.7236
 2613THY    HA365316   1.756   0.169   7.394  0.0806  0.9045  0.9636
 2613THY    CA465317   1.871   0.261   7.241 -0.0116  0.9919  0.0102
 2613THY    HA465318   1.776   0.295   7.200 -2.0938 -1.6260  2.2569
 2613THY    CA565319   1.990   0.296   7.185 -0.6408  0.4007  0.1655
 2613THY    CM165320   1.998   0.380   7.059 -0.0020  0.0031 -0.3030
 2613THY    HM165321   1.995   0.316   6.970  1.7886  0.7357 -0.9349
 2613THY    HM265322   1.908   0.443   7.057 -0.1746 -0.1488 -3.8431
 2613THY    HM365323   2.087   0.444   7.060  0.9043 -1.2062 -1.2887
 2613THY    CA665324   2.109   0.242   7.239  0.2973 -0.2854 -0.1556
 2613THY    HA665325   2.201   0.263   7.186  0.1052  0.0786 -0.3476
 2614THY      O65326   6.160   1.672   0.371  0.2049  0.2325 -0.0836
 2614THY     HO65327   6.213   1.743   0.331  1.6063 -0.0752  1.1389
 2614THY    CA165328   6.051   1.730   0.416  0.0109  0.1254  0.6719
 2614THY    CA265329   5.952   1.662   0.488  0.1130  0.2324  0.3246
 2614THY    CP165330   5.973   1.516   0.531 -0.1901 -0.6069  0.2152
 2614THY    HP165331   6.051   1.472   0.468 -0.5064  0.8363 -1.2451
 2614THY    CP265332   6.027   1.510   0.679 -0.4132 -0.1346 -0.7251
 2614THY    HP265333   6.043   1.406   0.707  2.5298  0.4216  0.0167
 2614THY    HP365334   6.124   1.559   0.689 -0.3025 -0.6429  1.1497
 2614THY    HP465335   5.952   1.555   0.745  1.0000 -1.1766  1.7318
 2614THY    CP365336   5.843   1.433   0.528 -0.7099 -0.5107 -0.6649
 2614THY    HP565337   5.879   1.331   0.545  0.7880  0.3490  2.0029
 2614THY    HP665338   5.776   1.455   0.612  0.3896  0.3381  0.0235
 2614THY    HP765339   5.784   1.436   0.435 -0.9504 -3.0637 -0.6531
 2614THY    CA365340   5.831   1.727   0.525  0.1996 -0.2933 -0.4227
 2614THY    HA365341   5.757   1.680   0.590 -0.6534 -0.4704 -1.4828
 2614THY    CA465342   5.808   1.862   0.481 -0.1107 -0.0642 -0.0835
 2614THY    HA465343   5.714   1.913   0.502 -2.6028 -3.6315 -1.5006
 2614THY    CA565344   5.904   1.922   0.396  0.2088 -0.1292  0.5786
 2614THY    CM165345   5.882   2.065   0.333  0.2276 -0.5121  0.1020
 2614THY    HM165346   5.809   2.129   0.385 -1.6695 -0.0567 -2.8399
 2614THY    HM265347   5.974   2.124   0.330 -0.0062 -0.1141  0.4493
 2614THY    HM365348   5.847   2.057   0.229 -1.7762  1.7307  0.5150
 2614THY    CA665349   6.022   1.855   0.364 -0.2956 -0.0561  0.2616
 2614THY    HA665350   6.095   1.902   0.299 -1.1767  1.5627  0.3892
 2615THY      O65351   5.540   2.143   2.309  0.1588  0.0235 -0.1374
 2615THY     HO65352   5.630   2.113   2.288  0.4551  2.5949 -3.5047
 2615THY    CA165353   5.562   2.271   2.347  0.1893  0.2758  0.4745
 2615THY    CA265354   5.486   2.368   2.284  0.2427 -1.2484 -0.0898
 2615THY    CP165355   5.370   2.331   2.193 -0.2762 -0.4225  0.4097
 2615THY    HP165356   5.333   2.235   2.231  0.2378 -0.0923  1.8517
 2615THY    CP265357   5.247   2.433   2.208 -0.7197 -0.5193  0.8289
 2615THY    HP265358   5.159   2.380   2.170 -0.6356  1.2756 -2.1077
 2615THY    HP365359   5.235   2.453   2.315 -3.4376  0.4241  0.4162
 2615THY    HP465360   5.279   2.518   2.147 -0.2162  0.2300  2.0937
 2615THY    CP365361   5.416   2.314   2.043  0.1856 -0.6018 -0.6449
 2615THY    HP565362   5.428   2.409   1.989  1.9810 -1.2647 -1.4868
 2615THY    HP665363   5.514   2.265   2.041  1.0769  1.0143  0.6341
 2615THY    HP765364   5.350   2.250   1.983  2.4524 -0.6825 -3.2590
 2615THY    CA365365   5.511   2.507   2.318  0.0793  0.2155  0.1265
 2615THY    HA365366   5.453   2.584   2.268 -1.2622 -0.6178  0.3676
 2615THY    CA465367   5.624   2.532   2.403  0.2686 -0.0256  0.2612
 2615THY    HA465368   5.653   2.633   2.429  1.4931 -0.6359  1.3516
 2615THY    CA565369   5.685   2.432   2.470  0.3243  0.2918  0.1245
 2615THY    CM165370   5.805   2.462   2.562  0.1983  0.0695 -0.5150
 2615THY    HM165371   5.836   2.389   2.638  1.7931  0.1364 -1.0695
 2615THY    HM265372   5.895   2.497   2.511  1.4177  1.2303  2.1865
 2615THY    HM365373   5.779   2.552   2.620  0.4135 -0.7012  0.8311
 2615THY    CA665374   5.660   2.304   2.436  0.5271  0.0586  0.9341
 2615THY    HA665375   5.716   2.223   2.481  1.1644  0.5788  1.0896
 2616THY      O65376   1.045   3.712   3.845 -0.5482 -0.1622 -0.3365
 2616THY     HO65377   1.024   3.618   3.827 -1.7715 -0.0891  0.5688
 2616THY    CA165378   1.174   3.737   3.844 -0.6759  0.8464 -0.1876
 2616THY    CA265379   1.225   3.827   3.932  0.0586  1.1861 -0.1327
 2616THY    CP165380   1.140   3.922   4.017  0.7288  0.2333 -0.1004
 2616THY    HP165381   1.048   3.871   4.048  0.7299  0.5367  0.4112
 2616THY    CP265382   1.195   3.948   4.155  0.5133  0.0639  1.2280
 2616THY    HP265383   1.296   3.989   4.147  0.3274  0.1209 -2.0548
 2616THY    HP365384   1.130   4.015   4.214 -0.9729  0.0874 -0.3570
 2616THY    HP465385   1.195   3.857   4.216  1.1862  0.0928  1.2760
 2616THY    CP365386   1.096   4.048   3.941  0.2031 -0.2528 -0.8041
 2616THY    HP565387   1.039   4.110   4.011 -1.3378 -1.2608 -1.1036
 2616THY    HP665388   1.180   4.106   3.902  2.6307 -1.3444  2.4208
 2616THY    HP765389   1.031   4.026   3.855 -0.0525  1.4404 -1.0789
 2616THY    CA365390   1.368   3.845   3.932  0.3474  0.5004 -0.2593
 2616THY    HA365391   1.413   3.922   3.993  0.8599 -0.2614  0.3291
 2616THY    CA465392   1.449   3.755   3.860 -0.1037  0.8061  0.2617
 2616THY    HA465393   1.557   3.765   3.858  0.0667 -0.5381  1.3105
 2616THY    CA565394   1.392   3.659   3.775 -0.1201  0.7136  0.0883
 2616THY    CM165395   1.476   3.561   3.707  0.1966  0.1644  0.7951
 2616THY    HM165396   1.520   3.605   3.617 -0.9663 -0.3199 -0.0247
 2616THY    HM265397   1.557   3.537   3.778  1.0916 -0.4887 -0.4165
 2616THY    HM365398   1.427   3.469   3.675  0.6963  0.6647 -1.6224
 2616THY    CA665399   1.249   3.646   3.765  1.0852 -0.9093 -0.0066
 2616THY    HA665400   1.197   3.571   3.705 -0.1669 -1.0922  1.2620
 2617THY      O65401   0.460   6.846   4.429 -0.1179  0.0254 -0.5504
 2617THY     HO65402   0.410   6.835   4.512 -1.4570 -1.3096 -1.5042
 2617THY    CA165403   0.423   6.738   4.358  0.3326 -0.1926 -0.8288
 2617THY    CA265404   0.480   6.708   4.231 -0.6683 -0.1432 -0.0664
 2617THY    CP165405   0.571   6.812   4.158 -0.1817 -0.2795 -0.7378
 2617THY    HP165406   0.589   6.900   4.220  2.4487 -0.4176 -1.2155
 2617THY    CP265407   0.709   6.753   4.125  0.0818 -0.0042  0.4241
 2617THY    HP265408   0.757   6.723   4.219  3.3280  2.2138 -0.3492
 2617THY    HP365409   0.686   6.669   4.059 -0.0025 -0.1833  0.6788
 2617THY    HP465410   0.787   6.823   4.093 -0.1981 -0.5909 -1.6889
 2617THY    CP365411   0.513   6.856   4.020  0.0425  0.0499  0.3573
 2617THY    HP565412   0.573   6.940   3.985 -1.0313  0.3621 -0.8119
 2617THY    HP665413   0.519   6.769   3.954  0.5717 -0.3455  0.9209
 2617THY    HP765414   0.406   6.872   4.038 -0.7497 -2.9427 -1.0732
 2617THY    CA365415   0.454   6.580   4.176 -0.0644  0.4275 -0.7593
 2617THY    HA365416   0.484   6.549   4.076 -1.9649 -2.5699 -0.5441
 2617THY    CA465417   0.370   6.490   4.247  0.4631 -0.4059  0.3539
 2617THY    HA465418   0.354   6.392   4.202  0.6047 -0.7334  0.9954
 2617THY    CA565419   0.314   6.519   4.369  0.2877 -0.2993  0.5531
 2617THY    CM165420   0.235   6.418   4.440  0.7813  0.5220 -1.0814
 2617THY    HM165421   0.129   6.445   4.438  0.1551 -1.5001  0.9785
 2617THY    HM265422   0.238   6.328   4.378  1.9315  0.5560 -1.1023
 2617THY    HM365423   0.279   6.391   4.536  1.0724 -2.1871 -1.8862
 2617THY    CA665424   0.353   6.637   4.425 -0.0284  0.6568 -0.1651
 2617THY    HA665425   0.325   6.661   4.527 -0.8583  0.0074 -0.2349
 2618THY      O65426   0.027   6.883   9.261  0.0574  0.7065 -0.2283
 2618THY     HO65427  -0.008   6.814   9.202  0.9505  0.1054 -0.0702
 2618THY    CA165428   0.157   6.857   9.259  0.3637  1.0728  0.6391
 2618THY    CA265429   0.254   6.949   9.289  0.0795 -0.6712  0.2243
 2618THY    CP165430   0.214   7.097   9.328 -0.5396 -0.8573  0.4215
 2618THY    HP165431   0.132   7.082   9.399 -1.2162  0.6292 -0.0001
 2618THY    CP265432   0.321   7.178   9.410 -0.7336 -0.3391 -0.1243
 2618THY    HP265433   0.268   7.266   9.447  0.1748 -0.0722  0.6018
 2618THY    HP365434   0.345   7.125   9.503  0.8158  0.6043  0.0540
 2618THY    HP465435   0.411   7.210   9.356  0.4719 -1.2499  1.2438
 2618THY    CP365436   0.166   7.186   9.213 -0.5294 -0.1694  0.1687
 2618THY    HP565437   0.075   7.150   9.163 -0.5648  1.7742 -1.2479
 2618THY    HP665438   0.144   7.290   9.238 -1.5605  0.3090 -2.3904
 2618THY    HP765439   0.252   7.190   9.144 -0.6016 -2.0980 -0.1120
 2618THY    CA365440   0.395   6.904   9.299  0.2356  0.1539  0.1088
 2618THY    HA365441   0.474   6.974   9.324  0.4258 -0.2415  0.6458
 2618THY    CA465442   0.428   6.770   9.276  0.1303  0.4428 -0.0059
 2618THY    HA465443   0.529   6.733   9.287 -0.7935 -1.6581  2.6199
 2618THY    CA565444   0.327   6.682   9.242  0.3227 -0.5777 -0.5585
 2618THY    CM165445   0.365   6.542   9.216 -0.0612 -0.1331  0.1554
 2618THY    HM165446   0.377   6.477   9.303 -2.7574 -0.0768  0.6367
 2618THY    HM265447   0.288   6.494   9.155  1.6820 -0.7282 -1.6932
 2618THY    HM365448   0.455   6.530   9.154 -0.7482  2.1230 -1.4108
 2618THY    CA665449   0.194   6.722   9.241  0.1944 -0.3525  0.0040
 2618THY    HA665450   0.122   6.647   9.210 -0.9827  1.0857 -0.9514
 2619THY      O65451   9.424   0.163   1.759 -0.9003  0.1366 -0.0078
 2619THY     HO65452   9.513   0.124   1.760 -1.2637 -0.8245 -1.3661
 2619THY    CA165453   9.418   0.222   1.638  0.6992 -0.0058 -0.0676
 2619THY    CA265454   9.301   0.289   1.594 -0.2004  0.1870  0.2825
 2619THY    CP165455   9.188   0.319   1.696  0.2671 -0.1596  0.4936
 2619THY    HP165456   9.238   0.327   1.793 -0.0811 -1.2488  0.7740
 2619THY    CP265457   9.112   0.453   1.662 -0.0021 -0.1864  0.7688
 2619THY    HP265458   9.034   0.451   1.585 -3.6440 -0.4296  4.1224
 2619THY    HP365459   9.062   0.488   1.753  1.9892 -0.0299  1.8446
 2619THY    HP465460   9.192   0.523   1.633  0.4187 -1.1111 -0.3902
 2619THY    CP365461   9.087   0.197   1.712 -0.0053  0.0193  0.2900
 2619THY    HP565462   9.137   0.109   1.756 -1.5892 -0.7103  0.6963
 2619THY    HP665463   8.999   0.222   1.772 -0.3365 -1.1388  0.3078
 2619THY    HP765464   9.047   0.166   1.615 -0.6651 -0.8588  0.8305
 2619THY    CA365465   9.311   0.334   1.454  0.1329  0.7703  0.1648
 2619THY    HA365466   9.229   0.383   1.403 -1.0237 -1.7198 -0.5293
 2619THY    CA465467   9.421   0.304   1.376 -1.3803  0.2533  0.1642
 2619THY    HA465468   9.429   0.351   1.279  1.5509  3.4416  1.7402
 2619THY    CA565469   9.534   0.232   1.429  0.6300  0.3258 -0.6842
 2619THY    CM165470   9.654   0.214   1.346  0.6615  0.0019  0.4202
 2619THY    HM165471   9.631   0.266   1.253  0.3463 -0.9241 -0.0389
 2619THY    HM265472   9.740   0.268   1.385  0.6468  0.7435 -0.5358
 2619THY    HM365473   9.685   0.112   1.319 -0.9721 -1.1126  2.4413
 2619THY    CA665474   9.529   0.190   1.560  0.7012 -0.2172  0.2313
 2619THY    HA665475   9.614   0.132   1.596  0.1171  0.0388  2.0814
 2620THY      O65476   4.635   6.710   7.524  0.6164  0.4228  0.2945
 2620THY     HO65477   4.625   6.742   7.433 -0.5179  1.7599  0.8666
 2620THY    CA165478   4.598   6.583   7.525 -0.0727 -0.2184 -0.0290
 2620THY    CA265479   4.645   6.494   7.620  0.6740  0.5920  0.6427
 2620THY    CP165480   4.739   6.530   7.728 -0.8632  0.4414 -0.1460
 2620THY    HP165481   4.790   6.625   7.711 -0.1597  0.1631  0.3518
 2620THY    CP265482   4.659   6.552   7.851  0.5018 -0.0343 -0.2847
 2620THY    HP265483   4.712   6.581   7.943 -0.9713 -1.1983  0.9764
 2620THY    HP365484   4.588   6.635   7.840 -0.9358 -0.9203  1.6871
 2620THY    HP465485   4.602   6.465   7.885 -0.9640 -0.0120 -2.5031
 2620THY    CP365486   4.844   6.425   7.766 -0.1535 -0.0471 -0.3712
 2620THY    HP565487   4.884   6.384   7.672  3.7940 -0.3968  1.2499
 2620THY    HP665488   4.910   6.479   7.835  0.5189 -0.2100 -0.8791
 2620THY    HP765489   4.807   6.333   7.812 -1.1538 -1.2163 -3.3268
 2620THY    CA365490   4.595   6.358   7.604  0.1462  0.1124  0.3675
 2620THY    HA365491   4.617   6.290   7.686 -0.6811  0.3226  0.7748
 2620THY    CA465492   4.495   6.320   7.508 -0.4354  0.5226 -0.3699
 2620THY    HA465493   4.453   6.221   7.515 -0.4781  0.6079  0.8543
 2620THY    CA565494   4.450   6.411   7.426 -0.0533  0.2084  0.5204
 2620THY    CM165495   4.345   6.386   7.328  0.6915  0.4465  0.1342
 2620THY    HM165496   4.260   6.445   7.365  0.6492  0.4226  0.0740
 2620THY    HM265497   4.374   6.423   7.229 -1.7260  1.5083 -0.2459
 2620THY    HM365498   4.318   6.280   7.321 -0.5788  0.6641  1.2108
 2620THY    CA665499   4.498   6.541   7.438 -0.2415 -0.4831  0.2768
 2620THY    HA665500   4.463   6.620   7.373 -0.6264  2.1031  3.3426
 2621THY      O65501   2.076   9.130   3.893  0.6674 -0.0698  0.0015
 2621THY     HO65502   2.168   9.135   3.922  0.3610  1.8463  0.7413
 2621THY    CA165503   2.075   9.220   3.790  0.7555  0.2451  0.6076
 2621THY    CA265504   1.955   9.244   3.713 -0.4688 -0.3740 -0.4653
 2621THY    CP165505   1.825   9.155   3.747 -0.4872  0.3181  0.6777
 2621THY    HP165506   1.818   9.133   3.854 -1.8422  0.1857  0.5732
 2621THY    CP265507   1.699   9.234   3.732 -0.2033 -0.5830  0.2924
 2621THY    HP265508   1.688   9.309   3.810  1.1362 -0.3059  0.2302
 2621THY    HP365509   1.685   9.273   3.630 -0.5019 -1.0593  0.1475
 2621THY    HP465510   1.627   9.154   3.753 -0.5421 -0.5902 -0.8443
 2621THY    CP365511   1.819   9.021   3.670  1.0838 -0.8784 -0.4850
 2621THY    HP565512   1.919   8.978   3.657  1.4761 -0.7566  1.6568
 2621THY    HP665513   1.746   8.964   3.728  1.7976 -3.2626 -1.8155
 2621THY    HP765514   1.775   9.034   3.571  0.2970 -1.1889 -0.1865
 2621THY    CA365515   1.961   9.341   3.616 -0.1487  0.5053  0.8546
 2621THY    HA365516   1.878   9.364   3.551  0.7634  1.7920  0.0859
 2621THY    CA465517   2.080   9.411   3.590  0.0785 -0.1100  0.1391
 2621THY    HA465518   2.085   9.470   3.499 -0.4636 -0.0899  0.1202
 2621THY    CA565519   2.196   9.385   3.666  0.2407  0.5117  0.5467
 2621THY    CM165520   2.330   9.458   3.645  0.0989 -0.4839  0.2492
 2621THY    HM165521   2.391   9.404   3.571  1.8471 -0.2714  1.4593
 2621THY    HM265522   2.308   9.559   3.610 -1.6548 -1.0621 -0.4217
 2621THY    HM365523   2.379   9.464   3.743 -1.2595  0.8720  0.8818
 2621THY    CA665524   2.191   9.296   3.765 -1.1130  0.2275 -0.6958
 2621THY    HA665525   2.279   9.279   3.825 -0.4461 -0.0125 -1.7153
 2622THY      O65526   0.830   7.437   6.876  0.0592 -0.3888 -0.6841
 2622THY     HO65527   0.762   7.368   6.884 -0.7455  0.5575  1.7037
 2622THY    CA165528   0.901   7.414   6.757 -0.0737 -0.4192 -0.7161
 2622THY    CA265529   0.949   7.515   6.669  0.0519  0.6263  0.0418
 2622THY    CP165530   0.890   7.654   6.689 -0.0860  0.4208 -0.9000
 2622THY    HP165531   0.861   7.666   6.795  0.5205 -0.8160 -0.5779
 2622THY    CP265532   0.987   7.764   6.652 -0.3744  0.2077 -0.0167
 2622THY    HP265533   1.083   7.761   6.705  0.3180  0.2748 -1.2177
 2622THY    HP365534   1.018   7.769   6.546  1.4437 -0.3391  0.4418
 2622THY    HP465535   0.947   7.863   6.680  1.7562  0.6455  1.7972
 2622THY    CP365536   0.769   7.680   6.607 -0.0140 -0.0604  0.2403
 2622THY    HP565537   0.781   7.662   6.499 -2.7464 -2.5422  0.2245
 2622THY    HP665538   0.695   7.611   6.648 -0.1316  0.2003  0.4673
 2622THY    HP765539   0.723   7.779   6.619  0.4676  0.1624  0.2639
 2622THY    CA365540   1.027   7.481   6.551  0.0870 -0.7765  0.3174
 2622THY    HA365541   1.045   7.558   6.476 -1.3625  0.8241  1.5296
 2622THY    CA465542   1.053   7.342   6.520  0.0476  0.1401  0.1878
 2622THY    HA465543   1.095   7.310   6.426 -1.1451  1.7654 -0.9498
 2622THY    CA565544   1.019   7.240   6.614  0.5154  0.1688 -0.3473
 2622THY    CM165545   1.031   7.092   6.595 -0.1221  0.8471 -0.1654
 2622THY    HM165546   1.047   7.052   6.495 -0.2949 -1.5692  0.7248
 2622THY    HM265547   1.109   7.049   6.659  0.4491  1.5120 -0.3987
 2622THY    HM365548   0.943   7.044   6.638 -1.0989  2.0411 -0.7662
 2622THY    CA665549   0.946   7.283   6.730  0.8066  0.0591  0.1679
 2622THY    HA665550   0.920   7.200   6.795  1.0182 -1.7509 -1.9488
 2623THY      O65551   1.214   1.909   6.548 -0.4946  0.0810  0.0842
 2623THY     HO65552   1.243   1.958   6.470 -2.9165  0.0361 -0.9321
 2623THY    CA165553   1.081   1.934   6.544 -0.4701  0.1353  0.1797
 2623THY    CA265554   0.990   1.923   6.650  0.1618  0.5476  0.4051
 2623THY    CP165555   1.037   1.877   6.791 -0.0172  0.0109  0.1407
 2623THY    HP165556   1.140   1.840   6.783  0.8068  0.5314  5.0034
 2623THY    CP265557   1.059   1.996   6.886  0.4306 -0.3176  0.5146
 2623THY    HP265558   1.124   2.072   6.841 -0.8710 -0.3697 -1.5880
 2623THY    HP365559   0.967   2.056   6.889  0.9221  0.7207 -2.3105
 2623THY    HP465560   1.108   1.963   6.978 -3.0678 -1.3842  2.1778
 2623THY    CP365561   0.969   1.753   6.850  0.5546 -0.0949 -0.0652
 2623THY    HP565562   1.029   1.700   6.925  0.6740 -1.4109 -1.0504
 2623THY    HP665563   0.880   1.779   6.909  1.4873 -1.6354  2.1631
 2623THY    HP765564   0.934   1.675   6.781 -0.0871  0.0149  0.1351
 2623THY    CA365565   0.855   1.952   6.628  0.5122 -0.2481  0.3630
 2623THY    HA365566   0.778   1.953   6.704  0.7159  2.7507  0.6644
 2623THY    CA465567   0.820   1.986   6.500  0.1093 -0.0453 -0.5043
 2623THY    HA465568   0.714   2.002   6.480  0.0932 -0.1132 -0.4753
 2623THY    CA565569   0.912   1.991   6.395 -0.0113 -0.2658 -0.0997
 2623THY    CM165570   0.861   2.036   6.255 -0.3925 -0.1260 -0.1363
 2623THY    HM165571   0.947   2.045   6.187 -0.4763 -0.3444 -0.2724
 2623THY    HM265572   0.806   1.951   6.213  0.5526 -2.1871  2.4896
 2623THY    HM365573   0.814   2.134   6.268  1.1112  0.3197  2.6285
 2623THY    CA665574   1.045   1.976   6.414  0.0676  0.3522  1.0836
 2623THY    HA665575   1.112   1.975   6.329 -1.3236 -0.7737 -0.0493
 2624THY      O65576   4.791   7.655   7.165 -0.3437 -0.4430  0.0172
 2624THY     HO65577   4.876   7.681   7.205 -1.0662 -1.6515  2.5622
 2624THY    CA165578   4.784   7.530   7.202  0.4507  0.4378 -0.2453
 2624THY    CA265579   4.660   7.483   7.258  0.2461 -0.2558  1.5850
 2624THY    CP165580   4.541   7.572   7.256  0.2413  0.7194  0.0541
 2624THY    HP165581   4.558   7.671   7.211  2.5540 -1.0546 -3.4038
 2624THY    CP265582   4.430   7.491   7.171  0.3191 -0.1585 -0.7833
 2624THY    HP265583   4.331   7.536   7.160 -0.7937 -2.1902  0.2516
 2624THY    HP365584   4.474   7.497   7.071  0.5579  1.2351 -0.6075
 2624THY    HP465585   4.409   7.389   7.205  0.5414  0.7626  2.4911
 2624THY    CP365586   4.485   7.575   7.403 -0.2464 -0.2545 -0.2111
 2624THY    HP565587   4.405   7.649   7.414  0.7524  0.6126  1.7401
 2624THY    HP665588   4.451   7.475   7.433  2.0690 -1.0877 -0.1547
 2624THY    HP765589   4.560   7.601   7.479 -0.6557  2.1565 -0.5547
 2624THY    CA365590   4.653   7.353   7.299 -0.2834 -0.4005  0.8284
 2624THY    HA365591   4.557   7.312   7.331 -1.0085 -0.0178 -0.7639
 2624THY    CA465592   4.761   7.268   7.278 -0.4319 -0.4075  0.7506
 2624THY    HA465593   4.754   7.161   7.299  1.0587 -1.0338 -1.4986
 2624THY    CA565594   4.885   7.317   7.244  0.3673  0.1954  0.1510
 2624THY    CM165595   4.996   7.216   7.232 -0.4101  0.9440  0.1073
 2624THY    HM165596   4.966   7.118   7.192 -1.9362  1.9264 -1.2719
 2624THY    HM265597   5.081   7.254   7.175  0.5477  2.3416  2.3301
 2624THY    HM365598   5.036   7.194   7.332 -0.9005  1.7171  0.4789
 2624THY    CA665599   4.897   7.448   7.205 -0.1909 -0.2091  0.7242
 2624THY    HA665600   4.993   7.491   7.177 -0.7544  0.8613  0.3725
 2625THY      O65601   2.160   0.650   1.190  0.4785  0.2511  0.3199
 2625THY     HO65602   2.206   0.734   1.174  1.2810 -0.2279  0.0807
 2625THY    CA165603   2.057   0.630   1.094 -0.4212 -0.2096  0.0064
 2625THY    CA265604   2.058   0.505   1.028 -0.1250 -0.2441 -0.3804
 2625THY    CP165605   2.159   0.398   1.061 -0.4494 -0.2205 -0.5846
 2625THY    HP165606   2.241   0.441   1.119  0.2686  0.1921 -1.8681
 2625THY    CP265607   2.107   0.274   1.137  0.3434  0.0371 -0.5485
 2625THY    HP265608   2.176   0.190   1.152  0.0589  0.2115  2.2056
 2625THY    HP365609   2.076   0.298   1.239 -0.4355  0.4773 -0.8732
 2625THY    HP465610   2.008   0.244   1.098 -0.2864  2.4456 -0.9233
 2625THY    CP365611   2.240   0.350   0.939  0.0455  0.1701 -0.5880
 2625THY    HP565612   2.177   0.302   0.863  1.2335  0.7860 -1.9990
 2625THY    HP665613   2.294   0.432   0.891 -0.2186  1.3410  1.0320
 2625THY    HP765614   2.324   0.291   0.977  1.0837  2.0559  0.1353
 2625THY    CA365615   1.972   0.484   0.929 -0.0432  0.7187  0.6294
 2625THY    HA365616   1.967   0.389   0.877  2.0103  0.5447  0.6693
 2625THY    CA465617   1.897   0.591   0.883  0.0384 -0.2615 -0.5341
 2625THY    HA465618   1.830   0.576   0.799 -0.2323  0.4008 -0.4426
 2625THY    CA565619   1.903   0.719   0.948 -0.1957  0.0217  0.6759
 2625THY    CM165620   1.824   0.836   0.892 -0.0912 -0.3751 -0.1605
 2625THY    HM165621   1.717   0.830   0.914  0.0611  1.5439  1.3844
 2625THY    HM265622   1.860   0.934   0.927 -1.2577 -0.0190  0.0861
 2625THY    HM365623   1.825   0.846   0.783 -0.1309 -2.6502 -0.4246
 2625THY    CA665624   1.991   0.738   1.052 -0.1690  0.2442  0.6140
 2625THY    HA665625   2.000   0.834   1.102 -0.6559  0.5670  0.0907
 2626THY      O65626   4.692   9.194   9.776  0.2438 -0.7478  0.0810
 2626THY     HO65627   4.700   9.276   9.725  1.2943 -1.6995 -1.3697
 2626THY    CA165628   4.582   9.134   9.722 -0.5564 -0.7762 -0.1446
 2626THY    CA265629   4.513   9.029   9.790  0.1773 -0.4443 -0.2217
 2626THY    CP165630   4.555   8.995   9.928 -0.3773 -0.3117  0.5074
 2626THY    HP165631   4.665   9.003   9.931 -0.3324 -1.1349  1.8904
 2626THY    CP265632   4.513   9.097  10.030 -0.1582  0.0485 -0.7936
 2626THY    HP265633   4.506   9.052  10.130 -0.5044  0.2098 -0.7437
 2626THY    HP365634   4.584   9.179  10.044  1.3550 -1.6557  2.5789
 2626THY    HP465635   4.412   9.136  10.014 -0.3682  0.4076  1.1696
 2626THY    CP365636   4.518   8.851   9.970 -0.4466  0.3239  0.1592
 2626THY    HP565637   4.585   8.824  10.052 -1.8202 -5.1381 -0.1633
 2626THY    HP665638   4.414   8.833   9.999 -0.5817  0.0562 -0.4776
 2626THY    HP765639   4.553   8.788   9.888  0.8428 -1.5665  2.0661
 2626THY    CA365640   4.399   8.977   9.725  0.7570 -0.0236  0.0120
 2626THY    HA365641   4.335   8.908   9.779 -1.5208  2.0141  0.1193
 2626THY    CA465642   4.367   9.020   9.591  0.0225  0.9247 -0.2487
 2626THY    HA465643   4.291   8.963   9.539  1.2389 -0.9489 -0.0557
 2626THY    CA565644   4.443   9.122   9.534  0.3057 -0.5216 -0.0934
 2626THY    CM165645   4.405   9.171   9.391 -0.1330 -1.0341 -0.7120
 2626THY    HM165646   4.453   9.106   9.317  1.6171 -2.8240  1.8353
 2626THY    HM265647   4.298   9.175   9.366 -0.0671 -1.8131 -1.1579
 2626THY    HM365648   4.442   9.270   9.362  0.3728 -1.5173 -1.7440
 2626THY    CA665649   4.554   9.180   9.592  0.7116 -0.0389 -0.1989
 2626THY    HA665650   4.606   9.262   9.543  0.4383  0.7872  0.8389
 2627THY      O65651   3.690   6.634   4.007  0.3063 -0.5802 -0.4352
 2627THY     HO65652   3.594   6.648   4.017  0.7291  1.1018  2.0974
 2627THY    CA165653   3.716   6.528   3.918  0.8748 -0.3943 -0.5469
 2627THY    CA265654   3.842   6.461   3.918  0.5331 -0.3223 -0.1489
 2627THY    CP165655   3.959   6.512   4.002  0.1005 -0.3844  0.6765
 2627THY    HP165656   3.969   6.620   3.984  3.1849 -0.6702  0.1922
 2627THY    CP265657   3.940   6.479   4.146 -0.3392  0.3276 -0.7703
 2627THY    HP265658   4.034   6.486   4.202  0.1338 -0.6347 -1.4181
 2627THY    HP365659   3.865   6.545   4.191  0.6651 -0.3373  2.1696
 2627THY    HP465660   3.912   6.374   4.160 -1.2851  0.6431 -0.2022
 2627THY    CP365661   4.095   6.462   3.946  0.2526 -0.4604  0.4707
 2627THY    HP565662   4.180   6.520   3.984 -0.9778  2.8099 -1.3394
 2627THY    HP665663   4.114   6.357   3.968 -1.2276 -1.4172 -2.3347
 2627THY    HP765664   4.109   6.479   3.839  0.8973 -0.3607  0.5693
 2627THY    CA365665   3.850   6.343   3.836 -0.3212 -0.6179  0.8236
 2627THY    HA365666   3.941   6.284   3.836 -0.5337 -0.9523  0.4060
 2627THY    CA465667   3.747   6.316   3.745 -0.0364 -0.1487  0.3194
 2627THY    HA465668   3.760   6.230   3.679 -1.7588  1.3811 -2.1431
 2627THY    CA565669   3.622   6.382   3.756 -0.2778  0.4937 -0.3631
 2627THY    CM165670   3.509   6.328   3.673  0.0612  0.4996 -0.2454
 2627THY    HM165671   3.543   6.243   3.614  2.9279  1.4317 -0.1337
 2627THY    HM265672   3.426   6.296   3.737  0.7009 -1.1117 -0.1761
 2627THY    HM365673   3.466   6.403   3.605 -2.9486 -1.9308 -1.1955
 2627THY    CA665674   3.609   6.485   3.840 -0.1306  0.4022 -0.5930
 2627THY    HA665675   3.515   6.540   3.833 -1.0012 -0.8246  0.7244
 2628THY      O65676   5.224   7.897   5.964  0.0703 -0.4407  0.7202
 2628THY     HO65677   5.275   7.980   5.969 -0.5713 -0.0717  1.5052
 2628THY    CA165678   5.296   7.810   6.031 -0.3437  0.3850  0.6047
 2628THY    CA265679   5.237   7.690   6.081  0.1344 -0.4147 -0.1399
 2628THY    CP165680   5.094   7.653   6.039  0.3298 -0.1789 -0.1155
 2628THY    HP165681   5.071   7.716   5.953 -1.1470  1.3222  1.2781
 2628THY    CP265682   5.069   7.505   6.008  0.5609  0.0528 -0.0487
 2628THY    HP265683   4.975   7.498   5.953  0.6919  0.9488 -0.3939
 2628THY    HP365684   5.150   7.477   5.940  0.7031 -0.9613  0.5050
 2628THY    HP465685   5.067   7.453   6.105  0.9744  0.2943  0.0932
 2628THY    CP365686   5.000   7.713   6.147  0.2400 -0.5910  0.7485
 2628THY    HP565687   4.900   7.670   6.136  0.3502 -1.2820  2.2542
 2628THY    HP665688   5.031   7.692   6.249  1.5240 -0.0841  0.4854
 2628THY    HP765689   4.998   7.823   6.141  0.6343 -0.6002  0.4051
 2628THY    CA365690   5.311   7.602   6.162  0.0446  0.3863 -0.3895
 2628THY    HA365691   5.272   7.504   6.185  1.8071 -0.1191  0.6220
 2628THY    CA465692   5.444   7.633   6.193  0.8114 -0.1741 -0.8305
 2628THY    HA465693   5.507   7.567   6.252  0.7618  0.9217  0.4814
 2628THY    CA565694   5.507   7.745   6.140 -0.4628  0.2394  0.2848
 2628THY    CM165695   5.659   7.761   6.158  0.0407 -0.5385 -0.3225
 2628THY    HM165696   5.704   7.840   6.097 -0.0395  0.8661  1.3848
 2628THY    HM265697   5.689   7.781   6.261  0.4035  0.4660 -0.6140
 2628THY    HM365698   5.700   7.666   6.122  0.8806 -0.5403  0.5937
 2628THY    CA665699   5.430   7.835   6.066  0.3052  0.4394 -0.4285
 2628THY    HA665700   5.484   7.922   6.028 -0.6514  1.8902  1.3866
 2629THY      O65701   0.445   0.813   3.140 -0.3453  0.5460  0.0494
 2629THY     HO65702   0.542   0.803   3.140 -0.1563  1.8635 -2.2441
 2629THY    CA165703   0.406   0.692   3.182  0.0382  0.3301 -0.0398
 2629THY    CA265704   0.272   0.665   3.207  0.1486  0.5772 -0.7770
 2629THY    CP165705   0.175   0.788   3.214  0.5929  0.5798  1.0632
 2629THY    HP165706   0.225   0.880   3.183  0.9773 -0.2623 -1.0111
 2629THY    CP265707   0.062   0.756   3.110 -0.3012  0.4001  0.4486
 2629THY    HP265708   0.019   0.658   3.130  0.7191  0.0585  1.0745
 2629THY    HP365709  -0.015   0.834   3.109 -1.9264 -1.1476  0.1750
 2629THY    HP465710   0.102   0.756   3.008 -0.5448  1.6664  0.3282
 2629THY    CP365711   0.112   0.802   3.352  0.0761  0.5796  0.0742
 2629THY    HP565712   0.017   0.751   3.370  0.1415  0.6524  0.6406
 2629THY    HP665713   0.181   0.771   3.432  1.9571 -0.3280 -1.7854
 2629THY    HP765714   0.081   0.906   3.365  1.2258  0.8272  0.9436
 2629THY    CA365715   0.229   0.540   3.251  0.6136  0.2314 -0.1712
 2629THY    HA365716   0.127   0.515   3.280  0.9076 -0.2269  0.5078
 2629THY    CA465717   0.330   0.441   3.265  0.4848  0.0837  0.0553
 2629THY    HA465718   0.294   0.344   3.297 -1.9034  0.8895  0.0239
 2629THY    CA565719   0.462   0.459   3.233 -0.6572 -0.1335  0.2093
 2629THY    CM165720   0.570   0.352   3.235  0.1567  0.1102  0.1033
 2629THY    HM165721   0.617   0.355   3.136  0.2732  0.8777  0.1705
 2629THY    HM265722   0.641   0.358   3.318 -0.1352  1.9806  0.2706
 2629THY    HM365723   0.514   0.259   3.225  0.0086 -0.0080  1.8470
 2629THY    CA665724   0.502   0.588   3.185  0.1645 -0.0497  0.2212
 2629THY    HA665725   0.601   0.591   3.140  1.0901 -2.8582  1.8187
 2630THY      O65726   4.823   4.217   2.788  0.6702 -0.3750 -0.0808
 2630THY     HO65727   4.830   4.135   2.840  0.7055 -1.1791 -1.3170
 2630THY    CA165728   4.727   4.293   2.847  0.0468 -0.1056  0.5171
 2630THY    CA265729   4.631   4.361   2.772 -1.2152  0.2362 -0.3408
 2630THY    CP165730   4.647   4.380   2.619 -0.9027 -0.0605  0.4265
 2630THY    HP165731   4.754   4.389   2.597 -0.2610  1.8256  3.5993
 2630THY    CP265732   4.597   4.271   2.524  0.4611 -0.5040 -0.5174
 2630THY    HP265733   4.488   4.268   2.529  0.3458  2.4648  1.0164
 2630THY    HP365734   4.615   4.289   2.417 -1.6724 -0.3382 -0.8884
 2630THY    HP465735   4.640   4.172   2.544 -0.8128 -1.0587 -0.4624
 2630THY    CP365736   4.593   4.520   2.567  0.7750 -0.4713  0.0435
 2630THY    HP565737   4.655   4.598   2.614  0.5736  1.4026 -2.6089
 2630THY    HP665738   4.597   4.527   2.458 -2.1954 -2.5180 -0.3118
 2630THY    HP765739   4.490   4.540   2.596  0.9925 -1.3242  1.5128
 2630THY    CA365740   4.518   4.417   2.839  0.1769  0.4165 -0.1922
 2630THY    HA365741   4.449   4.486   2.792 -0.1687  1.3815  1.6227
 2630THY    CA465742   4.522   4.408   2.979  0.6899  0.4450 -0.0448
 2630THY    HA465743   4.442   4.467   3.023  2.2122  3.6668 -1.2671
 2630THY    CA565744   4.623   4.341   3.050 -0.7745 -0.0792  0.1568
 2630THY    CM165745   4.628   4.346   3.200  0.5122 -0.3826  0.0565
 2630THY    HM165746   4.543   4.397   3.246  1.3612  2.6725 -1.4392
 2630THY    HM265747   4.640   4.252   3.254 -1.3020  0.7545  2.6586
 2630THY    HM365748   4.709   4.413   3.231 -1.4795  0.6752  3.5143
 2630THY    CA665749   4.722   4.276   2.978 -0.6243 -0.1173 -0.7222
 2630THY    HA665750   4.793   4.214   3.032 -1.1137 -0.3214 -0.3109
 2631THY      O65751   3.808   5.265   0.631 -0.3812 -0.0823 -0.3007
 2631THY     HO65752   3.770   5.340   0.583 -0.2659  0.8862  1.0685
 2631THY    CA165753   3.887   5.308   0.734  0.6750  0.5592 -0.3420
 2631THY    CA265754   3.941   5.214   0.823 -0.1082  0.9879 -0.5875
 2631THY    CP165755   3.937   5.060   0.780 -0.1668 -0.2882 -0.2347
 2631THY    HP165756   3.889   5.047   0.683  2.2292 -1.1124 -1.3738
 2631THY    CP265757   4.071   4.998   0.766 -0.4898 -0.0880  0.6654
 2631THY    HP265758   4.141   5.073   0.727 -2.3953  0.3754 -2.1544
 2631THY    HP365759   4.097   4.970   0.869 -3.0690  0.7966  1.6638
 2631THY    HP465760   4.069   4.908   0.703 -0.8926 -0.2506  0.9046
 2631THY    CP365761   3.866   4.972   0.885 -0.2536 -0.2093 -0.3880
 2631THY    HP565762   3.892   5.005   0.986 -2.2782 -0.4194  0.2483
 2631THY    HP665763   3.757   4.980   0.892 -0.2095 -0.0038  0.1121
 2631THY    HP765764   3.891   4.866   0.876  0.8209  0.1160 -1.6395
 2631THY    CA365765   4.016   5.253   0.931 -0.4463 -0.4337 -0.0120
 2631THY    HA365766   4.059   5.187   1.006 -0.2083  0.8974  1.0580
 2631THY    CA465767   4.037   5.392   0.943 -0.0946 -0.4987 -0.4578
 2631THY    HA465768   4.091   5.435   1.027 -2.0136  1.3325 -0.1093
 2631THY    CA565769   3.985   5.485   0.858  0.4778 -0.3191  0.2785
 2631THY    CM165770   4.014   5.631   0.885  0.0800 -0.8160  1.3499
 2631THY    HM165771   3.929   5.686   0.924 -0.8648 -0.2366 -1.2991
 2631THY    HM265772   4.102   5.636   0.951  1.2396  0.0945 -0.1917
 2631THY    HM365773   4.042   5.684   0.793 -1.2580 -2.5221 -0.1342
 2631THY    CA665774   3.908   5.442   0.751  0.0112  0.2713 -0.1422
 2631THY    HA665775   3.876   5.511   0.674  0.7215 -0.2492 -0.9201
 2632THY      O65776   1.258   1.857   9.565  0.0361 -0.7293  0.0524
 2632THY     HO65777   1.211   1.846   9.649  1.2654 -1.0314  0.7122
 2632THY    CA165778   1.196   1.959   9.502 -0.1422  0.0432  0.3592
 2632THY    CA265779   1.211   1.977   9.366  0.0440 -0.2007  0.0278
 2632THY    CP165780   1.313   1.898   9.285  0.2587  0.5330  0.2643
 2632THY    HP165781   1.365   1.824   9.347 -0.2058  0.3593  0.4535
 2632THY    CP265782   1.244   1.821   9.174  0.8350 -0.2407 -0.3096
 2632THY    HP265783   1.151   1.779   9.213  0.4653 -2.3982 -3.1849
 2632THY    HP365784   1.218   1.896   9.098  1.4810  1.4164  1.0520
 2632THY    HP465785   1.304   1.735   9.141  1.3935  0.0591 -0.0950
 2632THY    CP365786   1.425   1.994   9.226  0.1556 -0.2703  0.2503
 2632THY    HP565787   1.522   1.952   9.197  0.9325  2.1943 -1.0419
 2632THY    HP665788   1.396   2.042   9.132  1.4355 -0.7307 -0.4010
 2632THY    HP765789   1.440   2.069   9.304  1.1208  0.5309 -0.6745
 2632THY    CA365790   1.136   2.069   9.309 -0.1041 -0.3803 -0.2843
 2632THY    HA365791   1.146   2.089   9.203 -2.5431  0.3703 -0.4291
 2632THY    CA465792   1.050   2.151   9.380  0.0917 -0.3414  0.3170
 2632THY    HA465793   0.992   2.226   9.328  2.6280  1.6363  0.1177
 2632THY    CA565794   1.028   2.136   9.515  0.4408 -0.3035  0.0152
 2632THY    CM165795   0.921   2.218   9.591 -0.3583  0.3850 -0.4564
 2632THY    HM165796   0.834   2.153   9.608 -0.2677  0.6163  1.0516
 2632THY    HM265797   0.960   2.233   9.692 -1.3217 -2.3158  0.4097
 2632THY    HM365798   0.897   2.312   9.542  0.2627 -0.9800 -3.6016
 2632THY    CA665799   1.099   2.031   9.574 -0.2575 -0.4416  0.0769
 2632THY    HA665800   1.084   2.015   9.680  1.6426 -0.6846  0.3534
 2633THY      O65801   7.728   7.249   1.065  0.3070 -0.2845  0.2944
 2633THY     HO65802   7.721   7.272   0.970 -0.4738  1.6794  0.7702
 2633THY    CA165803   7.610   7.200   1.111  0.2915 -0.0402 -0.5830
 2633THY    CA265804   7.607   7.137   1.234 -0.7150 -0.1225 -0.6685
 2633THY    CP165805   7.740   7.136   1.322 -0.0201 -0.4418  0.6319
 2633THY    HP165806   7.827   7.156   1.258  0.0582 -3.5842 -0.4321
 2633THY    CP265807   7.733   7.231   1.440 -0.2221  0.6331  0.2736
 2633THY    HP265808   7.809   7.223   1.518 -1.2890 -1.3395  1.1990
 2633THY    HP365809   7.734   7.336   1.408  0.0042  1.2650  2.2395
 2633THY    HP465810   7.633   7.214   1.481 -1.1045 -0.1081 -2.0052
 2633THY    CP365811   7.767   7.001   1.364 -0.0291 -0.4807 -0.3312
 2633THY    HP565812   7.871   6.996   1.397 -0.1791  1.5382  0.6580
 2633THY    HP665813   7.711   6.988   1.457  0.7855  0.0327  0.2496
 2633THY    HP765814   7.746   6.921   1.293 -2.3787 -0.6445  0.4432
 2633THY    CA365815   7.488   7.099   1.290 -0.3001  0.4813  0.3960
 2633THY    HA365816   7.481   7.054   1.389 -1.2046 -0.9754 -0.3078
 2633THY    CA465817   7.373   7.108   1.221 -0.1815  0.2353  1.1008
 2633THY    HA465818   7.283   7.093   1.280 -1.4296  0.3529 -0.6613
 2633THY    CA565819   7.375   7.163   1.090 -0.5905  0.5654  0.1794
 2633THY    CM165820   7.249   7.162   1.013 -0.4758 -0.2661 -0.8064
 2633THY    HM165821   7.213   7.061   0.991 -2.4668  0.4391 -1.0033
 2633THY    HM265822   7.173   7.213   1.074  0.3452 -0.2479  0.2464
 2633THY    HM365823   7.241   7.234   0.932  0.4204 -0.1450 -0.7977
 2633THY    CA665824   7.492   7.209   1.038 -0.3254 -1.0388  0.3339
 2633THY    HA665825   7.488   7.261   0.943  0.3634 -0.1212  0.7957
 2634THY      O65826   8.250   0.503   1.596  0.6195 -0.0621 -0.2336
 2634THY     HO65827   8.307   0.561   1.650  0.0336  0.3487 -0.0455
 2634THY    CA165828   8.220   0.582   1.492  0.7982 -0.4350  0.0264
 2634THY    CA265829   8.105   0.579   1.413  0.5394  0.3828  0.2628
 2634THY    CP165830   8.007   0.468   1.449  0.2994  0.5377 -0.0194
 2634THY    HP165831   8.012   0.442   1.555 -2.3288  2.5294  0.7198
 2634THY    CP265832   7.861   0.515   1.414  0.5416  0.6431 -0.1822
 2634THY    HP265833   7.854   0.520   1.304 -1.8326 -0.4771 -0.1654
 2634THY    HP365834   7.784   0.445   1.449  0.8157 -0.3474 -1.4283
 2634THY    HP465835   7.836   0.612   1.458 -3.1049  0.6153 -1.7936
 2634THY    CP365836   8.042   0.345   1.367 -0.6122 -0.8101  0.0395
 2634THY    HP565837   8.145   0.316   1.388 -0.4765 -2.0543 -2.1186
 2634THY    HP665838   7.992   0.259   1.413 -1.1828  0.4525  1.9156
 2634THY    HP765839   8.042   0.365   1.260  0.5799  0.8214  0.3072
 2634THY    CA365840   8.087   0.669   1.308  0.3217  0.4771 -0.5294
 2634THY    HA365841   7.998   0.676   1.246  0.3193 -0.8118 -0.6899
 2634THY    CA465842   8.182   0.770   1.286  0.5142 -0.5964  0.7108
 2634THY    HA465843   8.168   0.847   1.211 -0.4026 -0.2620  1.2143
 2634THY    CA565844   8.298   0.775   1.369 -0.1177 -0.0020 -0.3829
 2634THY    CM165845   8.407   0.876   1.341 -0.3634 -0.0025  0.0877
 2634THY    HM165846   8.503   0.830   1.313 -0.9596 -1.1026 -0.2018
 2634THY    HM265847   8.368   0.954   1.274 -1.0731 -0.1990  0.2639
 2634THY    HM365848   8.430   0.929   1.434  0.1469  0.4453 -0.2837
 2634THY    CA665849   8.315   0.683   1.471 -0.7048 -0.7328  0.0802
 2634THY    HA665850   8.412   0.681   1.520 -0.5644 -0.3606 -0.1856
 2635THY      O65851   5.780   4.272   3.228 -0.4584 -0.2148 -0.1479
 2635THY     HO65852   5.746   4.189   3.266 -2.0546 -0.2215 -1.4774
 2635THY    CA165853   5.825   4.240   3.103  0.3373  0.3772  0.3163
 2635THY    CA265854   5.815   4.325   2.999 -0.5762 -1.2429  0.0103
 2635THY    CP165855   5.775   4.471   3.016  0.6275 -0.2164  0.6822
 2635THY    HP165856   5.733   4.492   3.115 -1.9370 -1.3261 -0.0942
 2635THY    CP265857   5.896   4.564   2.984 -0.7330  0.9553  0.5040
 2635THY    HP265858   5.879   4.668   3.014 -0.8290  0.9036  0.6341
 2635THY    HP365859   5.978   4.532   3.050  1.5764  2.3087 -1.5597
 2635THY    HP465860   5.919   4.552   2.878 -1.6456 -0.3216  0.4261
 2635THY    CP365861   5.654   4.505   2.923  0.4842  0.4273 -0.3552
 2635THY    HP565862   5.639   4.614   2.922 -1.9528  0.1592  0.9814
 2635THY    HP665863   5.660   4.457   2.825 -3.0230 -0.9114 -0.0416
 2635THY    HP765864   5.571   4.463   2.980  1.0053 -1.5660 -0.9947
 2635THY    CA365865   5.852   4.287   2.871 -0.3341  0.5310  0.2310
 2635THY    HA365866   5.851   4.355   2.786 -0.4464 -0.0539 -0.2437
 2635THY    CA465867   5.869   4.153   2.843 -0.2890 -0.3365  0.2155
 2635THY    HA465868   5.868   4.122   2.738 -2.3797 -3.1819  0.9502
 2635THY    CA565869   5.883   4.060   2.950  0.3996 -0.0508  0.0392
 2635THY    CM165870   5.915   3.916   2.935  0.2901 -0.5655  0.5303
 2635THY    HM165871   5.832   3.848   2.956  0.4678 -1.1444 -0.5707
 2635THY    HM265872   5.956   3.903   2.834 -0.7472  2.3517 -0.3797
 2635THY    HM365873   5.993   3.893   3.009  1.3124  0.4520 -0.1949
 2635THY    CA665874   5.853   4.104   3.081 -0.5371  0.7521  0.1015
 2635THY    HA665875   5.863   4.034   3.163 -2.7851  1.4425  1.0302
 2636THY      O65876   8.709   2.990   9.889 -0.5323 -0.6274  0.3748
 2636THY     HO65877   8.675   3.047   9.818  0.7358 -0.7595 -0.3597
 2636THY    CA165878   8.842   2.964   9.862  0.3386 -0.4746 -0.1775
 2636THY    CA265879   8.921   2.880   9.942  0.5735 -1.0830  0.1468
 2636THY    CP165880   8.852   2.788  10.042  0.6531 -0.5252 -0.2353
 2636THY    HP165881   8.743   2.792  10.038  0.3680 -1.8738  2.7460
 2636THY    CP265882   8.878   2.643  10.009  0.2382  0.1550  0.6503
 2636THY    HP265883   8.982   2.626  10.038  1.2987  2.8463 -1.1389
 2636THY    HP365884   8.804   2.601  10.078  0.4693  1.5204  1.7724
 2636THY    HP465885   8.865   2.617   9.903 -1.2469  2.8424  0.0836
 2636THY    CP365886   8.889   2.831  10.184 -0.4939  0.7936 -0.8644
 2636THY    HP565887   8.863   2.936  10.202  0.1395  0.6278  1.4019
 2636THY    HP665888   8.835   2.774  10.260  0.7207  1.6692  0.7201
 2636THY    HP765889   8.997   2.822  10.201 -0.6569  1.2433  0.5751
 2636THY    CA365890   9.054   2.879   9.906 -0.5173  0.8393  0.1933
 2636THY    HA365891   9.125   2.819   9.962  0.3063  0.8396 -0.8329
 2636THY    CA465892   9.103   2.946   9.800 -0.1388 -0.0600 -0.1769
 2636THY    HA465893   9.212   2.943   9.791  0.3053  0.4082  3.5583
 2636THY    CA565894   9.022   3.026   9.725  0.0849  0.0950  0.4522
 2636THY    CM165895   9.078   3.106   9.611 -0.1196 -0.2516  0.7680
 2636THY    HM165896   9.005   3.160   9.550 -0.2908 -0.2395  0.9819
 2636THY    HM265897   9.151   3.183   9.639  0.3515  0.7016 -2.5915
 2636THY    HM365898   9.126   3.031   9.547  0.6725 -1.4446  2.6879
 2636THY    CA665899   8.894   3.038   9.757 -0.4171 -1.1447 -0.9254
 2636THY    HA665900   8.840   3.112   9.698 -0.5900  0.8774  1.5774
 2637THY      O65901   0.058   9.054   7.044  0.4376  0.5034 -0.9004
 2637THY     HO65902   0.146   9.030   7.077  0.3131 -0.5454 -1.3200
 2637THY    CA165903   0.012   9.165   7.117  0.4102 -0.1373 -0.1982
 2637THY    CA265904  -0.124   9.197   7.117 -0.4995  0.2891  0.0736
 2637THY    CP165905  -0.212   9.118   7.036  0.0125 -0.2322  0.3035
 2637THY    HP165906  -0.170   9.078   6.943  0.2165 -0.3261  0.4360
 2637THY    CP265907  -0.264   9.000   7.120 -0.1649 -0.3508  0.0711
 2637THY    HP265908  -0.366   9.016   7.156 -0.1099  2.1523 -0.6664
 2637THY    HP365909  -0.259   8.908   7.060 -2.5179  0.2427 -1.1849
 2637THY    HP465910  -0.199   8.992   7.208  0.0652 -1.2012 -0.1654
 2637THY    CP365911  -0.336   9.198   6.986 -0.5455  0.4386  0.4750
 2637THY    HP565912  -0.392   9.239   7.071  1.6610  0.3676  2.0538
 2637THY    HP665913  -0.311   9.285   6.924 -2.8636  0.5849 -0.3515
 2637THY    HP765914  -0.402   9.133   6.927  1.4957 -0.6565 -0.7011
 2637THY    CA365915  -0.165   9.308   7.199 -0.0192  0.7530 -0.2009
 2637THY    HA365916  -0.271   9.333   7.194 -0.4211 -0.9080 -0.7541
 2637THY    CA465917  -0.069   9.381   7.273  0.1163 -0.2086 -0.2535
 2637THY    HA465918  -0.105   9.463   7.334 -0.0549 -2.5454  3.0775
 2637THY    CA565919   0.068   9.349   7.263 -0.9306 -0.2407  0.1003
 2637THY    CM165920   0.176   9.448   7.309 -0.0178 -0.1732  0.4261
 2637THY    HM165921   0.185   9.453   7.418  0.2589  1.5752  0.3550
 2637THY    HM265922   0.267   9.454   7.248 -1.2911  0.2960 -1.5004
 2637THY    HM365923   0.137   9.545   7.276  1.8774  0.9986  1.3946
 2637THY    CA665924   0.105   9.239   7.186 -0.3284 -0.2134 -0.1555
 2637THY    HA665925   0.211   9.218   7.186 -0.0512  0.9900  1.1081
 2638THY      O65926   7.308   8.964   9.544  0.4564 -0.4426  0.2250
 2638THY     HO65927   7.349   8.997   9.462 -0.5064  2.2914  0.7457
 2638THY    CA165928   7.348   9.054   9.628 -0.7023  0.0542 -0.7062
 2638THY    CA265929   7.378   9.011   9.755 -0.0784  0.6751 -0.5297
 2638THY    CP165930   7.381   8.866   9.812 -0.1453  0.1070  0.0899
 2638THY    HP165931   7.388   8.796   9.728  0.6712  0.2637  0.0150
 2638THY    CP265932   7.521   8.851   9.884 -0.2478  0.0109 -0.3638
 2638THY    HP265933   7.595   8.864   9.804 -1.3525 -0.5547 -1.5352
 2638THY    HP365934   7.533   8.924   9.964  1.7948  0.0141 -0.6118
 2638THY    HP465935   7.526   8.748   9.920 -0.2023 -0.0326 -0.4923
 2638THY    CP365936   7.264   8.824   9.893 -0.1182  0.0073 -0.7965
 2638THY    HP565937   7.181   8.805   9.823 -0.1269 -0.0289 -0.7760
 2638THY    HP665938   7.277   8.732   9.951 -2.1797  1.4541  2.2495
 2638THY    HP765939   7.235   8.891   9.975  1.6789  1.0398 -0.9530
 2638THY    CA365940   7.401   9.120   9.848  0.0747  0.7017  0.6551
 2638THY    HA365941   7.404   9.099   9.955  0.1334  0.3944  0.5912
 2638THY    CA465942   7.401   9.253   9.808 -0.3814 -0.3890  0.1397
 2638THY    HA465943   7.407   9.336   9.878 -0.9677 -0.2669  0.0511
 2638THY    CA565944   7.401   9.284   9.668  0.3068 -0.2872 -0.3791
 2638THY    CM165945   7.382   9.423   9.618 -0.2785 -0.1377  0.5173
 2638THY    HM165946   7.276   9.435   9.592  0.3228 -1.1901 -2.8392
 2638THY    HM265947   7.395   9.492   9.703  1.8814  0.3855 -0.1800
 2638THY    HM365948   7.436   9.440   9.524 -1.3508 -0.0169 -0.0981
 2638THY    CA665949   7.386   9.178   9.574  0.1443 -0.1373  0.8629
 2638THY    HA665950   7.382   9.206   9.469 -0.8821 -1.2564  0.5863
 2639THY      O65951   0.245   4.968   2.120  0.4815  0.6832 -0.2072
 2639THY     HO65952   0.166   4.920   2.091  0.8314  0.7518 -1.3531
 2639THY    CA165953   0.190   5.035   2.225 -0.0542 -0.0996  0.2624
 2639THY    CA265954   0.279   5.082   2.323  0.0013 -0.5046  0.2565
 2639THY    CP165955   0.430   5.073   2.298 -0.7123  0.8172  0.1145
 2639THY    HP165956   0.440   5.100   2.192 -0.3620 -0.9220 -0.3220
 2639THY    CP265957   0.501   5.191   2.360 -0.8026 -0.0114  0.2688
 2639THY    HP265958   0.513   5.187   2.469  3.8412  0.6608 -0.0236
 2639THY    HP365959   0.601   5.204   2.317 -0.7844 -2.2014 -0.4963
 2639THY    HP465960   0.454   5.283   2.322  0.2879  0.8648  0.9975
 2639THY    CP365961   0.503   4.948   2.350 -0.9239 -0.5492  0.6032
 2639THY    HP565962   0.458   4.910   2.442  1.0609 -0.6824  1.5718
 2639THY    HP665963   0.506   4.872   2.270  2.5618 -0.7869  0.8113
 2639THY    HP765964   0.606   4.977   2.375 -0.8144  0.1646 -0.5872
 2639THY    CA365965   0.225   5.134   2.436 -0.1173 -0.1355 -0.2911
 2639THY    HA365966   0.292   5.155   2.519  0.3182  0.6443 -0.8404
 2639THY    CA465967   0.082   5.153   2.452 -1.2627 -0.1646 -0.6393
 2639THY    HA465968   0.045   5.200   2.543  2.1133 -1.9656  1.9085
 2639THY    CA565969   0.003   5.111   2.349 -0.0256  0.2640  0.3962
 2639THY    CM165970  -0.154   5.127   2.353  0.4449  0.3062  0.0826
 2639THY    HM165971  -0.179   5.234   2.355 -0.6325  0.1429 -1.8484
 2639THY    HM265972  -0.211   5.073   2.276 -1.0897 -1.2195  2.1677
 2639THY    HM365973  -0.197   5.074   2.439  0.2158 -0.3054 -0.3970
 2639THY    CA665974   0.053   5.050   2.230  0.5353 -0.2178 -0.2162
 2639THY    HA665975  -0.020   5.014   2.158 -0.0227 -1.3148  0.8541
 2640THY      O65976   4.397   9.279   3.489 -0.6095  0.1888  0.2808
 2640THY     HO65977   4.435   9.340   3.554 -1.6244 -1.0482  2.1313
 2640THY    CA165978   4.367   9.341   3.366 -0.8007 -0.1332 -0.2218
 2640THY    CA265979   4.320   9.262   3.259 -0.2626 -0.3066  0.0666
 2640THY    CP165980   4.307   9.109   3.275  0.3081 -0.1477 -0.6529
 2640THY    HP165981   4.338   9.084   3.377 -0.6722  1.2558  0.0168
 2640THY    CP265982   4.155   9.062   3.260 -0.1460 -0.1967  0.0767
 2640THY    HP265983   4.115   9.067   3.158  1.2958 -2.2989 -0.6386
 2640THY    HP365984   4.160   8.957   3.291  0.6021 -0.3130 -0.4264
 2640THY    HP465985   4.090   9.112   3.333 -1.4797 -0.9222 -0.5765
 2640THY    CP365986   4.406   9.038   3.177 -0.4014 -0.0288 -0.0439
 2640THY    HP565987   4.422   8.933   3.200 -0.0165 -0.1892 -0.9869
 2640THY    HP665988   4.370   9.032   3.074  0.3585 -1.0394 -0.2653
 2640THY    HP765989   4.499   9.097   3.180 -1.7914  2.2790  0.8221
 2640THY    CA365990   4.288   9.329   3.133 -0.6193 -0.4595 -0.2992
 2640THY    HA365991   4.253   9.273   3.047  0.4798 -1.2244 -0.2720
 2640THY    CA465992   4.314   9.469   3.124  0.0626  0.3600  0.2056
 2640THY    HA465993   4.291   9.521   3.032 -0.9059 -1.1586 -0.4382
 2640THY    CA565994   4.372   9.539   3.229  0.0304 -0.2253  0.3644
 2640THY    CM165995   4.398   9.690   3.215  0.0359  0.3026  0.3031
 2640THY    HM165996   4.483   9.716   3.151  1.1850  2.7045  2.6313
 2640THY    HM265997   4.303   9.729   3.177  0.0609 -1.1707 -1.3802
 2640THY    HM365998   4.428   9.735   3.310 -0.5886  0.3664  0.4714
 2640THY    CA665999   4.408   9.474   3.347  0.0464 -0.5593 -0.3896
 2640THY    HA666000   4.467   9.532   3.417  1.9774  1.3006 -3.3413
 2641THY      O66001   5.047   4.971   7.120  0.0288  0.2290 -0.7766
 2641THY     HO66002   5.068   4.947   7.212 -0.5307  0.2289 -0.6487
 2641THY    CA166003   5.148   5.052   7.092 -0.0558  0.3645 -0.2316
 2641THY    CA266004   5.149   5.120   6.972  0.0209 -1.0591 -0.3276
 2641THY    CP166005   5.021   5.119   6.879 -0.6562  0.0676 -0.6981
 2641THY    HP166006   4.968   5.027   6.907  1.0518 -0.7431  0.0100
 2641THY    CP266007   4.942   5.248   6.906  0.5009  0.6104 -0.1042
 2641THY    HP266008   4.895   5.263   7.004  1.7497  1.5536  0.3704
 2641THY    HP366009   5.013   5.331   6.898  1.2778  0.2892  2.4956
 2641THY    HP466010   4.870   5.262   6.824 -0.7295 -0.3205  0.7865
 2641THY    CP366011   5.057   5.104   6.732  0.0866  0.1817 -0.4040
 2641THY    HP566012   4.969   5.087   6.670 -0.5524  2.0718 -0.0880
 2641THY    HP666013   5.115   5.193   6.704  0.9660 -0.5642 -1.0260
 2641THY    HP766014   5.126   5.019   6.726 -1.2148 -0.9050 -0.2496
 2641THY    CA366015   5.257   5.206   6.939 -0.1633 -0.5777  0.5406
 2641THY    HA366016   5.249   5.269   6.851  2.3421 -0.1910  0.5330
 2641THY    CA466017   5.364   5.231   7.039 -0.1051  0.2937 -0.4766
 2641THY    HA466018   5.441   5.304   7.018  0.1379 -0.6033 -3.0923
 2641THY    CA566019   5.365   5.153   7.155  0.0230  0.0737  0.2114
 2641THY    CM166020   5.484   5.160   7.244  0.6155 -0.6427 -0.0747
 2641THY    HM166021   5.500   5.076   7.312  0.7454 -1.1619 -0.7276
 2641THY    HM266022   5.577   5.181   7.190 -0.9846  2.1272 -2.0938
 2641THY    HM366023   5.479   5.252   7.303 -1.0853 -1.1328  0.6087
 2641THY    CA666024   5.256   5.068   7.183  0.0010 -0.7633 -0.4308
 2641THY    HA666025   5.252   5.014   7.277  1.7259 -0.5736 -0.2145
 2642THY      O66026   4.799   8.147   4.899 -0.1177 -0.6524 -0.1640
 2642THY     HO66027   4.722   8.105   4.941  0.2302 -1.0988  0.0390
 2642THY    CA166028   4.879   8.191   5.002 -0.9456  1.2956 -0.1739
 2642THY    CA266029   4.982   8.286   4.980 -0.7446  0.4404 -0.6203
 2642THY    CP166030   5.000   8.337   4.840  0.1639  0.0331  0.4759
 2642THY    HP166031   4.969   8.261   4.767  1.9811 -0.4439  0.1469
 2642THY    CP266032   4.906   8.454   4.821  1.0511 -0.0004  0.0891
 2642THY    HP266033   4.910   8.494   4.719  1.2708 -1.2175 -0.3937
 2642THY    HP366034   4.808   8.431   4.864  1.4497 -2.9148 -0.3552
 2642THY    HP466035   4.951   8.533   4.884 -0.0836  0.4763  0.3172
 2642THY    CP366036   5.139   8.366   4.795  0.4196  0.0832 -0.2611
 2642THY    HP566037   5.140   8.393   4.688 -0.5307  1.1291 -0.0219
 2642THY    HP666038   5.176   8.455   4.846  0.3504 -0.7387  1.2613
 2642THY    HP766039   5.217   8.293   4.817  1.1718 -0.0488 -2.9751
 2642THY    CA366040   5.072   8.303   5.090 -0.6321 -0.6865 -0.4034
 2642THY    HA366041   5.154   8.372   5.075  0.1174 -1.2173  1.0311
 2642THY    CA466042   5.055   8.233   5.207 -0.0073  0.0775 -0.4545
 2642THY    HA466043   5.114   8.251   5.296 -2.0542  1.1522  0.7555
 2642THY    CA566044   4.946   8.145   5.226 -0.9642  0.4260  0.1908
 2642THY    CM166045   4.929   8.062   5.352  0.3202 -0.4204  0.4137
 2642THY    HM166046   4.837   8.002   5.348 -1.3647  1.9120  2.0514
 2642THY    HM266047   5.017   7.998   5.370  0.8271  0.1590  0.0267
 2642THY    HM366048   4.913   8.125   5.440 -0.5247  2.5799 -1.7500
 2642THY    CA666049   4.863   8.125   5.121 -0.0613 -0.1590 -0.3503
 2642THY    HA666050   4.801   8.036   5.131 -0.1164 -0.1759 -0.8004
 2643THY      O66051   6.855   9.464   8.508 -0.3049 -0.2951  0.2752
 2643THY     HO66052   6.798   9.396   8.467  0.2329 -2.2632  2.5600
 2643THY    CA166053   6.970   9.467   8.437  0.8792  0.6215  0.1379
 2643THY    CA266054   7.075   9.552   8.460 -0.6718 -0.1667  0.5623
 2643THY    CP166055   7.071   9.670   8.564 -0.2367 -0.3551  0.5789
 2643THY    HP166056   6.966   9.693   8.581  0.2204  3.4946 -0.7392
 2643THY    CP266057   7.138   9.622   8.688 -0.1749  0.9151  0.1542
 2643THY    HP266058   7.242   9.593   8.668 -0.4396 -0.4779  0.7078
 2643THY    HP366059   7.142   9.699   8.766 -0.1175  0.3820  0.6827
 2643THY    HP466060   7.092   9.536   8.737  1.4743 -0.0049  0.1590
 2643THY    CP366061   7.127   9.797   8.516 -0.3067  0.3357  0.6331
 2643THY    HP566062   7.087   9.868   8.589 -1.8143  1.0623 -0.8289
 2643THY    HP666063   7.236   9.803   8.506 -0.3466  1.5396  0.7640
 2643THY    HP766064   7.081   9.815   8.418 -0.7685 -0.9963  0.5783
 2643THY    CA366065   7.190   9.533   8.385  0.0432 -0.2429 -0.3137
 2643THY    HA366066   7.278   9.595   8.401  1.3441 -2.4801  1.8464
 2643THY    CA466067   7.203   9.427   8.294  0.0207  0.3060 -0.3991
 2643THY    HA466068   7.296   9.409   8.241 -0.6681 -1.4717 -1.0709
 2643THY    CA566069   7.101   9.335   8.280  0.7495  0.7346 -1.0161
 2643THY    CM166070   7.127   9.217   8.203  0.7932  0.4290  0.4693
 2643THY    HM166071   7.216   9.164   8.241 -0.1857 -1.5951  0.0693
 2643THY    HM266072   7.047   9.144   8.186 -0.6932  2.0380  0.2985
 2643THY    HM366073   7.164   9.236   8.101  1.6792 -3.1119 -0.0037
 2643THY    CA666074   6.981   9.361   8.348 -0.0644 -0.9990 -0.0935
 2643THY    HA666075   6.900   9.289   8.348 -1.7125  0.7856 -0.1836
 2644THY      O66076   5.697   6.737   1.823  0.4956  0.4081 -0.0822
 2644THY     HO66077   5.762   6.772   1.886  1.8748  0.7212 -1.6187
 2644THY    CA166078   5.776   6.650   1.753 -0.3643  0.0263 -0.9844
 2644THY    CA266079   5.739   6.510   1.737  0.1921  0.0065  0.1723
 2644THY    CP166080   5.614   6.462   1.806 -0.2372 -0.3444 -0.2090
 2644THY    HP166081   5.535   6.533   1.780  1.3342  0.4284 -3.2543
 2644THY    CP266082   5.554   6.330   1.754 -0.4091  0.3233 -1.2234
 2644THY    HP266083   5.474   6.296   1.821  2.2708 -0.9914  1.5688
 2644THY    HP366084   5.509   6.349   1.656  1.5642  1.5961 -1.9449
 2644THY    HP466085   5.632   6.252   1.755  0.1087  0.7179  2.4030
 2644THY    CP366086   5.623   6.456   1.955  0.1593 -0.0785  0.4619
 2644THY    HP566087   5.679   6.541   1.997  0.1599  0.8868 -1.3644
 2644THY    HP666088   5.520   6.459   1.992  0.1128  0.2123  0.3091
 2644THY    HP766089   5.673   6.364   1.987  0.5244 -0.0674 -0.0557
 2644THY    CA366090   5.832   6.429   1.674 -0.4493 -0.0552 -0.1550
 2644THY    HA366091   5.819   6.321   1.665  1.1896 -0.1971 -1.1327
 2644THY    CA466092   5.953   6.485   1.620  0.5936  0.1291  0.2047
 2644THY    HA466093   6.019   6.422   1.561 -0.5573 -0.7327 -0.2161
 2644THY    CA566094   5.986   6.617   1.626  0.0684 -0.5208 -0.8762
 2644THY    CM166095   6.101   6.686   1.560 -0.0885  0.2398 -0.5912
 2644THY    HM166096   6.196   6.644   1.593  0.5159  0.2759 -2.1713
 2644THY    HM266097   6.105   6.676   1.450  0.4573  2.3432 -0.7995
 2644THY    HM366098   6.108   6.793   1.583  0.5103  0.1892 -0.5150
 2644THY    CA666099   5.891   6.702   1.697  0.0520  0.4743  0.5492
 2644THY    HA666100   5.910   6.809   1.699 -1.2236  0.7138  0.6527
 2645THY      O66101   0.511   2.459   4.310 -0.3955 -0.2650  0.3778
 2645THY     HO66102   0.591   2.487   4.262 -0.2451  1.8293  1.7279
 2645THY    CA166103   0.417   2.559   4.295 -0.4942 -0.0180  0.0793
 2645THY    CA266104   0.287   2.567   4.346 -0.0453  0.3944  0.3257
 2645THY    CP166105   0.237   2.457   4.444  0.0716  0.4953  0.2009
 2645THY    HP166106   0.309   2.374   4.436 -0.5576 -0.0610  0.2530
 2645THY    CP266107   0.233   2.502   4.591  0.1714 -0.3770  0.4836
 2645THY    HP266108   0.166   2.587   4.611 -2.3933 -1.8767 -1.1945
 2645THY    HP366109   0.217   2.418   4.660 -2.0406 -0.1831  0.2718
 2645THY    HP466110   0.327   2.547   4.625 -0.1101  0.3424  0.3255
 2645THY    CP366111   0.095   2.405   4.407 -0.2487 -0.0461 -0.6138
 2645THY    HP566112   0.064   2.318   4.466 -0.7837  0.2789 -0.4144
 2645THY    HP666113   0.020   2.478   4.440 -0.0088  0.1257 -0.4470
 2645THY    HP766114   0.082   2.373   4.303 -1.3026  0.8064 -0.7605
 2645THY    CA366115   0.199   2.672   4.316 -0.0152  0.4612  0.2341
 2645THY    HA366116   0.099   2.671   4.358 -0.0387 -1.4159  0.1871
 2645THY    CA466117   0.242   2.758   4.211 -0.3150  0.6337  0.0031
 2645THY    HA466118   0.171   2.832   4.175  0.3080  0.3935 -1.8237
 2645THY    CA566119   0.369   2.745   4.153 -0.9021  0.2051  0.5298
 2645THY    CM166120   0.417   2.834   4.042  0.5770 -0.3986  0.3728
 2645THY    HM166121   0.386   2.790   3.946 -0.0600 -0.2010  0.4841
 2645THY    HM266122   0.362   2.929   4.043  0.9638 -0.1017 -1.5004
 2645THY    HM366123   0.525   2.847   4.031  0.3449  0.7322 -0.9228
 2645THY    CA666124   0.456   2.646   4.197 -0.2779  0.1035 -0.3638
 2645THY    HA666125   0.551   2.644   4.145 -0.3400 -1.3934 -0.4650
 2646THY      O66126   1.889   9.005   1.068  0.5513  0.4665 -0.5872
 2646THY     HO66127   1.890   9.036   1.160 -0.0338  3.5308 -1.5052
 2646THY    CA166128   1.867   8.869   1.065  0.2275 -0.1289 -0.0166
 2646THY    CA266129   1.757   8.805   1.134 -0.6479 -0.2332 -0.5232
 2646THY    CP166130   1.668   8.886   1.223 -0.3406 -0.4742  0.0176
 2646THY    HP166131   1.687   8.993   1.211 -1.7768 -0.1544  0.3407
 2646THY    CP266132   1.517   8.876   1.176  0.1148  0.4008 -0.1075
 2646THY    HP266133   1.447   8.933   1.239 -0.5358 -1.1390  0.5951
 2646THY    HP366134   1.515   8.907   1.071 -0.1883  1.4655  0.1939
 2646THY    HP466135   1.472   8.776   1.173  1.4495 -0.2515  0.6909
 2646THY    CP366136   1.673   8.859   1.365  0.1226 -0.0774  0.5349
 2646THY    HP566137   1.640   8.757   1.388  3.0587 -1.1080  0.6042
 2646THY    HP666138   1.775   8.870   1.404 -0.4011 -1.2850  2.3653
 2646THY    HP766139   1.612   8.932   1.419 -0.4714 -1.0320  1.1896
 2646THY    CA366140   1.741   8.662   1.119 -0.3275 -0.0848 -0.2914
 2646THY    HA366141   1.659   8.611   1.169  0.8813  0.1441  2.0662
 2646THY    CA466142   1.834   8.587   1.038  0.9048 -1.1525  0.9701
 2646THY    HA466143   1.831   8.479   1.032 -1.4834 -1.2275  2.2144
 2646THY    CA566144   1.929   8.655   0.962 -0.4761 -0.0598  0.1149
 2646THY    CM166145   2.029   8.581   0.876 -0.0478 -0.3211  0.3575
 2646THY    HM166146   2.009   8.473   0.878  1.4663 -0.6182  1.2711
 2646THY    HM266147   2.027   8.604   0.768  5.6592  0.6680  0.1359
 2646THY    HM366148   2.129   8.605   0.913 -0.1932 -2.4953  2.3648
 2646THY    CA666149   1.946   8.791   0.979 -0.2905  0.1308  0.2612
 2646THY    HA666150   2.006   8.844   0.907 -1.6879  2.0755  0.4414
 2647THY      O66151   6.588   3.549   8.819  0.2643  0.3119 -0.2947
 2647THY     HO66152   6.674   3.544   8.864 -0.1628 -0.0780  0.4878
 2647THY    CA166153   6.506   3.457   8.876 -0.0245  1.0646 -1.3514
 2647THY    CA266154   6.392   3.399   8.819  0.1449  0.1150 -0.2375
 2647THY    CP166155   6.374   3.422   8.671 -0.0383  0.9673  0.3433
 2647THY    HP166156   6.432   3.507   8.632  0.6425 -0.2365 -1.3637
 2647THY    CP266157   6.415   3.298   8.584  0.1143  0.1503 -0.7354
 2647THY    HP266158   6.359   3.204   8.599  1.8445 -0.9640 -1.0181
 2647THY    HP366159   6.402   3.321   8.478 -0.5893 -0.4314 -0.7828
 2647THY    HP466160   6.519   3.277   8.611 -0.2669  0.5828  1.2527
 2647THY    CP366161   6.225   3.464   8.630 -0.4686  0.2735  0.4756
 2647THY    HP566162   6.215   3.479   8.522 -1.6920 -1.9178  0.2503
 2647THY    HP666163   6.155   3.382   8.645 -2.3717  1.8322  0.5105
 2647THY    HP766164   6.186   3.554   8.679 -2.3585  0.1941 -0.7849
 2647THY    CA366165   6.299   3.323   8.894 -0.3434  1.3065  0.2641
 2647THY    HA366166   6.218   3.263   8.853  1.4231 -1.4814  0.5525
 2647THY    CA466167   6.336   3.302   9.025  0.1266  0.4029 -0.0367
 2647THY    HA466168   6.274   3.235   9.085 -0.3262 -1.3057 -2.2700
 2647THY    CA566169   6.443   3.365   9.082 -0.3544  0.3586 -1.3768
 2647THY    CM166170   6.469   3.344   9.227 -0.2944  0.2161  0.3011
 2647THY    HM166171   6.373   3.320   9.273 -0.8191 -1.9404 -1.7218
 2647THY    HM266172   6.549   3.271   9.246  0.1761  1.1111  1.9395
 2647THY    HM366173   6.506   3.439   9.267 -0.1367  0.2172  0.1543
 2647THY    CA666174   6.535   3.435   9.010  0.0193 -0.1906  0.0015
 2647THY    HA666175   6.621   3.481   9.058  1.0557 -2.1180  0.1112
 2648THY      O66176   1.878   3.946   0.952  0.1593 -0.2751 -0.3523
 2648THY     HO66177   1.815   3.931   1.025 -0.6114 -0.5297 -1.0617
 2648THY    CA166178   1.894   3.834   0.887 -0.5291 -0.3347 -0.5072
 2648THY    CA266179   1.920   3.834   0.748  0.2577  0.1911  0.7176
 2648THY    CP166180   1.941   3.965   0.669  0.3444  0.3027  0.7212
 2648THY    HP166181   1.957   4.042   0.745 -0.6009 -0.2170  1.4723
 2648THY    CP266182   2.059   3.961   0.573  0.7352 -0.4117  0.2869
 2648THY    HP266183   2.145   3.922   0.629 -0.0594 -0.7005  1.3282
 2648THY    HP366184   2.044   3.892   0.489 -0.7036 -0.4590  0.5551
 2648THY    HP466185   2.075   4.050   0.511  1.2379 -0.2496  0.6449
 2648THY    CP366186   1.817   3.997   0.592 -0.0437 -0.3186  0.4543
 2648THY    HP566187   1.792   3.924   0.514 -0.5894  0.2705  0.0616
 2648THY    HP666188   1.730   3.997   0.659  1.0892  2.5398  2.0765
 2648THY    HP766189   1.823   4.095   0.544 -0.0079 -0.8206 -0.6077
 2648THY    CA366190   1.950   3.713   0.685 -0.6264 -0.0603  0.3266
 2648THY    HA366191   1.965   3.703   0.578 -1.2546  2.0748  0.0005
 2648THY    CA466192   1.936   3.593   0.755  0.0459 -0.3945 -0.5410
 2648THY    HA466193   1.961   3.497   0.710  0.3936 -1.3636  1.5903
 2648THY    CA566194   1.895   3.594   0.885  0.1631  0.0821 -0.3351
 2648THY    CM166195   1.880   3.467   0.960 -0.0241  0.1027 -0.2974
 2648THY    HM166196   1.789   3.475   1.021  0.2192 -1.2220  0.2737
 2648THY    HM266197   1.871   3.383   0.889 -0.9385  0.8465 -1.0929
 2648THY    HM366198   1.966   3.459   1.027  0.4650  1.1824 -0.7734
 2648THY    CA666199   1.872   3.715   0.954  0.5256 -0.0608  0.2416
 2648THY    HA666200   1.849   3.713   1.060 -0.1855  0.9905  0.1228
 2649THY      O66201   1.969   1.102   8.016 -0.5562 -0.1533 -0.0076
 2649THY     HO66202   2.040   1.151   8.059  0.6858  1.2012 -3.2923
 2649THY    CA166203   1.935   1.164   7.898 -0.1712  0.3439 -0.3469
 2649THY    CA266204   1.851   1.109   7.802  0.3737 -0.3321  0.4282
 2649THY    CP166205   1.803   0.962   7.814  0.1253  0.4734 -0.2189
 2649THY    HP166206   1.792   0.946   7.922 -0.7293 -1.0105 -0.4971
 2649THY    CP266207   1.665   0.925   7.761  0.6849  0.2273  0.2191
 2649THY    HP266208   1.667   0.903   7.654 -1.2929  1.6567 -0.1712
 2649THY    HP366209   1.625   0.838   7.814  1.8263 -0.2897  0.2524
 2649THY    HP466210   1.594   1.005   7.786  1.4344  0.6551  1.0356
 2649THY    CP366211   1.920   0.858   7.777  0.8139  0.0919  0.5635
 2649THY    HP566212   1.883   0.756   7.791  1.4619  0.0476  2.1860
 2649THY    HP666213   1.960   0.876   7.677  1.2170 -1.5650  0.4008
 2649THY    HP766214   2.005   0.880   7.842  0.7925  0.4647  0.4707
 2649THY    CA366215   1.826   1.173   7.677  1.3817  0.6261 -0.3289
 2649THY    HA366216   1.759   1.126   7.604 -0.7975 -0.2467  2.0750
 2649THY    CA466217   1.885   1.291   7.653  1.1364  0.3472  0.0220
 2649THY    HA466218   1.867   1.342   7.559  1.7953  0.5408 -0.0064
 2649THY    CA566219   1.970   1.358   7.748  0.1761  0.0527 -0.9078
 2649THY    CM166220   2.033   1.487   7.720  0.2560  0.0413  0.2694
 2649THY    HM166221   1.947   1.555   7.721 -1.0694 -1.5580 -0.4436
 2649THY    HM266222   2.093   1.526   7.803  0.8556  1.5099 -0.8134
 2649THY    HM366223   2.096   1.477   7.631  0.5686 -0.3890  0.5349
 2649THY    CA666224   1.994   1.291   7.872  0.1518  0.1332  0.2610
 2649THY    HA666225   2.069   1.323   7.944 -2.0886  0.6978  2.4594
 2650THY      O66226   0.134   9.854   0.171  0.6218  0.2547 -0.1934
 2650THY     HO66227   0.205   9.864   0.237  0.7646  1.3805 -0.4903
 2650THY    CA166228   0.049   9.956   0.207 -0.4397  0.7996  0.6733
 2650THY    CA266229   0.002  10.049   0.108 -0.2328 -0.4183 -0.2165
 2650THY    CP166230   0.056  10.040  -0.031 -0.4182 -0.1902 -0.5570
 2650THY    HP166231   0.075   9.935  -0.058 -0.7133  0.1589 -2.2769
 2650THY    CP266232  -0.029  10.072  -0.151 -0.0906 -0.4268  0.1275
 2650THY    HP266233   0.037  10.093  -0.236  0.8609  2.6093  1.4706
 2650THY    HP366234  -0.093   9.986  -0.174 -0.4177  0.1383 -1.1666
 2650THY    HP466235  -0.087  10.163  -0.134  1.5673  0.5544  0.7264
 2650THY    CP366236   0.186  10.120  -0.036 -0.4418 -0.5626  0.4572
 2650THY    HP566237   0.265  10.081   0.030 -0.1768  1.9396  1.7245
 2650THY    HP666238   0.227  10.124  -0.138 -0.2408 -2.8585  0.3758
 2650THY    HP766239   0.164  10.222  -0.004  1.9595  0.3218 -0.4955
 2650THY    CA366240  -0.092  10.155   0.143  0.2934  0.4107  0.4263
 2650THY    HA366241  -0.132  10.232   0.079  0.2148  0.4905  0.5703
 2650THY    CA466242  -0.142  10.154   0.270  0.7025  0.6458 -0.6230
 2650THY    HA466243  -0.221  10.219   0.304  0.8338 -0.5158  2.2409
 2650THY    CA566244  -0.110  10.054   0.360 -0.1181  0.8587 -0.4274
 2650THY    CM166245  -0.163  10.059   0.504 -0.6053  0.2658 -0.0315
 2650THY    HM166246  -0.094  10.113   0.569 -0.1793  1.1992 -1.2422
 2650THY    HM266247  -0.261  10.108   0.514  0.0046  1.1959  2.1750
 2650THY    HM366248  -0.161   9.958   0.545  1.8917 -0.3389 -1.4792
 2650THY    CA666249  -0.007   9.962   0.333 -0.2519  0.1851  0.0705
 2650THY    HA666250   0.026   9.887   0.405  0.7317  2.2354  1.8693
 2651THY      O66251   2.549   1.297   9.483  0.1988  0.7165 -0.3003
 2651THY     HO66252   2.603   1.335   9.554 -0.3390  1.2824 -0.1872
 2651THY    CA166253   2.618   1.193   9.430  0.2024  0.1660  0.0588
 2651THY    CA266254   2.570   1.066   9.415  0.4884  0.4620 -0.0229
 2651THY    CP166255   2.426   1.034   9.461  0.6046  0.5953  0.1655
 2651THY    HP166256   2.373   1.120   9.503 -0.9316 -0.3857  0.3256
 2651THY    CP266257   2.334   0.988   9.346 -0.5295  0.7753  0.2604
 2651THY    HP266258   2.373   1.032   9.253 -0.6630 -1.2546 -0.8236
 2651THY    HP366259   2.354   0.882   9.325  2.2974  1.4751 -1.1689
 2651THY    HP466260   2.229   1.018   9.351 -0.8446 -0.1770 -0.4129
 2651THY    CP366261   2.424   0.923   9.568  0.2128  0.0660  1.2028
 2651THY    HP566262   2.492   0.843   9.536 -1.9766 -0.5925 -2.4234
 2651THY    HP666263   2.468   0.969   9.657 -0.0875  1.1802  0.7920
 2651THY    HP766264   2.323   0.881   9.574  0.4297 -0.8047 -0.5852
 2651THY    CA366265   2.664   0.966   9.372 -0.1256  0.0929 -0.0224
 2651THY    HA366266   2.624   0.866   9.356  0.8657 -0.0895 -1.5582
 2651THY    CA466267   2.793   1.002   9.341 -0.0001  0.4761  0.7872
 2651THY    HA466268   2.871   0.932   9.312 -1.8827 -1.9492  1.2225
 2651THY    CA566269   2.834   1.134   9.367 -0.1019  0.2462 -0.0156
 2651THY    CM166270   2.978   1.169   9.327 -0.0761 -0.2362  0.7229
 2651THY    HM166271   3.021   1.120   9.240 -0.5035  0.6882 -0.0274
 2651THY    HM266272   2.981   1.277   9.310 -3.1208  0.0394  1.3591
 2651THY    HM366273   3.048   1.155   9.411  2.2776  1.6664 -0.8035
 2651THY    CA666274   2.749   1.227   9.424  0.2813 -0.0875  0.0927
 2651THY    HA666275   2.783   1.330   9.433  1.8498 -0.3669 -1.9072
 2652THY      O66276   5.430   1.631   4.593 -0.5321 -0.5602 -0.4380
 2652THY     HO66277   5.406   1.567   4.524  1.6491  0.9402 -2.7511
 2652THY    CA166278   5.458   1.743   4.530  0.1237 -1.0390 -0.3275
 2652THY    CA266279   5.580   1.821   4.543 -0.1401 -0.5085 -1.0080
 2652THY    CP166280   5.679   1.795   4.667  0.2166  0.3439 -0.0287
 2652THY    HP166281   5.642   1.722   4.741 -1.6772 -0.4331 -1.6540
 2652THY    CP266282   5.812   1.734   4.615  0.1329  0.2485  0.3697
 2652THY    HP266283   5.797   1.640   4.559 -0.7659  0.4635  0.2222
 2652THY    HP366284   5.864   1.800   4.544 -0.2271  1.9080  1.5892
 2652THY    HP466285   5.873   1.709   4.702 -0.7739 -0.9640  0.6867
 2652THY    CP366286   5.713   1.927   4.745  0.6506  0.1411 -0.3705
 2652THY    HP566287   5.786   1.900   4.822 -0.9929 -1.2521  0.7692
 2652THY    HP666288   5.762   2.000   4.679  0.3826  3.5209  2.8358
 2652THY    HP766289   5.625   1.976   4.787 -0.4650 -0.3335 -2.0793
 2652THY    CA366290   5.609   1.926   4.460 -0.0918  0.7275  0.4553
 2652THY    HA366291   5.704   1.977   4.474  0.8620 -0.5186 -1.0963
 2652THY    CA466292   5.530   1.955   4.351  0.2503  0.0340  0.5997
 2652THY    HA466293   5.545   2.037   4.281 -4.9865  0.5680 -0.2821
 2652THY    CA566294   5.410   1.881   4.332  0.4400  0.0406  0.1616
 2652THY    CM166295   5.318   1.905   4.210 -0.2554 -0.3059 -0.3252
 2652THY    HM166296   5.384   1.905   4.123  1.8349 -0.2270  1.1784
 2652THY    HM266297   5.240   1.829   4.193 -0.7076 -0.7813  3.1586
 2652THY    HM366298   5.268   2.002   4.221 -0.1362 -0.4079  1.3227
 2652THY    CA666299   5.383   1.773   4.423 -0.4458  0.8717  0.4774
 2652THY    HA666300   5.302   1.708   4.391  1.5031 -0.9705 -1.0808
 2653THY      O66301   6.346   2.155   1.352  0.2913  0.4544  0.2693
 2653THY     HO66302   6.256   2.160   1.317  1.4596  1.5242 -3.0028
 2653THY    CA166303   6.340   2.222   1.468  0.0780 -0.2585  0.2474
 2653THY    CA266304   6.446   2.262   1.548 -0.3750 -0.3623  0.5351
 2653THY    CP166305   6.589   2.240   1.500 -1.1220  0.8397  0.1575
 2653THY    HP166306   6.589   2.139   1.456  0.8675  1.7417 -2.1230
 2653THY    CP266307   6.655   2.329   1.399 -0.2146 -0.1130  0.5921
 2653THY    HP266308   6.599   2.325   1.305 -0.2097  1.8145  0.4845
 2653THY    HP366309   6.657   2.432   1.435 -0.7358  0.1161 -0.0195
 2653THY    HP466310   6.760   2.303   1.381  0.5626  1.4897  2.4905
 2653THY    CP366311   6.699   2.228   1.616  0.6266 -0.7214 -0.2525
 2653THY    HP566312   6.656   2.174   1.702 -2.9040  0.3303 -1.1684
 2653THY    HP666313   6.786   2.172   1.581  1.9767  0.6104  0.8438
 2653THY    HP766314   6.726   2.325   1.659  0.0087 -0.9622  0.7116
 2653THY    CA366315   6.427   2.326   1.670 -0.2448 -0.4833 -0.3237
 2653THY    HA366316   6.504   2.326   1.746  1.0118 -0.3400 -1.5727
 2653THY    CA466317   6.293   2.351   1.708  0.0789 -0.3142 -0.4252
 2653THY    HA466318   6.279   2.391   1.808  1.3477 -0.2452 -0.2498
 2653THY    CA566319   6.183   2.309   1.631 -0.1575 -0.0948 -0.3388
 2653THY    CM166320   6.041   2.321   1.684 -0.6845 -0.0594 -0.0108
 2653THY    HM166321   6.025   2.407   1.751 -1.0333  1.4472 -1.9618
 2653THY    HM266322   5.968   2.320   1.602 -1.5899 -0.4617  0.7700
 2653THY    HM366323   6.010   2.228   1.735  2.0039 -2.2083 -1.9630
 2653THY    CA666324   6.208   2.247   1.507 -0.1956  0.0101 -0.6813
 2653THY    HA666325   6.122   2.236   1.442  1.0702 -1.3858 -2.2071
 2654THY      O66326   4.376   6.036   5.805 -0.3927  0.0770 -0.0750
 2654THY     HO66327   4.298   5.978   5.801 -1.2913  0.9810  2.6239
 2654THY    CA166328   4.431   5.999   5.924 -0.0728 -0.3250  0.1865
 2654THY    CA266329   4.543   6.066   5.976 -0.1568  0.3070  0.4349
 2654THY    CP166330   4.622   6.164   5.887  0.5886 -0.1478  0.3408
 2654THY    HP166331   4.571   6.200   5.798  1.9071  0.5402 -0.1613
 2654THY    CP266332   4.627   6.292   5.962 -0.1345 -0.8780  0.4144
 2654THY    HP266333   4.525   6.317   5.993  0.4551  2.0632  0.2764
 2654THY    HP366334   4.688   6.275   6.051  1.0212 -1.3703 -0.4565
 2654THY    HP466335   4.662   6.370   5.892 -2.6073 -0.0064  0.0343
 2654THY    CP366336   4.750   6.102   5.832  0.4574 -0.7808  0.1360
 2654THY    HP566337   4.803   6.173   5.768  0.5703 -1.8706 -1.0252
 2654THY    HP666338   4.818   6.077   5.914 -1.2651 -2.6117  1.0986
 2654THY    HP766339   4.734   6.013   5.770 -1.3834 -1.9533  2.1356
 2654THY    CA366340   4.593   6.023   6.105  0.2479  0.1944 -0.0508
 2654THY    HA366341   4.688   6.053   6.148  0.8754  0.2852 -1.4460
 2654THY    CA466342   4.542   5.904   6.160  0.1459  1.0441 -0.7019
 2654THY    HA466343   4.586   5.857   6.247  1.1797 -1.5092 -2.4874
 2654THY    CA566344   4.431   5.837   6.102  0.2829  0.1631  0.1526
 2654THY    CM166345   4.371   5.719   6.169 -0.5897  0.4378  0.1137
 2654THY    HM166346   4.319   5.650   6.101 -0.9956  1.7546 -0.9644
 2654THY    HM266347   4.450   5.655   6.209 -1.5463 -0.8087  0.0815
 2654THY    HM366348   4.309   5.758   6.251  3.7298  3.0489  2.5027
 2654THY    CA666349   4.373   5.893   5.985  0.3754 -0.5634  0.5060
 2654THY    HA666350   4.288   5.844   5.940  0.2522  1.5663 -1.7596
 2655THY      O66351   9.431   9.505   5.622  1.5360  1.0286  0.0958
 2655THY     HO66352   9.440   9.408   5.617  0.2247  0.9182 -0.5629
 2655THY    CA166353   9.433   9.548   5.496  0.1325 -0.6412 -0.1462
 2655THY    CA266354   9.339   9.630   5.442  0.5735  0.9806  1.0596
 2655THY    CP166355   9.221   9.685   5.517 -0.4097  0.2344  0.1740
 2655THY    HP166356   9.233   9.659   5.623  1.7599 -1.5187 -0.4404
 2655THY    CP266357   9.208   9.839   5.503 -0.1691 -0.8808  0.1673
 2655THY    HP266358   9.142   9.882   5.580 -0.4257 -1.3129  0.1943
 2655THY    HP366359   9.302   9.891   5.522 -0.9624  1.8077 -2.4959
 2655THY    HP466360   9.177   9.865   5.401 -0.8027 -1.7053  0.1338
 2655THY    CP366361   9.097   9.622   5.470  0.6271  0.5712  0.1193
 2655THY    HP566362   9.008   9.641   5.531 -0.3275  1.0263 -1.3762
 2655THY    HP666363   9.075   9.649   5.366  2.0330  0.0847 -0.3402
 2655THY    HP766364   9.098   9.512   5.465  1.8503  0.4650  1.8723
 2655THY    CA366365   9.351   9.671   5.307 -0.0363  0.2260  0.3846
 2655THY    HA366366   9.280   9.737   5.258  1.7381  2.8788  1.1700
 2655THY    CA466367   9.446   9.613   5.231  0.0202  0.0829  0.6263
 2655THY    HA466368   9.440   9.628   5.123  2.3357 -0.1360  0.4311
 2655THY    CA566369   9.531   9.514   5.282 -0.2181 -0.5680  0.2148
 2655THY    CM166370   9.632   9.441   5.193  0.5518  0.0128 -0.3104
 2655THY    HM166371   9.601   9.446   5.088  1.1416 -1.4641 -0.5742
 2655THY    HM266372   9.730   9.491   5.199  0.2571  0.7198 -1.1617
 2655THY    HM366373   9.640   9.337   5.227  0.5132  0.6154  1.6826
 2655THY    CA666374   9.529   9.491   5.418  0.1391  0.1699 -0.3941
 2655THY    HA666375   9.601   9.424   5.464 -0.4697 -0.0002  0.3483
 2656THY      O66376   9.848   2.693   2.085 -0.3508 -0.3984 -0.0846
 2656THY     HO66377   9.855   2.777   2.134 -1.2160 -1.8605  2.7790
 2656THY    CA166378   9.812   2.708   1.961  0.0151  0.1070  0.0323
 2656THY    CA266379   9.758   2.595   1.897  0.3294 -0.6322 -0.2087
 2656THY    CP166380   9.759   2.455   1.971  0.3615  0.6646  0.0357
 2656THY    HP166381   9.846   2.446   2.037 -0.0794 -1.7690  0.3952
 2656THY    CP266382   9.643   2.443   2.069 -0.7467 -0.5000 -0.2403
 2656THY    HP266383   9.644   2.530   2.135  1.0610 -1.6166  1.3016
 2656THY    HP366384   9.552   2.447   2.008 -0.9025  2.2584  0.0496
 2656THY    HP466385   9.649   2.350   2.127 -0.0718 -2.1197 -2.7249
 2656THY    CP366386   9.755   2.338   1.865  0.0694 -0.0912 -0.6038
 2656THY    HP566387   9.658   2.315   1.820 -0.8600  1.0086  0.7854
 2656THY    HP666388   9.839   2.357   1.796  1.8620 -0.7011  1.2994
 2656THY    HP766389   9.776   2.245   1.919 -1.3955  1.0076  2.0002
 2656THY    CA366390   9.706   2.613   1.768  0.2079 -0.1272 -0.0165
 2656THY    HA366391   9.666   2.527   1.715 -2.7995  0.9279  0.3237
 2656THY    CA466392   9.706   2.736   1.703 -0.3984  0.0414 -0.2412
 2656THY    HA466393   9.668   2.741   1.601  3.1139 -0.3137 -1.7121
 2656THY    CA566394   9.764   2.849   1.774  0.5757  0.0036  0.0056
 2656THY    CM166395   9.752   2.984   1.721  0.0509  0.6071 -0.1241
 2656THY    HM166396   9.799   3.005   1.624 -0.3922  2.2872 -0.0034
 2656THY    HM266397   9.646   3.001   1.697 -0.2433 -2.5436 -1.5819
 2656THY    HM366398   9.795   3.064   1.782  0.9594  0.2243 -0.2527
 2656THY    CA666399   9.822   2.828   1.903 -0.0213  0.2991 -0.0340
 2656THY    HA666400   9.867   2.909   1.960  0.9992 -1.9591  2.5793
 2657THY      O66401   0.239   1.896   2.206  0.0870 -0.2597 -0.4413
 2657THY     HO66402   0.168   1.962   2.204 -0.3472 -0.6499  0.9937
 2657THY    CA166403   0.359   1.951   2.231 -0.2915  0.0155  0.1996
 2657THY    CA266404   0.485   1.894   2.216  0.3941  0.3731 -0.1401
 2657THY    CP166405   0.493   1.751   2.151  0.0977 -0.5223  0.5585
 2657THY    HP166406   0.412   1.744   2.078  0.8830  1.2013 -0.5394
 2657THY    CP266407   0.627   1.719   2.071  0.7421  0.3975 -0.0496
 2657THY    HP266408   0.620   1.618   2.028  0.6416  0.6797 -0.7200
 2657THY    HP366409   0.644   1.789   1.987  0.7211  0.9320  0.3849
 2657THY    HP466410   0.714   1.712   2.136 -0.1536  0.0736  1.1472
 2657THY    CP366411   0.483   1.640   2.254  0.5090 -0.4785 -0.5339
 2657THY    HP566412   0.387   1.649   2.306 -1.2542 -1.0742 -3.4316
 2657THY    HP666413   0.480   1.542   2.206 -0.7619 -0.4915 -0.4484
 2657THY    HP766414   0.570   1.650   2.320  0.0631  0.4560 -0.0603
 2657THY    CA366415   0.607   1.958   2.256  0.8286  0.4338 -0.3651
 2657THY    HA366416   0.703   1.912   2.235  0.5140 -0.3562 -0.1455
 2657THY    CA466417   0.598   2.092   2.307  0.1275  0.3563 -0.5091
 2657THY    HA466418   0.688   2.142   2.341 -1.2750  1.5405  1.6925
 2657THY    CA566419   0.474   2.152   2.322 -0.0774 -0.5313 -0.2332
 2657THY    CM166420   0.465   2.282   2.381  0.5898  0.1457 -0.9580
 2657THY    HM166421   0.551   2.351   2.379 -0.8374  1.9796 -1.4588
 2657THY    HM266422   0.388   2.341   2.331 -2.1780  1.1542  3.8474
 2657THY    HM366423   0.437   2.274   2.487  0.1262  1.3103 -0.9849
 2657THY    CA666424   0.352   2.081   2.288  0.2755  0.4344  0.0853
 2657THY    HA666425   0.260   2.130   2.320  2.0879  2.6561  2.2618
 2658THY      O66426   5.451   5.563   8.711  0.2287 -0.0454 -0.0273
 2658THY     HO66427   5.544   5.583   8.731  0.3348 -1.4133  1.0268
 2658THY    CA166428   5.433   5.432   8.753  0.3017 -0.6443 -0.3116
 2658THY    CA266429   5.315   5.357   8.723 -0.9086  0.1138  0.3271
 2658THY    CP166430   5.212   5.424   8.631  0.4648  0.7170  0.0970
 2658THY    HP166431   5.206   5.531   8.656  0.2037  0.4326  1.3046
 2658THY    CP266432   5.244   5.391   8.484  0.2601 -0.5456 -0.5809
 2658THY    HP266433   5.342   5.423   8.445 -0.3552 -0.7995 -2.4217
 2658THY    HP366434   5.230   5.282   8.475  3.5530 -1.2119  0.8207
 2658THY    HP466435   5.170   5.442   8.422  0.8267 -0.6527 -1.3610
 2658THY    CP366436   5.062   5.387   8.656  0.6371 -0.0976 -0.2897
 2658THY    HP566437   5.022   5.403   8.757  1.5188  0.4744 -0.0232
 2658THY    HP666438   4.996   5.444   8.590 -0.5184  0.4313  1.2466
 2658THY    HP766439   5.058   5.282   8.626  1.6303 -0.0699 -0.5405
 2658THY    CA366440   5.307   5.227   8.788 -0.1243 -0.2020  0.3545
 2658THY    HA366441   5.219   5.165   8.769  1.1275 -2.2017  0.8150
 2658THY    CA466442   5.404   5.187   8.883  0.0175 -0.1909 -0.0096
 2658THY    HA466443   5.379   5.094   8.933 -0.0620 -0.3841 -0.4046
 2658THY    CA566444   5.511   5.266   8.918 -0.2815  0.0413 -0.0049
 2658THY    CM166445   5.610   5.241   9.034 -0.0656  0.4297 -0.0109
 2658THY    HM166446   5.697   5.183   9.001  0.2278  1.6589 -1.5489
 2658THY    HM266447   5.637   5.332   9.090  1.5676  0.0101 -0.0811
 2658THY    HM366448   5.551   5.177   9.100 -0.2340 -2.9419 -3.1380
 2658THY    CA666449   5.525   5.386   8.846  0.1027  0.2441 -0.6372
 2658THY    HA666450   5.604   5.452   8.881  1.2244 -1.7853  0.8070
 2659THY      O66451   7.983   4.946   2.265  0.2195 -0.0788  0.4914
 2659THY     HO66452   7.988   4.912   2.174 -0.3028 -0.0507  0.4501
 2659THY    CA166453   8.041   5.072   2.249  0.3413  0.0730 -0.3932
 2659THY    CA266454   8.065   5.160   2.356  0.5675  0.4260 -0.1125
 2659THY    CP166455   8.007   5.133   2.499 -0.1222 -0.5086 -0.5429
 2659THY    HP166456   8.013   5.027   2.526  3.0844 -0.2029  0.4764
 2659THY    CP266457   8.095   5.167   2.619  0.4257  0.7124  0.3093
 2659THY    HP266458   8.186   5.104   2.620 -0.7083 -0.9927  0.6367
 2659THY    HP366459   8.121   5.273   2.632  0.8399  0.8209 -1.2554
 2659THY    HP466460   8.041   5.150   2.713  0.3497 -0.8552  0.0146
 2659THY    CP366461   7.875   5.197   2.528 -0.0613  0.7283 -0.0094
 2659THY    HP566462   7.828   5.134   2.604  2.9166  0.5813  1.8535
 2659THY    HP666463   7.896   5.292   2.578 -0.9935  1.2618 -0.6162
 2659THY    HP766464   7.816   5.206   2.436 -1.4210  0.4369  0.8090
 2659THY    CA366465   8.137   5.280   2.332  1.1343 -0.6982  0.0340
 2659THY    HA366466   8.155   5.352   2.411  1.0488 -0.2102 -0.3818
 2659THY    CA466467   8.173   5.315   2.197 -0.2162 -0.0652 -0.3695
 2659THY    HA466468   8.235   5.402   2.179 -1.2190  0.6370 -0.4596
 2659THY    CA566469   8.150   5.217   2.095 -0.0658 -0.3333 -0.0999
 2659THY    CM166470   8.180   5.246   1.947  0.0737  0.1074 -0.6256
 2659THY    HM166471   8.256   5.179   1.903 -1.5827 -0.3756 -2.9354
 2659THY    HM266472   8.091   5.230   1.885 -1.5421  0.3297  1.5558
 2659THY    HM366473   8.208   5.351   1.929 -0.0430  0.2651  0.1073
 2659THY    CA666474   8.083   5.102   2.119  0.5154 -0.1938 -0.7164
 2659THY    HA666475   8.063   5.028   2.042 -1.8507 -2.6024  1.9851
 2660THY      O66476   1.883   6.751   9.139 -0.4051 -0.3911  0.4653
 2660THY     HO66477   1.850   6.831   9.184 -1.5712 -0.5130 -0.1311
 2660THY    CA166478   1.987   6.784   9.054  0.3138  0.9071  0.1490
 2660THY    CA266479   2.028   6.685   8.964 -0.3518  0.0890 -0.4558
 2660THY    CP166480   1.960   6.545   8.944 -0.8204 -0.1008  0.6853
 2660THY    HP166481   1.883   6.528   9.020  0.6733 -2.0073  1.8766
 2660THY    CP266482   1.894   6.527   8.813  0.2104 -0.4846 -0.5130
 2660THY    HP266483   1.805   6.590   8.810  0.7433  0.2395 -1.4693
 2660THY    HP366484   1.956   6.551   8.726 -0.9999 -2.4474 -2.0041
 2660THY    HP466485   1.847   6.428   8.814  2.6810 -1.7444 -0.3278
 2660THY    CP366486   2.067   6.433   8.958  0.5069 -0.7649  0.0513
 2660THY    HP566487   2.135   6.426   8.872 -0.0662  1.7845 -0.7043
 2660THY    HP666488   2.126   6.461   9.045 -2.1484 -0.2474  1.8044
 2660THY    HP766489   2.021   6.336   8.978 -1.3242 -0.0927 -0.5768
 2660THY    CA366490   2.138   6.725   8.887  0.6389  0.2191 -0.4182
 2660THY    HA366491   2.175   6.650   8.819 -0.9047 -1.6959  0.7499
 2660THY    CA466492   2.203   6.844   8.901  0.2197  0.2175  0.2593
 2660THY    HA466493   2.294   6.866   8.846  0.9200  1.4492  1.8342
 2660THY    CA566494   2.155   6.938   8.985 -0.0964  0.0880  0.6388
 2660THY    CM166495   2.218   7.077   8.997 -0.5116  0.3653  0.7151
 2660THY    HM166496   2.158   7.143   8.934 -0.1531  0.3472  0.3542
 2660THY    HM266497   2.228   7.107   9.102  2.3090  0.9204  0.3497
 2660THY    HM366498   2.313   7.078   8.943 -1.6601 -0.4207 -1.4062
 2660THY    CA666499   2.042   6.908   9.061 -0.2928  0.5167 -0.4038
 2660THY    HA666500   1.996   6.978   9.131  0.7780 -2.1844  3.3412
 2661THY      O66501   4.710   8.459   2.531 -0.1043  0.1364  0.6328
 2661THY     HO66502   4.781   8.517   2.501  1.1755 -1.8655 -0.4541
 2661THY    CA166503   4.599   8.499   2.472  0.6302 -0.8012 -0.2212
 2661THY    CA266504   4.495   8.409   2.429  0.3224  0.1782 -0.1782
 2661THY    CP166505   4.524   8.255   2.456  0.4283  0.9950 -0.5570
 2661THY    HP166506   4.583   8.237   2.546 -0.7207  4.3052  1.0106
 2661THY    CP266507   4.398   8.160   2.448 -0.3008  0.0669  0.1732
 2661THY    HP266508   4.437   8.068   2.493  0.8229  0.3595 -0.1692
 2661THY    HP366509   4.324   8.206   2.515 -1.5639 -1.1795 -0.3181
 2661THY    HP466510   4.356   8.156   2.347  0.3122  2.8781 -0.2623
 2661THY    CP366511   4.613   8.205   2.340 -0.0809  0.0355  0.3165
 2661THY    HP566512   4.649   8.103   2.358  1.7108  0.5729 -0.0258
 2661THY    HP666513   4.561   8.208   2.244  0.5869  3.2504 -0.0515
 2661THY    HP766514   4.699   8.273   2.348 -0.1868 -0.0257  2.5203
 2661THY    CA366515   4.378   8.465   2.364 -0.0118  0.5006 -0.3457
 2661THY    HA366516   4.296   8.400   2.339  0.3585 -0.9474  1.8665
 2661THY    CA466517   4.364   8.598   2.352 -0.1642  0.3114  0.8300
 2661THY    HA466518   4.270   8.635   2.312  0.1360  0.0139 -0.1946
 2661THY    CA566519   4.467   8.687   2.395 -0.4043  1.3530 -0.1066
 2661THY    CM166520   4.445   8.830   2.384 -0.2501  0.1378 -0.0618
 2661THY    HM166521   4.462   8.865   2.282  0.3188  0.5193  0.1602
 2661THY    HM266522   4.340   8.846   2.411 -0.3189  0.8705 -0.7237
 2661THY    HM366523   4.516   8.888   2.444  0.2486  1.0173 -1.4666
 2661THY    CA666524   4.585   8.638   2.451  0.1281  0.7654  0.2927
 2661THY    HA666525   4.660   8.710   2.481  0.5274  2.2948 -3.8136
 2662THY      O66526   3.626   9.567   1.987 -0.2870 -0.1110 -0.1372
 2662THY     HO66527   3.709   9.617   1.989 -1.1593  1.3915  0.0331
 2662THY    CA166528   3.606   9.490   2.094  0.0285 -0.2688 -0.1378
 2662THY    CA266529   3.533   9.371   2.091 -0.4375  0.2863  0.0553
 2662THY    CP166530   3.468   9.328   1.962 -1.1403  0.8141 -0.0614
 2662THY    HP166531   3.483   9.401   1.881 -0.8970  0.8093 -0.0199
 2662THY    CP266532   3.550   9.206   1.916 -0.0625 -0.7919  0.5332
 2662THY    HP266533   3.656   9.234   1.907 -0.3359  0.0004 -0.4168
 2662THY    HP366534   3.552   9.117   1.980  0.5966 -1.7590 -0.7728
 2662THY    HP466535   3.507   9.178   1.819  0.4573 -3.3786  0.9893
 2662THY    CP366536   3.326   9.290   1.989  0.8738  0.3769 -0.0310
 2662THY    HP566537   3.316   9.186   2.023  0.3636  0.3053 -0.3713
 2662THY    HP666538   3.279   9.370   2.047 -0.5897  2.5615 -3.8388
 2662THY    HP766539   3.266   9.297   1.897 -0.9812 -1.5634  0.9377
 2662THY    CA366540   3.535   9.286   2.201  0.1121 -0.4966  0.3564
 2662THY    HA366541   3.487   9.190   2.186 -1.4268  0.4566 -1.2466
 2662THY    CA466542   3.612   9.315   2.312  0.6238  0.1316 -1.2091
 2662THY    HA466543   3.603   9.257   2.403 -1.2415  2.7371  0.4225
 2662THY    CA566544   3.678   9.440   2.322 -0.0701 -1.0433  0.3743
 2662THY    CM166545   3.742   9.486   2.443 -0.4971 -0.0251  0.1545
 2662THY    HM166546   3.851   9.471   2.449 -0.6267 -0.3409  3.3972
 2662THY    HM266547   3.724   9.594   2.451  1.4395  0.4888 -1.5823
 2662THY    HM366548   3.703   9.438   2.534  1.0052 -0.6247  0.5162
 2662THY    CA666549   3.681   9.522   2.205 -0.0534  0.9143 -0.3237
 2662THY    HA666550   3.731   9.618   2.206  2.5077 -0.3199 -0.0487
 2663THY      O66551   3.551   3.095   5.054  0.9725  0.1585  0.7202
 2663THY     HO66552   3.584   3.036   5.124  0.7389 -2.3566 -1.1461
 2663THY    CA166553   3.619   3.210   5.049 -0.1354 -0.0570  0.5819
 2663THY    CA266554   3.555   3.324   5.013  0.6678  1.1063  0.2518
 2663THY    CP166555   3.403   3.322   4.971  1.0995 -0.2118 -0.1458
 2663THY    HP166556   3.355   3.224   4.979  1.2701 -0.2449  0.5257
 2663THY    CP266557   3.324   3.426   5.055  0.5565  1.1579  0.3171
 2663THY    HP266558   3.351   3.532   5.042  1.5926  0.7955 -0.5941
 2663THY    HP366559   3.218   3.408   5.038  0.8753 -0.2504 -0.2977
 2663THY    HP466560   3.345   3.419   5.163  0.1527  0.7155  0.3658
 2663THY    CP366561   3.387   3.357   4.824 -0.0980  0.4725  0.1659
 2663THY    HP566562   3.415   3.459   4.798 -3.0526  0.9754 -1.5666
 2663THY    HP666563   3.440   3.281   4.766  0.6602  2.0765 -1.2944
 2663THY    HP766564   3.283   3.345   4.790  0.0118  1.4108 -0.5394
 2663THY    CA366565   3.630   3.445   5.005 -0.2332  0.5020 -0.8324
 2663THY    HA366566   3.578   3.531   4.965  0.3288  2.4336  2.2541
 2663THY    CA466567   3.765   3.442   5.044  0.2557  0.2739 -0.0378
 2663THY    HA466568   3.819   3.535   5.044 -0.3251  0.6296 -0.8353
 2663THY    CA566569   3.828   3.326   5.081  0.6787  0.0763  0.5732
 2663THY    CM166570   3.971   3.323   5.124 -0.1211 -0.2375  0.5150
 2663THY    HM166571   3.982   3.288   5.227  0.3163 -1.4381  0.0863
 2663THY    HM266572   4.026   3.264   5.049  0.7223  0.5705  0.4907
 2663THY    HM366573   4.001   3.428   5.118  0.1217 -0.3073  0.4832
 2663THY    CA666574   3.759   3.207   5.082 -0.2371  0.0556 -0.0739
 2663THY    HA666575   3.812   3.114   5.102  1.0059  1.1669  2.1285
 2664THY      O66576   5.286   4.442   0.859  0.1004 -0.3056  0.3280
 2664THY     HO66577   5.278   4.409   0.767  1.5072  0.8064 -0.2279
 2664THY    CA166578   5.425   4.452   0.868  0.7652  0.3471 -1.2822
 2664THY    CA266579   5.480   4.558   0.947  0.5647 -0.0753  0.0788
 2664THY    CP166580   5.384   4.655   1.027 -0.9032  0.0956 -0.1024
 2664THY    HP166581   5.321   4.583   1.081  0.1214 -1.3352 -0.7543
 2664THY    CP266582   5.449   4.731   1.141 -0.4341  0.7793 -0.3065
 2664THY    HP266583   5.513   4.814   1.110  0.0324  0.5793  0.1164
 2664THY    HP366584   5.380   4.755   1.223  0.7617 -2.2566  1.7545
 2664THY    HP466585   5.514   4.660   1.192 -0.3671  1.6278  0.8334
 2664THY    CP366586   5.316   4.752   0.933 -0.6421  0.4832  0.1815
 2664THY    HP566587   5.253   4.700   0.860 -0.3566 -0.6959  0.7496
 2664THY    HP666588   5.248   4.813   0.995 -1.2686 -1.5961  1.6542
 2664THY    HP766589   5.390   4.814   0.883 -0.1435 -0.6124 -0.4708
 2664THY    CA366590   5.619   4.562   0.949 -0.4781 -0.1142 -0.8050
 2664THY    HA366591   5.670   4.636   1.011  0.7968 -2.7881  1.5515
 2664THY    CA466592   5.692   4.477   0.872 -0.9763  0.5086 -0.1030
 2664THY    HA466593   5.800   4.483   0.868 -0.8635 -0.7940  0.4742
 2664THY    CA566594   5.637   4.385   0.794 -0.0406  0.5978  0.2741
 2664THY    CM166595   5.731   4.304   0.700  0.1640 -0.1286  0.6600
 2664THY    HM166596   5.692   4.202   0.691 -0.8150  0.2089  0.9559
 2664THY    HM266597   5.729   4.336   0.595 -0.5386  0.0101  0.7058
 2664THY    HM366598   5.835   4.302   0.733 -0.5267 -2.8806  3.0926
 2664THY    CA666599   5.498   4.365   0.795 -0.5409  0.2902 -0.4099
 2664THY    HA666600   5.452   4.280   0.747 -1.6464  0.2367  0.6836
 2665THY      O66601   6.057   4.910   5.031 -0.2152 -0.4214 -0.2209
 2665THY     HO66602   6.084   4.976   4.966 -0.4302 -1.8139 -1.7842
 2665THY    CA166603   6.180   4.863   5.068  0.0373  0.8461  0.1770
 2665THY    CA266604   6.205   4.817   5.197 -0.1610 -0.1409 -0.2079
 2665THY    CP166605   6.100   4.831   5.310 -0.4193 -0.8535  0.6740
 2665THY    HP166606   6.010   4.880   5.269 -0.1280  1.1114  2.2374
 2665THY    CP266607   6.046   4.697   5.343  0.5718  0.6149 -0.1059
 2665THY    HP266608   6.045   4.629   5.257 -2.4669 -0.9313  0.9985
 2665THY    HP366609   6.110   4.639   5.411 -0.4442 -0.0396  0.3131
 2665THY    HP466610   5.948   4.702   5.392  0.7653 -2.3580  0.7830
 2665THY    CP366611   6.150   4.894   5.435  0.3462 -0.0084 -0.3082
 2665THY    HP566612   6.252   4.869   5.464  0.4741 -0.5420 -1.1872
 2665THY    HP666613   6.142   5.002   5.414 -0.5949 -0.3442 -1.8638
 2665THY    HP766614   6.077   4.890   5.516 -1.4158 -0.5290 -1.8473
 2665THY    CA366615   6.329   4.752   5.225  0.3116  0.0313  0.2390
 2665THY    HA366616   6.347   4.712   5.324 -1.2957 -0.8639  0.2033
 2665THY    CA466617   6.430   4.764   5.134 -0.1934 -0.7131 -0.0236
 2665THY    HA466618   6.531   4.729   5.156  0.5520 -0.3309 -2.5397
 2665THY    CA566619   6.411   4.809   5.009  0.0761 -0.0720 -0.2925
 2665THY    CM166620   6.523   4.810   4.909  0.1458 -0.4655  0.4984
 2665THY    HM166621   6.575   4.714   4.901  1.6565  0.2712  0.9718
 2665THY    HM266622   6.492   4.846   4.810 -0.5650 -1.1449  0.4729
 2665THY    HM366623   6.595   4.885   4.943  2.0805 -2.3014  0.6562
 2665THY    CA666624   6.281   4.857   4.976  0.2369 -0.8487  0.0629
 2665THY    HA666625   6.256   4.894   4.877 -1.2995 -0.3658  0.5987
 2666THY      O66626   8.388   8.012   2.987  0.2943 -0.1807 -0.0439
 2666THY     HO66627   8.357   7.921   3.002 -1.4879  0.4456  0.3404
 2666THY    CA166628   8.461   8.005   2.872 -0.3991 -0.2870  0.1422
 2666THY    CA266629   8.516   8.122   2.806  0.2776  0.1584 -0.1773
 2666THY    CP166630   8.482   8.260   2.868 -0.7858  0.3031  0.4412
 2666THY    HP166631   8.404   8.261   2.944 -1.5082  4.2585 -0.1024
 2666THY    CP266632   8.609   8.320   2.934  0.7921 -0.2112  0.2660
 2666THY    HP266633   8.678   8.357   2.858 -1.2261  1.6527 -0.7736
 2666THY    HP366634   8.596   8.412   2.993  1.3522 -0.5222  0.8867
 2666THY    HP466635   8.648   8.240   2.998  0.6576 -0.0765  0.5186
 2666THY    CP366636   8.443   8.362   2.760  0.4564  0.3189  0.1529
 2666THY    HP566637   8.402   8.455   2.802 -0.8819  0.0650 -0.5433
 2666THY    HP666638   8.521   8.386   2.687  1.4430  0.2053  1.1319
 2666THY    HP766639   8.360   8.326   2.698 -0.5682  0.1264  1.5827
 2666THY    CA366640   8.590   8.110   2.689  0.0932  0.3066 -0.3512
 2666THY    HA366641   8.640   8.199   2.654  2.1573  0.4737  2.6709
 2666THY    CA466642   8.594   7.989   2.625 -0.1759 -0.8333  0.2532
 2666THY    HA466643   8.641   7.989   2.527 -0.0858  0.9705  0.2662
 2666THY    CA566644   8.524   7.875   2.681 -0.6653 -0.1443  0.7461
 2666THY    CM166645   8.520   7.743   2.607  0.4164 -1.0024 -0.3562
 2666THY    HM166646   8.439   7.752   2.533  2.3026 -0.7599 -2.4856
 2666THY    HM266647   8.606   7.726   2.541  0.7789 -0.0175 -0.1462
 2666THY    HM366648   8.494   7.660   2.674 -2.7857 -0.1070 -0.3098
 2666THY    CA666649   8.467   7.885   2.811 -0.6158  0.7359  0.0143
 2666THY    HA666650   8.408   7.802   2.848  2.4007 -2.0554 -0.9192
 2667THY      O66651   9.440   5.466   4.270 -0.2392 -0.0110  0.2846
 2667THY     HO66652   9.443   5.497   4.178  0.1556 -1.3507 -0.1795
 2667THY    CA166653   9.312   5.458   4.307 -0.0834 -0.7109  0.0748
 2667THY    CA266654   9.266   5.402   4.429  0.0293  0.5140  0.0322
 2667THY    CP166655   9.374   5.354   4.523  0.7500  0.3184  0.1073
 2667THY    HP166656   9.469   5.330   4.473  1.2484 -1.3956  1.7634
 2667THY    CP266657   9.408   5.461   4.626  0.1720  0.0422  0.9264
 2667THY    HP266658   9.314   5.508   4.658 -0.0976  1.2027 -1.3863
 2667THY    HP366659   9.463   5.416   4.709 -0.5275  2.0000  2.5542
 2667THY    HP466660   9.470   5.538   4.578  2.3615 -1.9596  0.4009
 2667THY    CP366661   9.333   5.230   4.599 -0.1333  0.3019  0.3588
 2667THY    HP566662   9.258   5.244   4.678 -0.2583  0.3410  0.2347
 2667THY    HP666663   9.274   5.168   4.531 -0.9107  1.5618 -0.1615
 2667THY    HP766664   9.416   5.166   4.630 -0.4640  1.1133  3.2173
 2667THY    CA366665   9.127   5.373   4.445  0.1674 -0.3838 -0.1048
 2667THY    HA366666   9.094   5.335   4.541 -0.5099 -0.7827 -0.4819
 2667THY    CA466667   9.041   5.402   4.339  0.4274 -0.0177 -0.2973
 2667THY    HA466668   8.934   5.390   4.357  0.1041  2.3412 -0.1964
 2667THY    CA566669   9.088   5.474   4.228 -0.3233 -0.4795 -0.2806
 2667THY    CM166670   8.984   5.515   4.119  0.3239 -0.4015 -0.2369
 2667THY    HM166671   9.041   5.582   4.054 -1.5167  0.6062 -0.8818
 2667THY    HM266672   8.945   5.425   4.070 -0.6597 -0.7807  1.1925
 2667THY    HM366673   8.902   5.577   4.155 -1.1997 -2.0825 -0.6775
 2667THY    CA666674   9.222   5.488   4.207  0.6614 -0.5035 -0.4907
 2667THY    HA666675   9.253   5.527   4.111  0.5962 -2.5492 -1.3985
 2668THY      O66676   3.239   9.929   6.044  0.8318 -0.2115 -0.1789
 2668THY     HO66677   3.165   9.984   6.076  0.4910  0.6562 -2.2311
 2668THY    CA166678   3.228   9.807   6.099 -0.0842  0.3130  0.6489
 2668THY    CA266679   3.309   9.696   6.056 -0.3565 -0.0138 -0.0013
 2668THY    CP166680   3.402   9.711   5.932  1.0606 -0.0737  0.3813
 2668THY    HP166681   3.427   9.818   5.931 -0.5736  0.3800  1.9988
 2668THY    CP266682   3.529   9.633   5.951  0.7717  0.4651  0.0620
 2668THY    HP266683   3.507   9.526   5.956  2.0707  0.2309  1.4377
 2668THY    HP366684   3.613   9.650   5.882  0.8836 -0.4122 -0.0269
 2668THY    HP466685   3.566   9.668   6.048  0.5567  0.0072  0.3121
 2668THY    CP366686   3.309   9.675   5.809 -0.4387 -0.3754 -0.0904
 2668THY    HP566687   3.233   9.751   5.791 -0.6676 -0.6232 -0.1747
 2668THY    HP666688   3.374   9.668   5.721 -0.6520  0.5748 -0.3390
 2668THY    HP766689   3.269   9.573   5.814  0.4215 -0.7453 -0.4783
 2668THY    CA366690   3.282   9.570   6.117 -0.3224  1.1188 -0.2723
 2668THY    HA366691   3.329   9.481   6.076 -3.1397 -1.8435  2.3043
 2668THY    CA466692   3.186   9.555   6.220 -0.8740 -0.1431  0.5671
 2668THY    HA466693   3.156   9.454   6.248  0.7560 -1.8343 -3.1787
 2668THY    CA566694   3.121   9.666   6.264 -0.3221 -0.0532 -0.1383
 2668THY    CM166695   3.011   9.654   6.363 -0.3438 -0.5690  0.9128
 2668THY    HM166696   2.965   9.753   6.373  1.2941  0.7853 -3.1446
 2668THY    HM266697   2.945   9.584   6.311  0.3801  0.2884 -1.2630
 2668THY    HM366698   3.056   9.624   6.458 -0.4521 -0.7975  0.8922
 2668THY    CA666699   3.130   9.790   6.194  0.2382 -0.1805  0.0254
 2668THY    HA666700   3.069   9.876   6.219 -0.5001 -1.2516  2.1600
 2669THY      O66701   9.343   6.225   3.574 -0.2076 -0.1419  0.0794
 2669THY     HO66702   9.311   6.219   3.482  0.1547  1.2843 -0.1614
 2669THY    CA166703   9.444   6.319   3.577  0.3233 -0.1267 -0.3952
 2669THY    CA266704   9.451   6.426   3.669 -0.2746 -0.2403 -0.4353
 2669THY    CP166705   9.337   6.452   3.766  0.2216  0.3631 -0.0515
 2669THY    HP166706   9.288   6.357   3.791  0.8102  0.2728  0.8156
 2669THY    CP266707   9.367   6.518   3.902 -0.3377  0.2897  0.2922
 2669THY    HP266708   9.274   6.527   3.958  1.5093  2.7789  3.2830
 2669THY    HP366709   9.447   6.465   3.954 -2.2905 -1.4365  1.6620
 2669THY    HP466710   9.406   6.618   3.879  0.9476 -0.0449  0.9630
 2669THY    CP366711   9.226   6.530   3.697  0.2920 -0.1063 -0.1180
 2669THY    HP566712   9.138   6.537   3.763  0.0522  0.9724 -0.5414
 2669THY    HP666713   9.258   6.632   3.674  1.4317 -0.2710  0.6651
 2669THY    HP766714   9.191   6.482   3.605  1.3594 -1.4496  0.1477
 2669THY    CA366715   9.566   6.505   3.677 -0.1498  0.3807 -0.1340
 2669THY    HA366716   9.572   6.587   3.748  0.3778  0.6742 -0.5107
 2669THY    CA466717   9.669   6.490   3.581  0.1006  0.1621 -0.2380
 2669THY    HA466718   9.754   6.553   3.604 -0.0064  1.5118 -3.1613
 2669THY    CA566719   9.663   6.387   3.483  0.4409 -0.0522  0.4304
 2669THY    CM166720   9.760   6.352   3.380 -0.3549  0.7080  0.3417
 2669THY    HM166721   9.714   6.335   3.282 -2.1854 -0.3596  1.3164
 2669THY    HM266722   9.838   6.428   3.382 -1.1379  1.5278  2.2715
 2669THY    HM366723   9.802   6.255   3.409  3.3167  1.4854 -1.8263
 2669THY    CA666724   9.552   6.299   3.486  0.3903 -0.2537  0.6370
 2669THY    HA666725   9.552   6.217   3.414  1.3503 -1.5794  2.0826
 2670THY      O66726   7.695   7.835   4.132 -0.2860  0.3929 -0.4424
 2670THY     HO66727   7.755   7.816   4.206  0.5225  2.9222 -0.3348
 2670THY    CA166728   7.723   7.967   4.115  0.3101 -0.1874  0.6567
 2670THY    CA266729   7.640   8.065   4.052  0.3683 -0.1184 -1.2614
 2670THY    CP166730   7.491   8.035   4.039  0.3434 -0.3378 -0.9826
 2670THY    HP166731   7.463   7.932   4.066  0.0799  0.1256  0.5899
 2670THY    CP266732   7.419   8.122   4.153  0.3185  0.4219 -0.9456
 2670THY    HP266733   7.447   8.227   4.139 -0.6905  0.8228 -0.0585
 2670THY    HP366734   7.312   8.100   4.159  0.4053  0.2802  0.4856
 2670THY    HP466735   7.463   8.092   4.249  1.5799  0.8917 -1.3542
 2670THY    CP366736   7.430   8.066   3.900  0.4778  0.0654  0.2772
 2670THY    HP566737   7.472   8.002   3.821 -0.8976 -0.9782  0.3583
 2670THY    HP666738   7.324   8.037   3.902  0.5953 -0.5545 -1.3974
 2670THY    HP766739   7.439   8.171   3.869 -0.1575  0.0811  0.1230
 2670THY    CA366740   7.692   8.194   4.025  0.0342 -0.0984 -0.3739
 2670THY    HA366741   7.628   8.263   3.971 -0.8335 -2.0437 -1.9747
 2670THY    CA466742   7.818   8.220   4.054  0.2399 -0.2806 -0.0827
 2670THY    HA466743   7.858   8.320   4.038 -0.3314  0.1841  1.2670
 2670THY    CA566744   7.903   8.132   4.118 -0.2659  0.6620 -0.2696
 2670THY    CM166745   8.042   8.174   4.156 -0.0428  0.0820 -1.0056
 2670THY    HM166746   8.074   8.113   4.241 -1.2776 -0.2513 -0.7675
 2670THY    HM266747   8.107   8.155   4.069  0.1914 -0.0516 -0.8036
 2670THY    HM366748   8.046   8.280   4.183 -0.8569 -0.0205 -0.4729
 2670THY    CA666749   7.854   8.010   4.148 -0.6278  0.5426 -0.1524
 2670THY    HA666750   7.920   7.945   4.206 -0.2734 -0.0501 -1.1961
 2671THY      O66751   1.307   7.598   0.361  0.4242  0.2164  0.7843
 2671THY     HO66752   1.234   7.566   0.305  0.1390 -0.5919  1.5899
 2671THY    CA166753   1.401   7.633   0.272  0.0045 -0.7378  0.2894
 2671THY    CA266754   1.535   7.640   0.308  0.2622 -0.0185 -0.4960
 2671THY    CP166755   1.578   7.594   0.449  0.3014 -0.5840  0.8426
 2671THY    HP166756   1.496   7.594   0.522  0.3960  0.4830  0.9778
 2671THY    CP266757   1.640   7.457   0.446  0.8308 -0.3847 -0.3521
 2671THY    HP266758   1.696   7.437   0.354  1.3865  0.8932 -0.3197
 2671THY    HP366759   1.703   7.444   0.534 -0.0838  0.2499  0.4172
 2671THY    HP466760   1.567   7.375   0.443 -0.0017  0.3308 -0.0374
 2671THY    CP366761   1.688   7.693   0.510  0.1299 -0.3403  0.4600
 2671THY    HP566762   1.781   7.682   0.454 -0.3414 -1.1792 -0.1785
 2671THY    HP666763   1.669   7.798   0.485  1.0097 -0.6286 -1.5446
 2671THY    HP766764   1.702   7.684   0.619 -0.6053 -0.0012  0.5883
 2671THY    CA366765   1.630   7.671   0.208 -0.7632 -0.5607  0.1368
 2671THY    HA366766   1.737   7.667   0.230 -0.8424 -0.0736  0.6063
 2671THY    CA466767   1.594   7.710   0.079  0.1159  0.5829 -0.6751
 2671THY    HA466768   1.659   7.739  -0.003  1.6727  1.1961  0.7134
 2671THY    CA566769   1.460   7.710   0.049  0.1533 -0.0058  0.2376
 2671THY    CM166770   1.421   7.733  -0.096 -0.1095 -0.4449  0.2271
 2671THY    HM166771   1.472   7.812  -0.151 -1.5589  1.5546  1.5791
 2671THY    HM266772   1.428   7.646  -0.162 -0.3146  1.0435 -1.8419
 2671THY    HM366773   1.319   7.774  -0.094  0.1904  0.3413 -0.2084
 2671THY    CA666774   1.366   7.670   0.143  0.2665  0.4564 -0.1861
 2671THY    HA666775   1.261   7.665   0.115  0.8321 -1.4881 -2.2316
 2672THY      O66776   0.354   8.916   0.951 -0.0111  0.1316 -1.5198
 2672THY     HO66777   0.369   8.999   1.001 -2.6158 -0.1485 -0.1178
 2672THY    CA166778   0.468   8.837   0.972 -0.0879  0.1834 -1.0579
 2672THY    CA266779   0.505   8.723   0.901  0.0888 -0.1375 -0.3570
 2672THY    CP166780   0.405   8.670   0.803  0.3646 -0.7248 -0.3374
 2672THY    HP166781   0.323   8.741   0.785 -0.7877 -0.8985  3.3458
 2672THY    CP266782   0.465   8.613   0.681 -0.1049  0.0165  0.6612
 2672THY    HP266783   0.542   8.677   0.637 -0.4580  0.9286  1.3463
 2672THY    HP366784   0.515   8.519   0.704  0.4864 -0.0529 -0.7575
 2672THY    HP466785   0.389   8.593   0.604  1.4915 -0.7674 -0.8064
 2672THY    CP366786   0.328   8.559   0.868 -0.7202  0.1135 -0.1534
 2672THY    HP566787   0.225   8.557   0.830 -2.0693  1.7842  3.0178
 2672THY    HP666788   0.378   8.461   0.870  1.2610  1.0391  2.4521
 2672THY    HP766789   0.299   8.584   0.971 -1.2831  0.5699 -0.4141
 2672THY    CA366790   0.635   8.667   0.912  0.2551 -0.2013  0.1803
 2672THY    HA366791   0.662   8.583   0.848  1.2627  1.8094 -2.2586
 2672THY    CA466792   0.719   8.708   1.008 -0.4961  0.1716  0.0223
 2672THY    HA466793   0.816   8.659   1.018  0.1245  1.1064 -1.1515
 2672THY    CA566794   0.690   8.816   1.087  0.7020  0.4398 -0.3728
 2672THY    CM166795   0.789   8.875   1.177 -0.5598 -0.0635  0.2854
 2672THY    HM166796   0.892   8.844   1.154 -1.0804 -1.9290  0.3039
 2672THY    HM266797   0.777   8.983   1.169  0.9208  0.0006 -2.0012
 2672THY    HM366798   0.771   8.834   1.277 -0.7702 -1.4019 -0.2784
 2672THY    CA666799   0.566   8.876   1.072  1.0234 -0.0903  0.0807
 2672THY    HA666800   0.546   8.961   1.135  0.5375 -0.9600  1.1410
 2673THY      O66801   4.130   2.765   8.060  0.0145 -0.5058 -0.3738
 2673THY     HO66802   4.086   2.849   8.079 -0.5701 -0.5096 -1.6376
 2673THY    CA166803   4.175   2.756   7.931  0.0918  0.0559  0.0134
 2673THY    CA266804   4.208   2.626   7.885 -0.8978  0.0796 -0.4872
 2673THY    CP166805   4.192   2.500   7.976  0.1385 -1.2809  0.4402
 2673THY    HP166806   4.125   2.517   8.061  0.8138  0.6197  0.6206
 2673THY    CP266807   4.135   2.375   7.902 -0.3689  0.7142  0.0353
 2673THY    HP266808   4.040   2.389   7.849 -0.8018  1.4396  0.9926
 2673THY    HP366809   4.205   2.333   7.828 -0.8104 -0.1509  0.0967
 2673THY    HP466810   4.117   2.296   7.976 -1.0595  0.9950  0.1741
 2673THY    CP366811   4.330   2.467   8.031  0.0199  0.5196  0.7109
 2673THY    HP566812   4.395   2.446   7.944 -0.8658 -2.0823  0.5642
 2673THY    HP666813   4.382   2.542   8.091 -0.2180  0.0422  1.5265
 2673THY    HP766814   4.330   2.374   8.089 -1.1101  0.0338 -0.0246
 2673THY    CA366815   4.287   2.620   7.759 -0.1520  0.6984 -0.5859
 2673THY    HA366816   4.314   2.522   7.719  1.3697 -0.7390  3.4681
 2673THY    CA466817   4.325   2.741   7.695 -0.2595  0.6152 -0.2551
 2673THY    HA466818   4.379   2.734   7.601  0.4235 -1.4441  0.2284
 2673THY    CA566819   4.288   2.867   7.748  0.4915  0.6846  0.1988
 2673THY    CM166820   4.336   2.978   7.672 -1.4458  0.2131  0.0905
 2673THY    HM166821   4.394   2.945   7.585 -0.0525  0.2996  0.9637
 2673THY    HM266822   4.253   3.030   7.622 -0.7791  0.7958 -0.4270
 2673THY    HM366823   4.394   3.042   7.739  0.7192 -1.1782 -0.3367
 2673THY    CA666824   4.206   2.872   7.860  0.1480  0.1826  0.2229
 2673THY    HA666825   4.176   2.967   7.903  1.1166 -0.1343  1.6932
 2674THY      O66826   8.160   9.018   2.116 -0.0103 -0.0852  0.1637
 2674THY     HO66827   8.252   9.003   2.142  0.6513  1.1034 -1.3255
 2674THY    CA166828   8.089   8.901   2.121  0.2116 -0.5806 -0.0917
 2674THY    CA266829   7.949   8.898   2.152  0.3218 -0.0817 -0.1380
 2674THY    CP166830   7.876   9.020   2.209  0.3586 -0.1253  0.1579
 2674THY    HP166831   7.943   9.106   2.221 -0.2780  0.3192  0.6124
 2674THY    CP266832   7.762   9.058   2.109 -0.0641 -0.2043 -0.9765
 2674THY    HP266833   7.802   9.075   2.008 -0.5994  0.9038 -1.0059
 2674THY    HP366834   7.687   8.978   2.105 -2.4937  1.9872 -1.5723
 2674THY    HP466835   7.715   9.146   2.154  1.4668 -0.8839  2.3073
 2674THY    CP366836   7.819   8.982   2.344 -1.0654 -0.2393  0.2747
 2674THY    HP566837   7.898   8.939   2.407 -0.1959  0.8131 -0.0470
 2674THY    HP666838   7.766   9.068   2.388 -1.3284 -0.0756 -0.3423
 2674THY    HP766839   7.735   8.913   2.332 -2.8910  1.8372  0.5750
 2674THY    CA366840   7.876   8.777   2.137  0.6828 -0.2123  0.1393
 2674THY    HA366841   7.768   8.762   2.133  0.4366  1.5406 -1.0480
 2674THY    CA466842   7.952   8.658   2.108  0.4489 -1.2755  0.2555
 2674THY    HA466843   7.895   8.565   2.101  0.9020 -1.7315  2.0738
 2674THY    CA566844   8.090   8.665   2.091  0.1585 -0.3411  0.2798
 2674THY    CM166845   8.173   8.539   2.077 -0.3258 -0.4774  0.0825
 2674THY    HM166846   8.111   8.464   2.026  0.9713  0.1641 -2.5991
 2674THY    HM266847   8.267   8.552   2.022 -0.1904  0.1821  0.4491
 2674THY    HM366848   8.192   8.493   2.175 -2.0041 -2.7270 -0.5701
 2674THY    CA666849   8.157   8.784   2.092 -0.3878  0.1695 -0.1563
 2674THY    HA666850   8.259   8.777   2.056 -1.0116 -2.2810 -1.6636
 2675THY      O66851   1.668   9.283   9.139 -0.1028 -0.7150  0.2582
 2675THY     HO66852   1.631   9.222   9.205 -2.5480  0.7926  0.3866
 2675THY    CA166853   1.699   9.403   9.205 -0.2930  1.1130 -1.1914
 2675THY    CA266854   1.791   9.495   9.150 -0.2277  0.5929 -0.2390
 2675THY    CP166855   1.866   9.456   9.020  0.0152 -0.4016 -0.5026
 2675THY    HP166856   1.875   9.350   8.993 -0.6515 -0.6057  0.0449
 2675THY    CP266857   1.809   9.521   8.892 -0.0349  0.2919  0.0372
 2675THY    HP266858   1.851   9.482   8.799  0.2386  1.4089 -0.3202
 2675THY    HP366859   1.700   9.507   8.885 -0.0456  0.3188  0.1388
 2675THY    HP466860   1.828   9.629   8.891  0.9536  0.1718  1.8019
 2675THY    CP366861   2.013   9.504   9.037 -0.2513 -0.1801 -0.8388
 2675THY    HP566862   2.053   9.473   9.134  1.4756  2.3991 -0.6445
 2675THY    HP666863   2.079   9.453   8.966  1.5529 -1.1607  1.4186
 2675THY    HP766864   2.024   9.610   9.014 -1.3873 -0.0323 -0.7446
 2675THY    CA366865   1.803   9.623   9.210  0.2263  0.0426  0.3078
 2675THY    HA366866   1.862   9.705   9.169 -0.0447 -0.6800 -1.6240
 2675THY    CA466867   1.720   9.650   9.320  0.2005  0.3704 -0.1158
 2675THY    HA466868   1.717   9.751   9.360  1.7602 -0.4859  2.4109
 2675THY    CA566869   1.633   9.556   9.380 -0.6963  0.3832 -0.0861
 2675THY    CM166870   1.525   9.583   9.475 -0.2574  0.0687 -0.1680
 2675THY    HM166871   1.550   9.555   9.578 -0.5743 -0.5275 -0.2531
 2675THY    HM266872   1.500   9.690   9.480 -0.5003  0.0066 -0.0693
 2675THY    HM366873   1.435   9.523   9.463  0.6072 -1.4582  0.6755
 2675THY    CA666874   1.626   9.432   9.317 -0.0458  0.2046 -0.5114
 2675THY    HA666875   1.548   9.366   9.354 -0.6924  1.4968  0.4860
 2676THY      O66876   4.230   9.701   2.844 -0.8909 -0.2993  0.2116
 2676THY     HO66877   4.327   9.710   2.841 -0.5206 -3.2923  0.6313
 2676THY    CA166878   4.182   9.813   2.900  0.1117 -0.1581  0.1622
 2676THY    CA266879   4.064   9.810   2.970 -0.4120 -0.4970 -0.2419
 2676THY    CP166880   3.976   9.686   2.966 -0.7720  0.0607 -0.3026
 2676THY    HP166881   4.025   9.606   2.909  0.7656  0.8986 -0.2079
 2676THY    CP266882   3.975   9.612   3.109  0.4118 -0.2183  0.6373
 2676THY    HP266883   4.077   9.599   3.147  0.6681 -1.1295 -0.3150
 2676THY    HP366884   3.910   9.673   3.173  0.2385 -0.0999  0.3515
 2676THY    HP466885   3.940   9.508   3.106  1.8615 -0.7441  1.2007
 2676THY    CP366886   3.836   9.705   2.913  0.3593  0.3201  0.6359
 2676THY    HP566887   3.777   9.614   2.931  0.6015  0.0493  0.0992
 2676THY    HP666888   3.785   9.790   2.959 -0.3922 -0.7157  1.7694
 2676THY    HP766889   3.835   9.712   2.803 -1.1230 -2.5778  0.3605
 2676THY    CA366890   4.027   9.915   3.053  0.8313  0.5360 -0.1694
 2676THY    HA366891   3.945   9.921   3.125  4.1373 -0.0918  4.0216
 2676THY    CA466892   4.110  10.023   3.067 -1.0238  0.1115  0.4413
 2676THY    HA466893   4.084  10.113   3.122  1.7993  1.6796 -0.5789
 2676THY    CA566894   4.223  10.032   2.985 -0.0789 -0.4605  1.0458
 2676THY    CM166895   4.316  10.151   2.967  0.6058 -0.6731 -0.6072
 2676THY    HM166896   4.412  10.128   2.918  2.8681 -0.6667  3.4227
 2676THY    HM266897   4.252  10.226   2.920  0.6727 -1.0329 -1.2877
 2676THY    HM366898   4.347  10.184   3.066 -1.9170  2.4393 -0.6947
 2676THY    CA666899   4.257   9.924   2.905 -0.2431  0.0793 -0.1600
 2676THY    HA666900   4.342   9.929   2.838  0.6948 -1.9605  0.7711
 2677THY      O66901   9.929   2.495   6.806 -0.6351  0.3604  0.7925
 2677THY     HO66902   9.886   2.581   6.819  0.2465  1.0326 -0.4727
 2677THY    CA166903   9.847   2.394   6.780  0.1476 -0.9921 -0.0018
 2677THY    CA266904   9.887   2.261   6.783  0.1809  0.8010  0.3049
 2677THY    CP166905  10.029   2.219   6.831 -0.2529 -0.1215  0.5062
 2677THY    HP166906  10.074   2.300   6.889  1.3642 -0.5078 -0.1372
 2677THY    CP266907  10.026   2.088   6.917  0.1195  0.3189 -0.5494
 2677THY    HP266908   9.950   2.098   6.996 -0.3944  0.0005 -0.9981
 2677THY    HP366909  10.004   1.997   6.859 -1.4346  1.1481 -1.3436
 2677THY    HP466910  10.123   2.079   6.967 -0.1429  1.0772  0.1179
 2677THY    CP366911  10.126   2.196   6.713 -0.1954 -0.5222 -0.7173
 2677THY    HP566912  10.097   2.111   6.651 -0.7181 -2.0488  1.5125
 2677THY    HP666913  10.140   2.295   6.668  0.0097  0.2562  0.9871
 2677THY    HP766914  10.221   2.162   6.756  0.1410  0.9585 -0.2228
 2677THY    CA366915   9.793   2.157   6.762  0.5981 -0.1222 -0.0703
 2677THY    HA366916   9.823   2.055   6.782  2.9334  0.6232  0.6187
 2677THY    CA466917   9.661   2.193   6.723  1.0324  0.1033  0.1539
 2677THY    HA466918   9.582   2.122   6.699 -0.1072  1.2778  0.2972
 2677THY    CA566919   9.626   2.332   6.718  0.4802 -0.3451 -0.2866
 2677THY    CM166920   9.486   2.364   6.671 -0.3822 -0.3971 -0.5452
 2677THY    HM166921   9.408   2.312   6.727 -1.3557  0.2496 -1.2611
 2677THY    HM266922   9.459   2.471   6.670  0.5964 -0.1362 -1.1524
 2677THY    HM366923   9.484   2.332   6.566  3.2135 -1.5075 -0.4224
 2677THY    CA666924   9.715   2.432   6.748 -0.7265 -0.1338 -0.0881
 2677THY    HA666925   9.683   2.535   6.749 -1.1831 -0.2324 -1.9516
 2678THY      O66926   8.455   1.029   1.662 -0.1549  0.3492 -0.0309
 2678THY     HO66927   8.383   1.067   1.715 -0.7512  0.4220 -0.8743
 2678THY    CA166928   8.529   1.123   1.610 -0.2146  0.6379  0.1036
 2678THY    CA266929   8.663   1.089   1.574 -0.5108 -0.2202  0.4834
 2678THY    CP166930   8.727   0.950   1.604  0.2711  0.1681  0.3375
 2678THY    HP166931   8.655   0.879   1.647  0.6489  0.8539  2.2156
 2678THY    CP266932   8.778   0.877   1.475  0.3237 -0.0196 -0.0215
 2678THY    HP266933   8.801   0.773   1.500 -1.7903 -0.9280 -1.5633
 2678THY    HP366934   8.696   0.869   1.403 -0.7498  0.7094  1.0907
 2678THY    HP466935   8.867   0.919   1.427  0.6127 -0.4696  0.1109
 2678THY    CP366936   8.834   0.959   1.716  0.2027  0.2034 -0.2880
 2678THY    HP566937   8.928   0.990   1.668 -0.9957  0.3339 -2.6764
 2678THY    HP666938   8.808   1.024   1.800  0.9454  0.4247 -0.2179
 2678THY    HP766939   8.857   0.859   1.755 -1.2664 -0.7836 -1.8334
 2678THY    CA366940   8.739   1.188   1.505 -0.7176 -0.6159  0.2074
 2678THY    HA366941   8.843   1.170   1.480 -0.4969  0.8977 -0.0630
 2678THY    CA466942   8.683   1.321   1.500 -1.0372 -0.0157  0.1019
 2678THY    HA466943   8.742   1.399   1.452  0.3451  0.5289  2.5091
 2678THY    CA566944   8.558   1.348   1.547 -0.2306  0.3015 -0.1954
 2678THY    CM166945   8.496   1.485   1.546 -0.6116 -0.2991 -0.2955
 2678THY    HM166946   8.553   1.551   1.480  0.0494 -0.6174 -0.0539
 2678THY    HM266947   8.392   1.481   1.511 -0.7250  0.7739 -0.1231
 2678THY    HM366948   8.506   1.538   1.641 -0.0624 -0.7322 -0.1045
 2678THY    CA666949   8.479   1.252   1.612 -0.0294  0.4065  0.2998
 2678THY    HA666950   8.378   1.274   1.643 -0.6312 -2.9672  1.1683
 2679THY      O66951   5.256   6.010   2.353  0.2014 -0.0525  0.3249
 2679THY     HO66952   5.286   6.102   2.341  0.8026 -0.3264 -0.2850
 2679THY    CA166953   5.216   5.993   2.481 -0.0513 -0.7142 -0.2231
 2679THY    CA266954   5.170   5.869   2.525  1.1591 -0.6006 -0.9471
 2679THY    CP166955   5.158   5.748   2.430 -0.6851 -0.1462  0.1493
 2679THY    HP166956   5.254   5.759   2.378  0.2542  1.1897  2.0286
 2679THY    CP266957   5.146   5.610   2.499 -0.3772  0.2282 -0.4784
 2679THY    HP266958   5.052   5.607   2.555  1.2518  1.3235  2.5353
 2679THY    HP366959   5.142   5.539   2.415  0.6131 -1.4743  0.8585
 2679THY    HP466960   5.237   5.590   2.557 -0.0086 -0.7449 -1.3642
 2679THY    CP366961   5.029   5.755   2.330 -0.4201  0.3669  0.1161
 2679THY    HP566962   4.936   5.749   2.389  0.4075 -0.5631  1.3644
 2679THY    HP666963   5.035   5.843   2.264 -4.4734  1.0200  0.3371
 2679THY    HP766964   5.036   5.672   2.259 -1.2198  0.2445  0.1634
 2679THY    CA366965   5.118   5.862   2.656 -0.3932  1.2883 -0.2096
 2679THY    HA366966   5.066   5.778   2.701  0.4356  0.3308 -0.9922
 2679THY    CA466967   5.140   5.965   2.740 -0.2064 -0.0137 -0.0466
 2679THY    HA466968   5.093   5.961   2.837  0.5252  0.8413  0.3663
 2679THY    CA566969   5.209   6.082   2.703  0.3166  0.2739  0.2704
 2679THY    CM166970   5.220   6.192   2.813 -0.5351 -0.3328  0.8424
 2679THY    HM166971   5.122   6.208   2.861  0.2122  0.2158  2.2467
 2679THY    HM266972   5.301   6.182   2.886  0.0239  1.8558  0.5981
 2679THY    HM366973   5.253   6.288   2.770  1.2538 -0.4446  1.8913
 2679THY    CA666974   5.246   6.103   2.566 -0.0355  0.1361 -0.4162
 2679THY    HA666975   5.295   6.196   2.537  0.1499 -0.2718 -1.4582
 2680THY      O66976   1.475   9.625   3.921 -0.0145  0.0419  0.2468
 2680THY     HO66977   1.458   9.660   4.010  1.8588 -2.5407  1.7821
 2680THY    CA166978   1.424   9.501   3.912  0.2561  0.4025 -0.3185
 2680THY    CA266979   1.464   9.398   4.008  0.3701 -0.3354  0.2808
 2680THY    CP166980   1.569   9.428   4.112  0.0864  0.4568 -0.3379
 2680THY    HP166981   1.635   9.512   4.084 -0.7487  0.0888 -3.9075
 2680THY    CP266982   1.496   9.447   4.240 -0.1598 -0.0880 -0.6205
 2680THY    HP266983   1.430   9.534   4.249  0.7644  0.4012  2.9767
 2680THY    HP366984   1.441   9.356   4.267 -2.1025  1.9385  3.0552
 2680THY    HP466985   1.571   9.461   4.319 -0.4698 -2.3179  0.1239
 2680THY    CP366986   1.659   9.308   4.126  0.2794  0.0089  0.0927
 2680THY    HP566987   1.614   9.229   4.188  0.3780  0.0593  0.2312
 2680THY    HP666988   1.677   9.260   4.029  0.6172 -2.7396  1.4162
 2680THY    HP766989   1.747   9.329   4.188 -0.9421 -1.5333  2.5333
 2680THY    CA366990   1.396   9.272   3.996 -0.0674 -0.2192  0.5237
 2680THY    HA366991   1.411   9.201   4.076 -0.2428  0.0565  0.8042
 2680THY    CA466992   1.310   9.253   3.888  0.6180 -0.4802  0.6192
 2680THY    HA466993   1.251   9.162   3.889  1.5280 -1.1100 -0.4747
 2680THY    CA566994   1.298   9.346   3.784 -0.6395  0.5267  0.0664
 2680THY    CM166995   1.228   9.306   3.658 -0.6220  0.3745 -0.6596
 2680THY    HM166996   1.120   9.318   3.667 -0.6351 -0.3084  0.1489
 2680THY    HM266997   1.268   9.370   3.578 -1.3383  1.9697  0.1905
 2680THY    HM366998   1.252   9.204   3.628 -1.2641  0.5097 -1.6679
 2680THY    CA666999   1.354   9.468   3.796 -1.2754  0.2694  0.1028
 2680THY    HA667000   1.342   9.540   3.715  0.0850  0.0310 -0.3429
 2681THY      O67001   5.348   6.523   9.655  0.2611 -0.4752 -0.3117
 2681THY     HO67002   5.305   6.587   9.596  1.6204 -0.2384 -1.0858
 2681THY    CA167003   5.326   6.583   9.771  0.1689  0.5624  0.5049
 2681THY    CA267004   5.332   6.510   9.891  0.3508 -0.2428 -0.2708
 2681THY    CP167005   5.386   6.368   9.892  0.2657  0.0081 -0.3628
 2681THY    HP167006   5.348   6.314   9.805 -0.7131 -1.9292  1.1836
 2681THY    CP267007   5.535   6.347   9.878  0.1938 -0.7428  0.2229
 2681THY    HP267008   5.587   6.415   9.810  2.0772 -2.0890  0.2398
 2681THY    HP367009   5.592   6.379   9.966  1.4666 -2.2103 -0.0274
 2681THY    HP467010   5.567   6.244   9.857  1.4638 -0.7399  1.9474
 2681THY    CP367011   5.345   6.294  10.011  0.5085  1.2111  0.0115
 2681THY    HP567012   5.236   6.293  10.024  0.2037  3.4694 -1.7317
 2681THY    HP667013   5.380   6.191   9.995  0.1663  0.9700  0.8079
 2681THY    HP767014   5.398   6.323  10.102  1.6301  0.8511 -0.4926
 2681THY    CA367015   5.296   6.579  10.010 -0.1691 -0.1287 -0.1820
 2681THY    HA367016   5.315   6.535  10.107  1.7279 -2.2050 -1.4384
 2681THY    CA467017   5.249   6.714  10.003 -0.8114 -0.0626  0.9468
 2681THY    HA467018   5.224   6.768  10.094  1.9411  0.0077  1.7362
 2681THY    CA567019   5.235   6.775   9.881 -0.0751 -0.1625 -0.3352
 2681THY    CM167020   5.174   6.914   9.868  0.6114  0.0867 -0.8545
 2681THY    HM167021   5.102   6.918   9.950  0.4484  0.6472 -1.0177
 2681THY    HM267022   5.254   6.989   9.874  0.0334  0.5893  1.1120
 2681THY    HM367023   5.113   6.916   9.777  0.3766 -0.9097 -0.7235
 2681THY    CA667024   5.280   6.713   9.767  0.3463 -0.5817 -0.3443
 2681THY    HA667025   5.274   6.753   9.666 -0.4225 -1.6588 -0.7539
 2682THY      O67026   9.447   1.650   6.011  0.1647 -0.2670  0.1362
 2682THY     HO67027   9.390   1.687   6.080 -1.1683  0.8655 -1.5007
 2682THY    CA167028   9.404   1.712   5.900  0.5142  0.4608  0.5741
 2682THY    CA267029   9.484   1.737   5.787 -0.6401 -0.3436 -0.2411
 2682THY    CP167030   9.634   1.706   5.798 -0.3396 -0.1820  0.0318
 2682THY    HP167031   9.650   1.621   5.865 -0.0159 -0.6830 -0.6744
 2682THY    CP267032   9.694   1.650   5.664  0.3202 -0.2808  0.0517
 2682THY    HP267033   9.792   1.603   5.678 -0.4227 -2.2168 -0.8010
 2682THY    HP367034   9.627   1.569   5.631  1.3189 -1.2359  0.3147
 2682THY    HP467035   9.705   1.737   5.599 -0.5037  0.1748  0.4922
 2682THY    CP367036   9.706   1.834   5.844 -0.0888 -0.6922  0.7612
 2682THY    HP567037   9.681   1.909   5.768 -0.7698  0.6469  2.2550
 2682THY    HP667038   9.670   1.852   5.946  0.7799 -0.5677  1.0498
 2682THY    HP767039   9.814   1.819   5.852 -0.2126 -1.2352  1.5460
 2682THY    CA367040   9.426   1.798   5.669 -0.4321  0.3778 -0.5140
 2682THY    HA367041   9.483   1.839   5.587  2.8744  1.6512  2.1742
 2682THY    CA467042   9.287   1.812   5.677 -0.1369 -0.4934  0.4422
 2682THY    HA467043   9.237   1.846   5.587 -1.0212 -0.1339  1.0565
 2682THY    CA567044   9.213   1.778   5.782  0.0563 -0.6048 -0.5728
 2682THY    CM167045   9.063   1.801   5.771  0.1630 -0.1935 -0.1118
 2682THY    HM167046   9.031   1.870   5.692  1.6258  0.3732 -0.2498
 2682THY    HM267047   9.012   1.708   5.742 -1.9258  0.1521  2.1715
 2682THY    HM367048   9.017   1.827   5.867 -1.8965  0.4097 -1.2230
 2682THY    CA667049   9.267   1.740   5.902 -0.0220 -0.7167 -1.0104
 2682THY    HA667050   9.212   1.716   5.993  0.8015 -1.5339 -0.7044
 2683THY      O67051   4.943   9.215   2.546 -0.1033  1.0425 -0.2721
 2683THY     HO67052   4.948   9.288   2.482 -2.0615 -0.0782 -1.8588
 2683THY    CA167053   4.813   9.187   2.563 -0.5618 -0.5183  0.1378
 2683THY    CA267054   4.776   9.088   2.649  0.5951  0.7303  0.0862
 2683THY    CP167055   4.886   8.999   2.715  0.1021  0.3438 -0.2373
 2683THY    HP167056   4.991   9.016   2.689  0.4164 -0.1494  0.6501
 2683THY    CP267057   4.882   9.012   2.871 -0.4567 -0.1886  0.7620
 2683THY    HP267058   4.867   9.119   2.889 -2.0991 -0.1935 -0.3623
 2683THY    HP367059   4.801   8.951   2.912 -0.5417 -2.2162 -2.0593
 2683THY    HP467060   4.978   8.979   2.912 -0.7106  0.3287  1.7986
 2683THY    CP367061   4.865   8.850   2.668 -0.1481 -0.5290  0.3122
 2683THY    HP567062   4.760   8.825   2.684 -0.0839 -2.0633 -1.4421
 2683THY    HP667063   4.877   8.832   2.561 -2.0315  0.1461 -0.0509
 2683THY    HP767064   4.927   8.781   2.726 -1.4348 -1.7950  0.2319
 2683THY    CA367065   4.639   9.073   2.673  0.9289 -0.0770 -0.3855
 2683THY    HA367066   4.622   8.999   2.751  0.1557 -0.2873 -0.7421
 2683THY    CA467067   4.539   9.156   2.612  0.3833  0.4027  0.1318
 2683THY    HA467068   4.437   9.154   2.648  1.2513 -0.9413  2.7907
 2683THY    CA567069   4.581   9.261   2.532 -0.1594 -0.3794  0.6202
 2683THY    CM167070   4.493   9.361   2.465 -0.0496 -0.0780  0.0731
 2683THY    HM167071   4.426   9.311   2.393  0.2271  2.1743 -1.8671
 2683THY    HM267072   4.447   9.437   2.530  0.2195  0.6721 -0.5918
 2683THY    HM367073   4.552   9.415   2.390  0.4846  1.6375  1.6378
 2683THY    CA667074   4.716   9.272   2.505 -0.6978  0.8928  0.0667
 2683THY    HA667075   4.737   9.343   2.426  0.3300 -0.6607 -1.1280
 2684THY      O67076   8.910   7.599   4.666 -0.1880  0.3619  0.3939
 2684THY     HO67077   8.867   7.679   4.702  0.2717  0.6192  0.3839
 2684THY    CA167078   9.018   7.560   4.744 -0.3409  0.7540 -0.2668
 2684THY    CA267079   9.149   7.585   4.701  0.2641  0.7666  0.3730
 2684THY    CP167080   9.174   7.670   4.574 -0.0197  0.1329  0.9793
 2684THY    HP167081   9.087   7.736   4.555 -0.5201  0.0889  2.9305
 2684THY    CP267082   9.296   7.763   4.579  0.1070  0.2655  0.3574
 2684THY    HP267083   9.328   7.806   4.483 -0.0942 -1.6247 -0.6139
 2684THY    HP367084   9.279   7.843   4.652  3.5023  0.2620  1.3382
 2684THY    HP467085   9.384   7.719   4.628 -0.0939  0.0511  0.5254
 2684THY    CP367086   9.179   7.574   4.452 -0.6063 -0.2182 -0.9694
 2684THY    HP567087   9.267   7.509   4.454 -1.2148 -1.0413  0.5563
 2684THY    HP667088   9.097   7.502   4.460 -0.3347 -0.6833 -2.2027
 2684THY    HP767089   9.173   7.623   4.354 -0.7885  3.1803  0.5962
 2684THY    CA367090   9.252   7.512   4.757 -0.0218  0.3712 -0.0677
 2684THY    HA367091   9.351   7.521   4.715 -0.4898  1.2438 -1.0419
 2684THY    CA467092   9.220   7.425   4.866  0.0266 -0.0219  0.0232
 2684THY    HA467093   9.300   7.364   4.907  0.2226  1.1315  1.4283
 2684THY    CA567094   9.090   7.418   4.922  0.2824 -0.0110  1.1594
 2684THY    CM167095   9.061   7.337   5.042  0.3828 -0.0297  0.7712
 2684THY    HM167096   9.097   7.236   5.022  2.5101  1.1343 -1.8399
 2684THY    HM267097   9.113   7.385   5.126 -1.0439  0.9622  1.1224
 2684THY    HM367098   8.953   7.330   5.060  0.4977 -3.2727  0.8237
 2684THY    CA667099   8.987   7.493   4.866  0.7764 -0.3389 -0.6549
 2684THY    HA667100   8.887   7.487   4.906 -0.0530  2.1029 -2.1053
 2685THY      O67101   1.422   7.587   3.915 -0.0449 -0.4179 -0.1577
 2685THY     HO67102   1.424   7.676   3.954  1.3600 -0.3546 -0.3460
 2685THY    CA167103   1.506   7.516   3.989  0.4697 -0.1830  0.1193
 2685THY    CA267104   1.512   7.374   3.986 -0.7427  0.4929  0.2772
 2685THY    CP167105   1.440   7.305   3.873  0.5949 -0.2309 -0.1683
 2685THY    HP167106   1.416   7.377   3.793 -4.1640  0.2246  1.3061
 2685THY    CP267107   1.520   7.191   3.811 -0.1305  1.0748 -0.8251
 2685THY    HP267108   1.473   7.126   3.736 -0.4255  1.0300 -0.6027
 2685THY    HP367109   1.607   7.237   3.763  0.4935  1.0863  0.2759
 2685THY    HP467110   1.551   7.118   3.887 -1.2074  0.0820 -1.3007
 2685THY    CP367111   1.306   7.251   3.924 -0.5795 -0.4319  0.0211
 2685THY    HP567112   1.244   7.224   3.838 -1.8551  1.0309  0.4403
 2685THY    HP667113   1.329   7.166   3.990  0.2058  0.4002  0.8594
 2685THY    HP767114   1.244   7.322   3.981 -2.1855 -0.9463 -1.0069
 2685THY    CA367115   1.597   7.306   4.074  0.2259  0.3985  0.1052
 2685THY    HA367116   1.589   7.198   4.076  1.3440  0.3149  0.8441
 2685THY    CA467117   1.665   7.376   4.174  0.7823 -0.7789 -0.1027
 2685THY    HA467118   1.722   7.323   4.250  2.1931 -0.1726 -0.6985
 2685THY    CA567119   1.654   7.518   4.184  0.3497 -0.0220 -0.2723
 2685THY    CM167120   1.721   7.593   4.294 -0.0087  0.4051  0.2849
 2685THY    HM167121   1.760   7.532   4.376  1.1826 -1.6160 -1.6868
 2685THY    HM267122   1.805   7.654   4.257 -1.0746  0.8221 -1.5511
 2685THY    HM367123   1.645   7.664   4.330  0.7474  3.5529 -3.6390
 2685THY    CA667124   1.573   7.583   4.090  0.3972 -0.2404  0.1996
 2685THY    HA667125   1.574   7.692   4.098  1.7179 -0.1792 -0.4509
 2686THY      O67126   9.880   0.509   5.123 -0.8936 -0.4918  0.2312
 2686THY     HO67127   9.897   0.596   5.082  1.2321 -1.3565 -0.9047
 2686THY    CA167128  10.003   0.464   5.158  0.4497  0.3294 -0.4949
 2686THY    CA267129  10.027   0.439   5.299 -0.7748 -0.7709 -0.3500
 2686THY    CP167130   9.932   0.500   5.403 -0.5152  0.3524 -0.1089
 2686THY    HP167131   9.849   0.554   5.355 -1.0881 -0.8007 -0.4525
 2686THY    CP267132   9.863   0.379   5.477  0.5513  0.6603  0.2656
 2686THY    HP267133   9.828   0.307   5.402  0.3009 -1.2079  2.0898
 2686THY    HP367134   9.924   0.312   5.539 -0.6294 -0.1070  0.6269
 2686THY    HP467135   9.776   0.414   5.533  0.5114  0.8627  0.0783
 2686THY    CP367136   9.996   0.593   5.507  0.2888  0.2014  0.1171
 2686THY    HP567137  10.071   0.538   5.564  0.0348  0.1208  0.3780
 2686THY    HP667138  10.053   0.676   5.465  2.5265 -0.2996  1.9461
 2686THY    HP767139   9.923   0.640   5.574 -1.0156 -1.3761 -0.1269
 2686THY    CA367140  10.133   0.356   5.335  0.2144 -0.7721 -0.0622
 2686THY    HA367141  10.132   0.318   5.436 -1.5360  0.5165  0.4652
 2686THY    CA467142  10.218   0.312   5.232 -0.1949  0.0118  0.3729
 2686THY    HA467143  10.298   0.244   5.260  0.5955  0.9316  0.3695
 2686THY    CA567144  10.210   0.349   5.098 -0.5695 -0.6687  0.0706
 2686THY    CM167145  10.306   0.303   4.995  0.2037 -0.1597 -0.6354
 2686THY    HM167146  10.406   0.321   5.037  0.6721  0.0599 -1.8135
 2686THY    HM267147  10.292   0.200   4.958 -0.7553  0.6279 -2.5815
 2686THY    HM367148  10.292   0.361   4.903  0.8149 -0.4641 -0.9283
 2686THY    CA667149  10.092   0.416   5.063  0.5099  0.6475 -0.6317
 2686THY    HA667150  10.089   0.438   4.957  1.9384 -1.6420 -1.2342
 2687THY      O67151   2.979   8.823   8.029  0.4450 -0.4178 -0.2583
 2687THY     HO67152   2.886   8.841   8.010  0.8133  1.5321 -0.3518
 2687THY    CA167153   3.060   8.900   7.957  0.3489  0.0146  0.7965
 2687THY    CA267154   3.149   8.989   8.023  0.4030  0.7686  0.3439
 2687THY    CP167155   3.170   8.981   8.176  0.7110 -0.1287 -0.5587
 2687THY    HP167156   3.093   8.922   8.228  0.8822 -0.1244 -0.2995
 2687THY    CP267157   3.304   8.916   8.208 -0.7988 -0.3304  0.2109
 2687THY    HP267158   3.387   8.976   8.168 -0.2379  1.0896  3.1883
 2687THY    HP367159   3.315   8.920   8.317 -0.1256  2.2210  0.1098
 2687THY    HP467160   3.305   8.814   8.167 -0.3561 -0.0842 -0.4173
 2687THY    CP367161   3.169   9.119   8.241 -0.3287  0.3366  0.0420
 2687THY    HP567162   3.235   9.188   8.188 -0.2836  0.8334  0.7386
 2687THY    HP667163   3.065   9.152   8.228 -0.0287  0.9363 -0.8915
 2687THY    HP767164   3.191   9.105   8.347  1.6551  1.6797 -0.1349
 2687THY    CA367165   3.232   9.074   7.942  0.2727 -0.0713 -0.2600
 2687THY    HA367166   3.306   9.141   7.985  0.1335  1.1184 -1.7584
 2687THY    CA467167   3.216   9.075   7.802  0.0092 -0.1454  0.2752
 2687THY    HA467168   3.276   9.138   7.737 -1.8924  1.6715  0.1993
 2687THY    CA567169   3.117   8.995   7.741  0.0699  0.3615 -0.4395
 2687THY    CM167170   3.085   9.006   7.605  0.4524 -0.0119  0.3208
 2687THY    HM167171   3.005   8.936   7.577 -0.5208  0.7309  1.1842
 2687THY    HM267172   3.044   9.104   7.579  0.6324 -0.3111 -1.2125
 2687THY    HM367173   3.171   8.972   7.546  0.5517 -0.8517  0.9302
 2687THY    CA667174   3.045   8.901   7.819  0.7272 -0.3997 -1.1692
 2687THY    HA667175   2.977   8.826   7.779 -0.9220  0.0859  0.5566
 2688THY      O67176   1.814   5.651   2.763  0.0090  0.1303 -0.3157
 2688THY     HO67177   1.792   5.565   2.801 -2.3148  0.9493  0.3401
 2688THY    CA167178   1.934   5.633   2.688  0.2170  0.2594  0.1795
 2688THY    CA267179   2.011   5.745   2.648 -0.0483  0.0494  0.0850
 2688THY    CP167180   1.966   5.887   2.688 -0.5470 -0.2655 -0.1408
 2688THY    HP167181   1.859   5.885   2.711 -0.3623 -0.4543  0.7280
 2688THY    CP267182   2.045   5.946   2.803 -0.2218  0.3904  0.7802
 2688THY    HP267183   2.033   5.878   2.888  2.8528 -0.9851  0.2388
 2688THY    HP367184   2.148   5.955   2.765 -0.7227 -0.4020 -0.8249
 2688THY    HP467185   2.002   6.046   2.818 -3.2387 -0.7436  0.3713
 2688THY    CP367186   1.985   5.977   2.572  0.5162 -0.1727 -0.0541
 2688THY    HP567187   1.934   5.929   2.488 -0.9449 -0.3101  0.8802
 2688THY    HP667188   1.931   6.070   2.593  0.2943 -0.1757 -0.5819
 2688THY    HP767189   2.090   6.001   2.550  0.5092  2.3313  2.1054
 2688THY    CA367190   2.131   5.713   2.584  0.4332  0.5876  0.0118
 2688THY    HA367191   2.206   5.784   2.550  2.3405 -1.0241  0.6012
 2688THY    CA467192   2.168   5.584   2.544  0.2273  0.0945  0.1738
 2688THY    HA467193   2.260   5.563   2.490  0.2503 -3.0217  1.2399
 2688THY    CA567194   2.085   5.477   2.583  0.2022 -0.5773  0.0764
 2688THY    CM167195   2.100   5.338   2.537 -0.0545  0.5953  0.5767
 2688THY    HM167196   2.184   5.332   2.466 -0.2484  0.2027  0.3787
 2688THY    HM267197   2.120   5.270   2.620 -0.8342 -0.8943 -0.4122
 2688THY    HM367198   2.013   5.298   2.484 -0.1316  0.5917  0.7078
 2688THY    CA667199   1.971   5.504   2.658 -0.1486 -0.3771  0.6988
 2688THY    HA667200   1.910   5.416   2.674  1.0025 -1.2537  0.4186
 2689THY      O67201   3.317   4.979   1.624  0.0239 -0.5131 -0.3719
 2689THY     HO67202   3.399   5.013   1.584  0.6464 -1.0696  0.4025
 2689THY    CA167203   3.234   5.079   1.639 -0.2332 -0.4608 -0.6671
 2689THY    CA267204   3.101   5.060   1.657  0.7243  0.1427  0.0822
 2689THY    CP167205   3.052   4.917   1.695  0.1497  0.6190 -0.2049
 2689THY    HP167206   3.136   4.857   1.733 -2.0095 -3.6339 -1.4974
 2689THY    CP267207   2.949   4.917   1.807 -0.0577 -0.1559 -0.7108
 2689THY    HP267208   2.954   4.817   1.851  0.3240 -0.1523 -0.7435
 2689THY    HP367209   2.971   4.993   1.883  0.4902 -0.2302 -0.7918
 2689THY    HP467210   2.846   4.933   1.774  0.3874  1.8930 -1.2809
 2689THY    CP367211   2.997   4.837   1.578 -0.2490 -0.2538  0.2189
 2689THY    HP567212   2.910   4.894   1.546  0.0580  0.4970  0.7006
 2689THY    HP667213   3.072   4.837   1.498 -0.7159 -0.5797 -0.2278
 2689THY    HP767214   2.973   4.730   1.593  1.2989 -0.5506  0.7525
 2689THY    CA367215   3.009   5.174   1.652 -0.3493  0.7770 -0.3057
 2689THY    HA367216   2.902   5.158   1.659 -0.1359 -0.7282 -0.0541
 2689THY    CA467217   3.064   5.299   1.621  0.7529  0.3667  0.3149
 2689THY    HA467218   3.010   5.393   1.613  0.5058  0.2798  0.9513
 2689THY    CA567219   3.204   5.312   1.614 -0.7262 -0.2828  0.3019
 2689THY    CM167220   3.254   5.447   1.603  0.0536 -0.0421  0.1708
 2689THY    HM167221   3.225   5.518   1.681 -0.0830  1.3396 -1.1108
 2689THY    HM267222   3.363   5.451   1.607  0.0461  0.0780  0.2424
 2689THY    HM367223   3.212   5.478   1.506  0.2254  0.9793  0.4131
 2689THY    CA667224   3.289   5.199   1.626 -0.2875  0.2763  0.6760
 2689THY    HA667225   3.397   5.197   1.627 -0.2910 -1.7582  0.8506
 2690THY      O67226   8.306   7.416   9.745  0.1913 -0.4414  0.3553
 2690THY     HO67227   8.366   7.492   9.733  0.1616 -0.0269  2.5252
 2690THY    CA167228   8.179   7.458   9.708 -0.3074  0.1292  0.3925
 2690THY    CA267229   8.065   7.387   9.747  0.0838 -0.5150  0.8711
 2690THY    CP167230   8.075   7.252   9.814 -0.0431 -0.0869  0.0362
 2690THY    HP167231   8.164   7.194   9.789 -0.1604 -0.8906  1.3810
 2690THY    CP267232   8.065   7.279   9.970  0.3562  0.6504  0.3270
 2690THY    HP267233   7.971   7.332   9.990  0.5815  2.1777 -2.2156
 2690THY    HP367234   8.060   7.188  10.030  0.2108  1.0641  0.9594
 2690THY    HP467235   8.159   7.332   9.995  1.6556 -0.7236 -1.4094
 2690THY    CP367236   7.963   7.148   9.774  0.5830  0.3083  0.1725
 2690THY    HP567237   7.960   7.142   9.665  0.4865  0.9039  0.1353
 2690THY    HP667238   7.987   7.044   9.796 -1.5670 -0.4524 -0.8292
 2690THY    HP767239   7.862   7.165   9.814  0.6365  1.1065 -0.0147
 2690THY    CA367240   7.933   7.440   9.710 -0.1344  0.7975 -0.0853
 2690THY    HA367241   7.840   7.389   9.736 -1.3656  2.9475 -0.0672
 2690THY    CA467242   7.923   7.558   9.639  0.3016  0.1391  0.1507
 2690THY    HA467243   7.825   7.599   9.617  0.9202  1.9307  0.5309
 2690THY    CA567244   8.035   7.636   9.609 -0.5049 -0.3096 -0.0153
 2690THY    CM167245   8.031   7.770   9.547 -0.2815  0.2328 -0.0381
 2690THY    HM167246   8.089   7.761   9.454  3.1086 -1.1655  1.9958
 2690THY    HM267247   7.928   7.789   9.517 -0.5186  1.2183  1.3133
 2690THY    HM367248   8.068   7.859   9.600  1.4506  1.0059 -2.3607
 2690THY    CA667249   8.166   7.586   9.645 -0.2114  0.2799 -0.7997
 2690THY    HA667250   8.257   7.644   9.627  0.2151  0.2835  1.1502
 2691THY      O67251   9.587   4.704   4.103  0.4705  0.3046  0.1407
 2691THY     HO67252   9.500   4.747   4.097  0.7006  0.9712  1.2236
 2691THY    CA167253   9.657   4.781   4.189 -0.1644  0.0496 -0.4853
 2691THY    CA267254   9.728   4.721   4.297 -0.2680 -0.8928 -0.0178
 2691THY    CP167255   9.739   4.571   4.319 -0.6045 -0.1133 -0.3934
 2691THY    HP167256   9.761   4.529   4.220 -0.6689 -1.9188  0.3195
 2691THY    CP267257   9.847   4.511   4.413  0.2559 -0.5320  0.0009
 2691THY    HP267258   9.945   4.558   4.397 -0.4837  0.1685 -3.1068
 2691THY    HP367259   9.812   4.528   4.515 -0.3739  0.3750 -0.3551
 2691THY    HP467260   9.867   4.405   4.393 -3.0510 -1.0379 -1.2944
 2691THY    CP367261   9.603   4.518   4.367  0.6932  0.3074  0.2481
 2691THY    HP567262   9.604   4.408   4.363  1.2493  0.2630  1.3237
 2691THY    HP667263   9.565   4.553   4.463 -0.2655  1.3161 -0.4683
 2691THY    HP767264   9.524   4.541   4.295  0.6498 -1.0968 -0.1847
 2691THY    CA367265   9.779   4.809   4.390 -1.2035  0.0747 -0.1017
 2691THY    HA367266   9.835   4.767   4.473 -0.5509 -0.6068 -0.8769
 2691THY    CA467267   9.776   4.950   4.378 -0.1102 -0.3623  0.7247
 2691THY    HA467268   9.824   5.021   4.444  1.1273  0.8359 -1.3525
 2691THY    CA567269   9.706   5.000   4.268  0.2252  0.5867 -0.2667
 2691THY    CM167270   9.698   5.147   4.238 -0.2333  1.2789  0.9858
 2691THY    HM167271   9.651   5.189   4.328  1.2587  1.4891  1.7011
 2691THY    HM267272   9.792   5.201   4.223  1.5321 -1.5853  1.0399
 2691THY    HM367273   9.638   5.168   4.149 -0.5666  0.2889  0.9724
 2691THY    CA667274   9.640   4.921   4.179 -0.0616 -0.2804  0.0034
 2691THY    HA667275   9.574   4.950   4.097  2.0539  0.1774 -1.6166
 2692THY      O67276   2.110   2.679   7.566  0.1273  0.2531 -0.0875
 2692THY     HO67277   2.077   2.744   7.630 -3.1822 -2.2537  1.0356
 2692THY    CA167278   2.092   2.721   7.439 -0.0262  0.1301  0.5691
 2692THY    CA267279   2.159   2.664   7.330  0.2653  0.0189  0.3252
 2692THY    CP167280   2.268   2.550   7.353  0.8213 -0.6657  0.3878
 2692THY    HP167281   2.232   2.487   7.435 -2.0460 -0.6888 -0.7472
 2692THY    CP267282   2.282   2.460   7.233  0.5195 -0.4513 -0.2485
 2692THY    HP267283   2.190   2.403   7.218 -0.8917  1.3812  1.1270
 2692THY    HP367284   2.295   2.519   7.141 -1.0366  0.9438  0.3883
 2692THY    HP467285   2.354   2.378   7.249 -0.3717 -1.4970 -1.3414
 2692THY    CP367286   2.403   2.617   7.383 -0.2652  0.1355  0.0864
 2692THY    HP567287   2.413   2.703   7.316 -1.7098  0.5518  0.3705
 2692THY    HP667288   2.397   2.660   7.484 -2.6215 -0.1831  0.1480
 2692THY    HP767289   2.488   2.548   7.385 -0.6916 -0.4344  2.7966
 2692THY    CA367290   2.126   2.710   7.197 -0.2767  0.2761  0.1026
 2692THY    HA367291   2.182   2.678   7.110  0.0997 -0.7817  0.7174
 2692THY    CA467292   2.038   2.819   7.186 -0.3852 -0.1947 -0.5733
 2692THY    HA467293   2.024   2.864   7.088  0.0580  1.8474  0.2694
 2692THY    CA567294   1.983   2.878   7.297 -0.1022 -0.1858 -0.0500
 2692THY    CM167295   1.923   3.017   7.292 -0.3027 -0.0353 -0.3970
 2692THY    HM167296   1.943   3.077   7.382  2.3092 -1.9739  0.4499
 2692THY    HM267297   1.950   3.073   7.202 -0.0515  1.1842  0.4185
 2692THY    HM367298   1.814   3.012   7.297 -0.1941 -1.7703  1.9063
 2692THY    CA667299   2.006   2.826   7.422  0.2414 -0.0086 -0.0504
 2692THY    HA667300   1.975   2.881   7.511  0.5704 -0.5619  0.4069
 2693THY      O67301   3.927   7.366   2.739  0.4308  0.1380 -0.2873
 2693THY     HO67302   3.908   7.369   2.834 -1.1917  0.2960 -0.5871
 2693THY    CA167303   3.898   7.492   2.693  0.0485  0.7120  0.3835
 2693THY    CA267304   3.886   7.518   2.558 -0.6921 -1.0187  0.4076
 2693THY    CP167305   3.910   7.412   2.453  0.2371 -0.0100  0.3011
 2693THY    HP167306   3.940   7.318   2.499  0.6064 -0.2906 -0.4960
 2693THY    CP267307   3.784   7.367   2.379  0.2035 -0.3134  0.2814
 2693THY    HP267308   3.737   7.454   2.332 -1.0670 -1.2017 -0.1277
 2693THY    HP367309   3.807   7.290   2.304  1.2515 -0.4178  0.6859
 2693THY    HP467310   3.715   7.330   2.455 -0.0722 -0.8817 -0.2452
 2693THY    CP367311   4.020   7.442   2.353 -0.5369 -0.1570  0.5131
 2693THY    HP567312   4.120   7.451   2.397 -0.1854  0.8993 -0.4344
 2693THY    HP667313   4.032   7.356   2.286 -0.6168  0.2706 -0.0661
 2693THY    HP767314   4.008   7.530   2.288 -0.1288  1.7848  2.8952
 2693THY    CA367315   3.844   7.650   2.517 -0.0405  0.0242  0.1108
 2693THY    HA367316   3.826   7.670   2.411  0.6723  0.9305  0.1522
 2693THY    CA467317   3.820   7.749   2.610 -0.1442  0.6633  0.3862
 2693THY    HA467318   3.783   7.845   2.574  1.2466  0.1218 -2.7519
 2693THY    CA567319   3.840   7.723   2.745 -0.2681 -0.1332  0.7118
 2693THY    CM167320   3.816   7.827   2.848  0.2726 -0.0065  0.2488
 2693THY    HM167321   3.908   7.867   2.892 -0.1233 -0.9172  1.9738
 2693THY    HM267322   3.770   7.918   2.806  1.2911  1.4585  2.1578
 2693THY    HM367323   3.751   7.797   2.931 -1.3910 -1.6451 -1.5429
 2693THY    CA667324   3.876   7.593   2.786  0.5972  0.1093  0.7379
 2693THY    HA667325   3.883   7.577   2.894  1.3681 -1.4086  0.4904
 2694THY      O67326   1.291   0.973   9.774 -0.0552 -0.7162 -0.6810
 2694THY     HO67327   1.322   0.958   9.864 -1.2696  0.7444  0.0386
 2694THY    CA167328   1.155   0.957   9.782  0.3429  0.6009 -0.8087
 2694THY    CA267329   1.081   0.988   9.666 -0.2906  0.7835  0.3214
 2694THY    CP167330   1.150   1.019   9.528 -0.4623  0.2846  0.2168
 2694THY    HP167331   1.236   0.953   9.513 -0.6287 -0.3792  1.9874
 2694THY    CP267332   1.059   0.983   9.401 -0.0370  0.3348 -0.1518
 2694THY    HP267333   0.964   1.036   9.392 -0.9320 -1.3525 -1.1245
 2694THY    HP367334   1.114   1.017   9.312  0.4859  0.6936  0.3037
 2694THY    HP467335   1.040   0.875   9.400  1.5855  0.0250 -0.0565
 2694THY    CP367336   1.186   1.166   9.524  0.4104  0.5305  0.0998
 2694THY    HP567337   1.093   1.224   9.523  0.7950  1.1529 -0.0656
 2694THY    HP667338   1.242   1.194   9.614 -1.6824  1.5251  1.1636
 2694THY    HP767339   1.248   1.190   9.437  1.9754  0.1118  1.0483
 2694THY    CA367340   0.937   0.967   9.669 -0.3522 -0.5644 -0.0689
 2694THY    HA367341   0.869   0.979   9.585 -2.1640 -1.3691  1.2182
 2694THY    CA467342   0.875   0.930   9.792 -0.4548  0.1383 -0.0126
 2694THY    HA467343   0.767   0.921   9.798 -0.3346 -1.1903  0.5554
 2694THY    CA567344   0.957   0.897   9.906 -0.2713 -0.8277 -0.0929
 2694THY    CM167345   0.894   0.841  10.028  0.2473 -0.0821  0.1263
 2694THY    HM167346   0.894   0.732  10.028  0.2780 -0.1975  3.4191
 2694THY    HM267347   0.955   0.870  10.114  0.2972 -1.0862  0.4442
 2694THY    HM367348   0.796   0.882  10.052  0.0793 -1.5004  2.1589
 2694THY    CA667349   1.092   0.900   9.894  0.5553 -0.9162 -0.0787
 2694THY    HA667350   1.144   0.848   9.974 -1.2964 -1.4336  0.8488
 2695THY      O67351   1.201   0.972   0.333  0.3557 -0.6132  0.1666
 2695THY     HO67352   1.209   0.879   0.359 -0.1404 -1.4063 -2.2394
 2695THY    CA167353   1.285   0.970   0.231 -0.2519 -0.1110  0.2888
 2695THY    CA267354   1.356   1.089   0.195  0.6942  0.2102 -1.2083
 2695THY    CP167355   1.338   1.222   0.266 -0.3009  0.6375  0.1613
 2695THY    HP167356   1.258   1.223   0.341 -1.3810 -0.5020 -0.9157
 2695THY    CP267357   1.468   1.271   0.338  0.6139 -0.2739 -0.0603
 2695THY    HP267358   1.441   1.366   0.386 -1.1417 -1.5988  1.6910
 2695THY    HP367359   1.511   1.214   0.421  2.1934  1.1046  0.1259
 2695THY    HP467360   1.545   1.290   0.261  0.7991  2.7829  0.7187
 2695THY    CP367361   1.298   1.336   0.172 -0.2262  0.0664 -0.4009
 2695THY    HP567362   1.367   1.339   0.087 -2.4697 -0.6350 -2.3558
 2695THY    HP667363   1.205   1.304   0.124 -0.1283 -2.0925  0.7328
 2695THY    HP767364   1.273   1.428   0.226  0.4521 -1.3873  2.5837
 2695THY    CA367365   1.455   1.082   0.099 -0.0635  0.0915 -0.1365
 2695THY    HA367366   1.515   1.168   0.074  1.3727 -1.0798 -0.8260
 2695THY    CA467367   1.482   0.953   0.046 -0.1401  0.2317 -0.5406
 2695THY    HA467368   1.556   0.940  -0.032  0.0055 -0.5176 -0.2902
 2695THY    CA567369   1.413   0.837   0.086 -0.4849  0.3351 -0.7819
 2695THY    CM167370   1.422   0.705   0.012  0.0525  0.4621  0.2095
 2695THY    HM167371   1.524   0.674  -0.018 -0.6649 -1.8898 -0.0523
 2695THY    HM267372   1.379   0.619   0.064  0.1489  0.8171  0.8868
 2695THY    HM367373   1.355   0.704  -0.075  0.1204 -3.1936  0.0344
 2695THY    CA667374   1.313   0.849   0.185 -0.5812 -0.1976  0.3539
 2695THY    HA667375   1.257   0.759   0.206 -0.1670 -1.0874 -1.9953
 2696THY      O67376   3.004   2.615   1.010  0.3206  0.2839  0.6750
 2696THY     HO67377   2.938   2.666   0.959  1.1175  0.6291 -0.0218
 2696THY    CA167378   2.937   2.533   1.094 -0.0276 -0.4675  0.7376
 2696THY    CA267379   3.000   2.469   1.198 -0.5765 -0.2024  0.4687
 2696THY    CP167380   3.150   2.475   1.229 -0.0697  0.1181  0.4211
 2696THY    HP167381   3.207   2.525   1.150  3.3984 -2.7650  0.8082
 2696THY    CP267382   3.178   2.523   1.374  0.4570  0.2400  0.6649
 2696THY    HP267383   3.283   2.545   1.395  0.5054 -1.8993  3.2961
 2696THY    HP367384   3.126   2.619   1.391 -1.8898 -1.0349  1.1681
 2696THY    HP467385   3.141   2.454   1.451  0.3168  0.8415  1.1441
 2696THY    CP367386   3.209   2.338   1.208 -0.3865  0.7508  0.4266
 2696THY    HP567387   3.170   2.262   1.276  0.7465 -0.2455  0.0064
 2696THY    HP667388   3.188   2.308   1.104  2.5049  0.9214 -0.2967
 2696THY    HP767389   3.318   2.339   1.218 -0.2384 -0.7490 -0.7393
 2696THY    CA367390   2.923   2.382   1.277 -0.1339 -0.0727 -0.4523
 2696THY    HA367391   2.965   2.319   1.355 -3.4468 -0.0183  1.5760
 2696THY    CA467392   2.787   2.363   1.243  0.6453 -0.7230 -0.0865
 2696THY    HA467393   2.722   2.292   1.294  1.3404 -2.7975 -1.9150
 2696THY    CA567394   2.726   2.431   1.136  0.4348  0.1311 -0.1781
 2696THY    CM167395   2.572   2.407   1.110  0.2050 -0.0176  0.5499
 2696THY    HM167396   2.552   2.323   1.042  0.3511  0.6947 -0.4027
 2696THY    HM267397   2.516   2.377   1.199  0.5956 -0.8747  0.5185
 2696THY    HM367398   2.516   2.492   1.068  1.1065  0.2403 -0.1639
 2696THY    CA667399   2.807   2.513   1.055  0.0943  0.4090 -0.2156
 2696THY    HA667400   2.762   2.558   0.966 -1.7513  2.0377  1.4472
 2697THY      O67401   7.552   5.389   3.179 -0.1314 -0.2801 -0.3163
 2697THY     HO67402   7.556   5.378   3.276 -1.3424 -1.0443 -0.3275
 2697THY    CA167403   7.648   5.303   3.130  0.4066 -0.4122  0.1186
 2697THY    CA267404   7.630   5.258   2.994  0.3610 -0.2387 -0.2090
 2697THY    CP167405   7.500   5.272   2.921  0.7004 -0.0311  0.7535
 2697THY    HP167406   7.422   5.304   2.991  0.5349  0.2209  0.4510
 2697THY    CP267407   7.524   5.372   2.800  0.0740 -0.2071 -0.3438
 2697THY    HP267408   7.610   5.346   2.738  0.4540  3.0881 -1.3734
 2697THY    HP367409   7.441   5.370   2.728  0.6777  1.3491 -1.1357
 2697THY    HP467410   7.548   5.476   2.826  1.8239 -0.8040  0.5587
 2697THY    CP367411   7.450   5.138   2.859  0.4430  0.3409  0.0193
 2697THY    HP567412   7.525   5.085   2.799 -0.4372 -2.4234  1.2266
 2697THY    HP667413   7.413   5.082   2.945 -1.1994  1.5011  0.1190
 2697THY    HP767414   7.359   5.155   2.800 -1.2988 -4.2364  1.0358
 2697THY    CA367415   7.739   5.188   2.937  0.0812 -0.1416  0.5916
 2697THY    HA367416   7.737   5.147   2.837  0.0814  0.6659  0.2554
 2697THY    CA467417   7.851   5.164   3.014 -0.5168 -0.1752 -0.7366
 2697THY    HA467418   7.933   5.122   2.956  0.4198 -0.9732  1.1024
 2697THY    CA567419   7.860   5.197   3.151  0.4451  0.2109  0.0123
 2697THY    CM167420   7.984   5.164   3.225 -0.8389  0.1793 -0.6208
 2697THY    HM167421   8.079   5.205   3.189 -0.7168 -1.1108 -1.8274
 2697THY    HM267422   7.977   5.194   3.330 -0.7547 -0.9352 -0.2867
 2697THY    HM367423   7.998   5.057   3.240  0.0509  0.1029 -1.9105
 2697THY    CA667424   7.755   5.270   3.206  0.6550 -0.3215 -0.4290
 2697THY    HA667425   7.762   5.298   3.310 -0.2931  0.0471 -0.4578
 2698THY      O67426   5.089   0.770   6.638  0.1652  0.4735 -1.0994
 2698THY     HO67427   4.996   0.751   6.617 -0.0224 -0.1769  0.2025
 2698THY    CA167428   5.145   0.847   6.546 -0.4574 -0.8094 -0.7233
 2698THY    CA267429   5.228   0.955   6.587  0.6299 -0.1679  0.3432
 2698THY    CP167430   5.249   0.982   6.729  0.0479  0.0113 -0.3543
 2698THY    HP167431   5.207   0.905   6.794 -2.0930  0.5178 -1.0582
 2698THY    CP267432   5.399   0.994   6.758 -0.4255 -0.3605  0.3110
 2698THY    HP267433   5.441   1.082   6.708  0.6491 -0.5343  0.8983
 2698THY    HP367434   5.413   0.989   6.867  0.7840 -1.6349  0.1145
 2698THY    HP467435   5.454   0.910   6.714 -0.4821  0.2952 -1.0605
 2698THY    CP367436   5.183   1.110   6.763  0.7323 -0.5032 -0.6359
 2698THY    HP567437   5.075   1.092   6.772  0.2294  1.7998 -1.3100
 2698THY    HP667438   5.214   1.145   6.862 -1.9760 -0.6812  0.3705
 2698THY    HP767439   5.202   1.192   6.692  0.7189 -1.3391 -1.6184
 2698THY    CA367440   5.271   1.046   6.486 -0.6516  0.2313  0.1411
 2698THY    HA367441   5.341   1.128   6.502  2.1478 -1.9102 -0.2526
 2698THY    CA467442   5.234   1.022   6.351 -0.2869  0.6355 -0.7764
 2698THY    HA467443   5.257   1.092   6.271  0.1577 -0.8138 -1.9599
 2698THY    CA567444   5.153   0.921   6.316 -0.3717  0.5533  0.1723
 2698THY    CM167445   5.129   0.903   6.169  0.6993  0.1420  0.0879
 2698THY    HM167446   5.026   0.901   6.131  1.3606  0.9209 -1.8726
 2698THY    HM267447   5.180   0.983   6.114  0.9956  0.5796  0.9804
 2698THY    HM367448   5.160   0.804   6.135  0.5369 -0.7665  2.3836
 2698THY    CA667449   5.112   0.832   6.412  0.5569 -0.1612 -0.3815
 2698THY    HA667450   5.046   0.751   6.382 -1.4519  0.6405  1.6048
 2699THY      O67451   6.348   1.848   9.647 -0.8269 -0.3210 -0.2668
 2699THY     HO67452   6.348   1.941   9.676 -1.0021 -0.5042  0.3338
 2699THY    CA167453   6.298   1.771   9.742  0.3377 -1.2144 -0.0462
 2699THY    CA267454   6.362   1.655   9.777  0.4982 -0.7656  0.9618
 2699THY    CP167455   6.485   1.609   9.702 -0.5724  0.3005  0.3998
 2699THY    HP167456   6.493   1.659   9.605 -0.3328  0.0711  0.2996
 2699THY    CP267457   6.612   1.649   9.771  0.2799 -0.0103 -0.5046
 2699THY    HP267458   6.608   1.756   9.792 -1.3642 -0.3460  1.1896
 2699THY    HP367459   6.617   1.596   9.867 -0.1048 -3.7151 -2.3641
 2699THY    HP467460   6.700   1.623   9.710 -0.2470  0.1569 -1.3558
 2699THY    CP367461   6.475   1.453   9.677  0.0554  0.4179  0.1480
 2699THY    HP567462   6.476   1.398   9.772  1.0048  0.4173  0.1463
 2699THY    HP667463   6.384   1.422   9.624 -0.7750  0.5409  1.4437
 2699THY    HP767464   6.568   1.421   9.628 -0.0882  2.4716 -1.6116
 2699THY    CA367465   6.317   1.596   9.896  0.1058  0.5063 -0.1602
 2699THY    HA367466   6.374   1.514   9.937  2.0783  1.5022 -0.7863
 2699THY    CA467467   6.195   1.629   9.954  0.1301 -0.4987  0.9704
 2699THY    HA467468   6.152   1.571  10.036 -0.6768 -0.8607  0.3048
 2699THY    CA567469   6.121   1.738   9.902  0.0412  0.2839  0.9928
 2699THY    CM167470   5.987   1.775   9.965 -0.0544  0.3780 -0.0784
 2699THY    HM167471   5.913   1.707   9.923  0.9319 -1.0231  0.3878
 2699THY    HM267472   5.987   1.763  10.074 -1.2375  0.3016 -0.0780
 2699THY    HM367473   5.952   1.879   9.964  1.3355  0.8685 -0.2985
 2699THY    CA667474   6.183   1.813   9.804  0.4843 -1.1052  0.5214
 2699THY    HA667475   6.124   1.898   9.769  0.9177 -0.6258  0.9379
 2700THY      O67476   4.091   1.408   4.559  0.5099  0.4312  0.2623
 2700THY     HO67477   4.166   1.457   4.521  1.0334 -1.2360 -0.9584
 2700THY    CA167478   4.100   1.293   4.486  0.0354  0.4606 -0.7168
 2700THY    CA267479   4.020   1.180   4.513  0.0612  0.1419 -0.4517
 2700THY    CP167480   3.906   1.156   4.617  0.0131  0.3723 -0.2056
 2700THY    HP167481   3.926   1.238   4.687 -0.7268  0.6578 -0.3221
 2700THY    CP267482   3.763   1.180   4.559  0.3306  0.0099  0.3644
 2700THY    HP267483   3.741   1.122   4.469 -1.8314  1.0048  0.1832
 2700THY    HP367484   3.682   1.173   4.633 -0.5921  3.8559 -0.0762
 2700THY    HP467485   3.756   1.281   4.518  0.1224  0.3201  1.1311
 2700THY    CP367486   3.913   1.033   4.702  0.2128  0.4468  0.0814
 2700THY    HP567487   4.012   0.989   4.714 -0.7495 -1.6253  0.8946
 2700THY    HP667488   3.872   1.062   4.799 -0.0063 -0.2703  0.2121
 2700THY    HP767489   3.859   0.952   4.651  2.1578 -1.5371  0.9821
 2700THY    CA367490   4.034   1.071   4.422 -1.2059  0.5142 -0.6219
 2700THY    HA367491   3.985   0.975   4.440 -0.5452  0.5617  1.7886
 2700THY    CA467492   4.123   1.076   4.311  0.2797 -0.6629 -0.5795
 2700THY    HA467493   4.155   0.990   4.252 -0.1120 -1.1013 -0.1604
 2700THY    CA567494   4.194   1.194   4.289  0.0823  0.1205 -0.6275
 2700THY    CM167495   4.271   1.207   4.158  0.5940 -0.6000  0.5181
 2700THY    HM167496   4.212   1.183   4.068  0.1478 -0.3525  0.7396
 2700THY    HM267497   4.322   1.303   4.152  1.0889 -0.9487 -3.1239
 2700THY    HM367498   4.351   1.133   4.152  0.5433 -0.5660 -1.6471
 2700THY    CA667499   4.179   1.303   4.375 -0.2299  0.3223  0.6199
 2700THY    HA667500   4.236   1.391   4.344  0.3718 -0.1773  0.2777
 2701THY      O67501   3.906   7.628   8.989 -0.0903 -0.3806  0.0632
 2701THY     HO67502   3.992   7.606   8.950 -0.4573 -0.4804 -0.7078
 2701THY    CA167503   3.916   7.769   8.993 -0.0330 -0.0960 -0.1281
 2701THY    CA267504   3.806   7.849   9.036  1.0773  0.3772  0.6447
 2701THY    CP167505   3.668   7.785   9.074 -1.0374  0.1593 -0.7398
 2701THY    HP167506   3.686   7.677   9.086 -1.1588  0.2217  0.0202
 2701THY    CP267507   3.617   7.832   9.215 -0.3145  0.2787 -0.6361
 2701THY    HP267508   3.691   7.822   9.295  0.5647 -1.5169 -1.6102
 2701THY    HP367509   3.576   7.933   9.205  0.1830  0.6834  1.1120
 2701THY    HP467510   3.534   7.765   9.242  0.7971  0.2533  3.2778
 2701THY    CP367511   3.561   7.799   8.951 -0.3187 -0.5231 -0.4123
 2701THY    HP567512   3.597   7.758   8.856 -2.5046 -1.0454 -1.0634
 2701THY    HP667513   3.469   7.751   8.985 -0.2196 -0.9304 -0.7047
 2701THY    HP767514   3.541   7.906   8.949 -0.2250 -0.4562  1.1511
 2701THY    CA367515   3.819   7.987   9.038 -0.1280  0.5693  0.8927
 2701THY    HA367516   3.739   8.052   9.072 -0.6068  0.4794 -0.0447
 2701THY    CA467517   3.940   8.043   9.010  0.0990 -0.1501 -0.0768
 2701THY    HA467518   3.953   8.150   9.023 -0.7965 -0.2076  1.5991
 2701THY    CA567519   4.057   7.970   8.974 -0.1455  0.3651 -0.0394
 2701THY    CM167520   4.184   8.044   8.940 -0.2454 -0.4971 -0.6820
 2701THY    HM167521   4.174   8.074   8.835 -0.2442 -2.2576 -1.2214
 2701THY    HM267522   4.205   8.133   9.001  0.1558 -2.4091  2.1753
 2701THY    HM367523   4.266   7.973   8.956  0.5782  0.7413  0.9145
 2701THY    CA667524   4.045   7.828   8.965 -0.3538 -0.6560 -0.3151
 2701THY    HA667525   4.130   7.773   8.926  0.4378 -0.0253  0.4943
 2702THY      O67526   8.527   1.844   5.715  0.2733 -0.0925  0.2810
 2702THY     HO67527   8.449   1.849   5.657 -0.6518  2.2316  1.6047
 2702THY    CA167528   8.485   1.789   5.829 -0.3385  0.1902  0.5260
 2702THY    CA267529   8.544   1.806   5.955  0.5219 -0.0642  0.8327
 2702THY    CP167530   8.661   1.906   5.964  0.1550 -0.1104 -0.5039
 2702THY    HP167531   8.710   1.911   5.866 -0.5897  0.7032 -0.8435
 2702THY    CP267532   8.604   2.046   5.985  0.5359  0.0872 -0.0731
 2702THY    HP267533   8.556   2.056   6.083  1.9810  2.1019  0.5073
 2702THY    HP367534   8.675   2.130   5.990  2.6306 -1.6703  1.2048
 2702THY    HP467535   8.539   2.068   5.899  1.3273 -2.7951 -1.5098
 2702THY    CP367536   8.764   1.879   6.070 -0.2457  0.0842  0.0063
 2702THY    HP567537   8.847   1.941   6.037 -0.2115 -0.5443 -1.1125
 2702THY    HP667538   8.724   1.908   6.169  0.0246 -0.2036  0.1989
 2702THY    HP767539   8.810   1.780   6.076  1.3224  0.8417  1.2332
 2702THY    CA367540   8.502   1.725   6.068 -0.3771  0.3270  0.2854
 2702THY    HA367541   8.553   1.744   6.162  0.2548  1.9358 -0.3373
 2702THY    CA467542   8.399   1.642   6.052  0.5592  0.0320  0.3901
 2702THY    HA467543   8.369   1.587   6.141  0.9670  0.6768  0.9393
 2702THY    CA567544   8.338   1.635   5.923  0.0080  1.1710 -0.3471
 2702THY    CM167545   8.210   1.564   5.917 -0.1468  0.8496 -0.5063
 2702THY    HM167546   8.192   1.496   6.001  0.1122  1.9603  0.4854
 2702THY    HM267547   8.127   1.634   5.901 -1.1248 -0.2890 -0.5228
 2702THY    HM367548   8.220   1.493   5.835  1.2463 -0.7718  0.9826
 2702THY    CA667549   8.382   1.704   5.815 -0.4312 -0.4578 -0.7202
 2702THY    HA667550   8.327   1.692   5.721 -2.3899  1.4384  0.1011
 2703THY      O67551   5.707   3.132   5.152  0.5399  0.0950 -0.5137
 2703THY     HO67552   5.660   3.144   5.236  0.7589  1.4550 -0.5589
 2703THY    CA167553   5.679   3.006   5.116 -0.1958  0.2259 -0.0910
 2703THY    CA267554   5.716   2.945   4.998 -0.5759  0.0535 -0.5123
 2703THY    CP167555   5.805   3.022   4.896  0.3917 -0.1670 -0.1533
 2703THY    HP167556   5.849   3.120   4.917 -0.5155 -0.2005  2.2116
 2703THY    CP267557   5.935   2.942   4.882  0.0413  0.0634 -0.8759
 2703THY    HP267558   6.004   2.993   4.814 -0.0924  2.2563  0.5263
 2703THY    HP367559   5.980   2.939   4.981 -1.1006 -2.7193 -0.3520
 2703THY    HP467560   5.903   2.840   4.856  3.5419 -0.8149 -2.2383
 2703THY    CP367561   5.734   3.037   4.753 -0.1020  0.0928 -0.8848
 2703THY    HP567562   5.634   3.080   4.766  0.6113  1.6178 -0.1773
 2703THY    HP667563   5.777   3.108   4.681 -2.0696  1.4369 -0.8279
 2703THY    HP767564   5.729   2.942   4.698 -0.7069 -0.5957  0.3292
 2703THY    CA367565   5.685   2.809   4.972 -0.1326 -0.7372  0.1816
 2703THY    HA367566   5.718   2.751   4.886  0.7340 -3.3834  2.1849
 2703THY    CA467567   5.607   2.736   5.064  0.1191  0.1273 -0.2119
 2703THY    HA467568   5.565   2.636   5.054  0.6113 -0.2142  0.9733
 2703THY    CA567569   5.570   2.798   5.182 -0.2378 -0.6559 -0.0819
 2703THY    CM167570   5.480   2.727   5.274  0.9037  0.0498 -0.4688
 2703THY    HM167571   5.389   2.699   5.219 -0.0258 -1.2449  1.5961
 2703THY    HM267572   5.522   2.632   5.309  1.7792  0.3859 -0.5798
 2703THY    HM367573   5.455   2.785   5.364  2.6514 -0.2767  0.2580
 2703THY    CA667574   5.610   2.932   5.213  0.4667  0.5996 -0.2296
 2703THY    HA667575   5.562   2.982   5.296 -1.4757  0.8981 -1.4691
 2704THY      O67576   7.818   9.269   4.002  0.4146  0.0346 -0.8127
 2704THY     HO67577   7.864   9.306   4.080  0.0755  1.8446 -1.4163
 2704THY    CA167578   7.692   9.227   4.030  0.2158 -0.1243  0.1800
 2704THY    CA267579   7.610   9.153   3.939 -0.2057  0.0239 -0.2041
 2704THY    CP167580   7.645   9.137   3.791  0.7852 -0.5499  0.0310
 2704THY    HP167581   7.731   9.202   3.770  0.5175 -0.1141  0.2963
 2704THY    CP267582   7.680   8.994   3.743  0.4315  0.5164 -0.2089
 2704THY    HP267583   7.708   8.995   3.637  1.1698 -0.7673 -0.0455
 2704THY    HP367584   7.765   8.957   3.801 -0.0860  1.4632  1.2086
 2704THY    HP467585   7.588   8.940   3.764  0.4997  1.1190  1.8868
 2704THY    CP367586   7.530   9.208   3.714 -0.3724  0.3452 -0.1942
 2704THY    HP567587   7.437   9.189   3.770  0.9509 -0.0338  1.9664
 2704THY    HP667588   7.541   9.316   3.730  0.6965  0.2931 -0.5334
 2704THY    HP767589   7.527   9.182   3.608 -0.5207 -0.5107  0.0074
 2704THY    CA367590   7.502   9.076   3.979  0.5156  0.2868  0.6915
 2704THY    HA367591   7.447   9.012   3.911  0.7972  0.0456  0.6908
 2704THY    CA467592   7.460   9.088   4.118  0.2608  0.9638 -0.2555
 2704THY    HA467593   7.379   9.031   4.161  0.0133  0.3809 -1.4497
 2704THY    CA567594   7.534   9.171   4.204 -0.2555 -0.8947 -0.1232
 2704THY    CM167595   7.491   9.182   4.352 -0.2106  0.2147  0.4109
 2704THY    HM167596   7.419   9.104   4.381 -0.2664 -0.8091 -2.1849
 2704THY    HM267597   7.572   9.155   4.420  1.2958 -0.2517 -1.4875
 2704THY    HM367598   7.455   9.282   4.378  1.1642  0.9501 -0.4284
 2704THY    CA667599   7.654   9.226   4.165  0.2191  0.3079 -0.1140
 2704THY    HA667600   7.711   9.273   4.244 -0.8978  0.9313  0.3485
 2705THY      O67601   1.650   2.601   5.908  0.1227  0.1961  0.0693
 2705THY     HO67602   1.564   2.601   5.862 -0.2651  0.0368  0.7872
 2705THY    CA167603   1.674   2.478   5.955 -0.4386 -0.3050 -0.6615
 2705THY    CA267604   1.736   2.460   6.086 -0.3403 -0.2441  0.4480
 2705THY    CP167605   1.787   2.579   6.164  0.7483 -0.9560 -0.1465
 2705THY    HP167606   1.796   2.666   6.097 -2.4285 -0.5552 -0.1889
 2705THY    CP267607   1.706   2.623   6.287  0.2505  0.0224 -0.5024
 2705THY    HP267608   1.622   2.684   6.254  1.2111  0.7578 -1.6782
 2705THY    HP367609   1.676   2.531   6.338 -0.5918  0.8678  0.5772
 2705THY    HP467610   1.764   2.685   6.357 -1.9176  0.5418  0.9248
 2705THY    CP367611   1.932   2.544   6.206 -0.1249  0.3461 -0.4265
 2705THY    HP567612   1.933   2.482   6.296  1.3099 -1.4020 -1.5783
 2705THY    HP667613   1.979   2.487   6.125 -0.9339  1.1744 -1.5121
 2705THY    HP767614   1.994   2.632   6.226  0.2026 -0.0963  0.6104
 2705THY    CA367615   1.748   2.332   6.135  0.1564 -0.0137  0.0920
 2705THY    HA367616   1.782   2.317   6.237 -2.4527 -0.7969  0.9333
 2705THY    CA467617   1.713   2.224   6.054  0.2602 -0.6021 -0.1980
 2705THY    HA467618   1.725   2.126   6.100  4.3505  0.1339  0.7602
 2705THY    CA567619   1.665   2.245   5.920  0.1982  0.4922 -0.3384
 2705THY    CM167620   1.621   2.129   5.842  0.5268 -0.0946  0.0114
 2705THY    HM167621   1.584   2.152   5.742 -2.1328 -2.3381  0.3462
 2705THY    HM267622   1.703   2.057   5.842  2.7987  2.2818  2.7578
 2705THY    HM367623   1.535   2.077   5.886  1.2018 -0.1341  1.3387
 2705THY    CA667624   1.646   2.375   5.873 -0.5186  1.0960 -0.4048
 2705THY    HA667625   1.613   2.393   5.771 -0.3991  0.3672 -0.5770
 2706THY      O67626   6.375   7.052   3.518  0.6865 -0.3165  0.0475
 2706THY     HO67627   6.395   6.968   3.474 -0.4489 -0.6117  0.0767
 2706THY    CA167628   6.269   7.033   3.606  0.1945 -0.2142  0.1972
 2706THY    CA267629   6.191   7.138   3.656  0.4037  0.0114 -0.2476
 2706THY    CP167630   6.203   7.276   3.601  0.1203 -0.5030 -0.5801
 2706THY    HP167631   6.310   7.286   3.580  0.0041 -0.0804 -0.9994
 2706THY    CP267632   6.135   7.301   3.471 -0.1414  0.3378 -0.1806
 2706THY    HP267633   6.027   7.280   3.468  0.1841 -1.5122 -0.4138
 2706THY    HP367634   6.152   7.408   3.454 -0.8498  0.4236 -0.4141
 2706THY    HP467635   6.189   7.255   3.388  0.4180 -0.3208  0.5348
 2706THY    CP367636   6.182   7.387   3.710 -0.3383  0.8026 -0.0346
 2706THY    HP567637   6.073   7.394   3.717 -0.3916  0.5340 -0.5372
 2706THY    HP667638   6.228   7.348   3.802  1.1605  2.3533 -0.0720
 2706THY    HP767639   6.222   7.483   3.675  2.4324 -0.3198 -0.2505
 2706THY    CA367640   6.078   7.117   3.734  0.1046  0.3502  0.4597
 2706THY    HA367641   6.010   7.190   3.777 -0.5857  0.0352 -0.0760
 2706THY    CA467642   6.064   6.982   3.772  0.2737 -0.0568 -0.1135
 2706THY    HA467643   5.981   6.950   3.834  0.6100 -0.1106  0.3149
 2706THY    CA567644   6.145   6.876   3.734  0.1421 -0.4813 -0.4941
 2706THY    CM167645   6.125   6.743   3.791 -0.3102 -0.3784  0.1257
 2706THY    HM167646   6.131   6.739   3.901  0.2066  0.7699  0.1538
 2706THY    HM267647   6.026   6.706   3.763  0.2484 -2.0418  0.2600
 2706THY    HM367648   6.200   6.674   3.752 -0.3810  0.3984 -1.4834
 2706THY    CA667649   6.246   6.903   3.645  0.3363  0.8132 -0.1630
 2706THY    HA667650   6.324   6.833   3.617  2.0415  1.2890  2.8822
 2707THY      O67651   6.657   8.758   7.966 -0.2019 -0.0328  0.5244
 2707THY     HO67652   6.708   8.678   7.944  0.5229  0.5044  0.2001
 2707THY    CA167653   6.580   8.783   7.868  0.4874  0.1148  0.5859
 2707THY    CA267654   6.475   8.882   7.872 -0.1060 -0.2540  0.0261
 2707THY    CP167655   6.441   8.963   7.999  0.4631  0.2618 -0.2671
 2707THY    HP167656   6.518   8.961   8.077  0.0509 -0.8778  0.1489
 2707THY    CP267657   6.423   9.111   7.966  0.1341  0.5189 -0.2622
 2707THY    HP267658   6.493   9.149   7.892  0.1535 -0.8325 -0.9695
 2707THY    HP367659   6.324   9.122   7.919 -1.3483 -1.2046  2.1759
 2707THY    HP467660   6.418   9.171   8.058 -3.2611  0.2603 -0.1343
 2707THY    CP367661   6.315   8.910   8.062 -0.0706 -1.0442 -0.4344
 2707THY    HP567662   6.291   8.974   8.148 -1.2232 -0.2648 -1.3156
 2707THY    HP667663   6.225   8.919   8.001 -0.7644 -0.1695  0.6863
 2707THY    HP767664   6.328   8.804   8.089 -2.2152 -0.9645  1.1521
 2707THY    CA367665   6.384   8.889   7.763 -0.3543  0.2193 -0.0787
 2707THY    HA367666   6.303   8.961   7.766 -0.1353  0.4350  1.3321
 2707THY    CA467667   6.408   8.813   7.649  0.0857  0.1190  0.3790
 2707THY    HA467668   6.337   8.814   7.566  0.2346 -2.6156  0.1008
 2707THY    CA567669   6.518   8.727   7.642 -0.8985 -0.4402 -0.0023
 2707THY    CM167670   6.531   8.638   7.535  0.4219  0.5544  0.0155
 2707THY    HM167671   6.632   8.635   7.491 -0.1066 -0.7071 -1.1901
 2707THY    HM267672   6.499   8.544   7.582  1.6619  0.4685  0.7380
 2707THY    HM367673   6.463   8.654   7.451  2.1378 -0.0471 -1.5700
 2707THY    CA667674   6.603   8.711   7.752 -0.4594  0.1713 -0.3788
 2707THY    HA667675   6.677   8.632   7.750  0.1146  0.7134 -1.2520
 2708THY      O67676   2.372   8.986   5.709 -0.5339  0.6455 -0.0041
 2708THY     HO67677   2.297   8.959   5.652  1.0384  0.3406 -2.0545
 2708THY    CA167678   2.324   9.005   5.833  0.1907  0.1118 -0.4454
 2708THY    CA267679   2.409   9.013   5.942  0.0933  0.1042  0.3890
 2708THY    CP167680   2.557   9.018   5.913  0.3101  0.6885 -0.7956
 2708THY    HP167681   2.578   9.019   5.806  0.1047 -0.3042 -0.8516
 2708THY    CP267682   2.629   9.146   5.962  0.1318 -1.3192 -0.0940
 2708THY    HP267683   2.588   9.238   5.919  1.4295 -0.0506  1.2706
 2708THY    HP367684   2.615   9.168   6.068  0.9708 -0.9143 -0.0580
 2708THY    HP467685   2.731   9.155   5.923 -0.1428  3.1706 -0.3302
 2708THY    CP367686   2.624   8.895   5.973  0.5098 -0.2805  0.2073
 2708THY    HP567687   2.608   8.905   6.081  0.3918 -0.0040  0.1642
 2708THY    HP667688   2.578   8.803   5.934  0.3128  0.2485 -0.8449
 2708THY    HP767689   2.733   8.887   5.962  0.6774  1.0801  0.6274
 2708THY    CA367690   2.343   9.023   6.068 -0.4587  0.2612 -0.0144
 2708THY    HA367691   2.409   9.026   6.154 -0.5114  0.8733  0.0070
 2708THY    CA467692   2.205   9.024   6.078  0.3267 -0.2946 -0.0804
 2708THY    HA467693   2.158   9.035   6.175 -0.6511  0.6960 -0.6445
 2708THY    CA567694   2.123   9.015   5.961 -0.1073  1.0488 -0.2457
 2708THY    CM167695   1.975   9.021   5.978 -0.2670  0.4281  0.2101
 2708THY    HM167696   1.951   8.986   6.079  0.9449  0.1234  0.4048
 2708THY    HM267697   1.942   9.124   5.958 -0.4673 -0.0460 -2.1394
 2708THY    HM367698   1.921   8.962   5.904  0.6459  0.0314 -0.1411
 2708THY    CA667699   2.185   8.999   5.840  0.0053  0.5480 -0.1742
 2708THY    HA667700   2.126   8.997   5.749  1.4964  1.2621 -1.2012
 2709THY      O67701   7.338   7.773   8.602  0.0074 -0.2208 -0.1639
 2709THY     HO67702   7.381   7.688   8.579  1.6544  0.4448  0.3604
 2709THY    CA167703   7.412   7.804   8.708 -0.7950  0.2339 -0.1109
 2709THY    CA267704   7.431   7.935   8.744 -0.1573  0.5730 -0.7979
 2709THY    CP167705   7.397   8.052   8.653  0.7931  0.3543 -0.6419
 2709THY    HP167706   7.340   8.008   8.570  2.5125 -1.3760 -0.9704
 2709THY    CP267707   7.308   8.150   8.731 -0.0066 -0.1236 -0.1536
 2709THY    HP267708   7.231   8.100   8.790  0.8168  0.1069  1.1609
 2709THY    HP367709   7.373   8.208   8.797 -0.4403  0.2471 -0.0495
 2709THY    HP467710   7.260   8.224   8.666 -3.1469 -1.6858  0.1867
 2709THY    CP367711   7.519   8.123   8.599 -0.4887 -0.1701 -0.3177
 2709THY    HP567712   7.576   8.171   8.679 -0.1522 -2.1599  0.6957
 2709THY    HP667713   7.585   8.053   8.545  1.1230  0.3472  0.9209
 2709THY    HP767714   7.501   8.196   8.519 -2.1080 -1.5580 -1.2904
 2709THY    CA367715   7.508   7.961   8.859 -0.3195 -0.4159  0.3713
 2709THY    HA367716   7.525   8.060   8.901 -1.1705  0.2581 -0.8111
 2709THY    CA467717   7.567   7.852   8.929  0.2418  0.2103  0.1484
 2709THY    HA467718   7.623   7.867   9.021 -0.6254 -2.5727  1.2067
 2709THY    CA567719   7.550   7.721   8.893  0.3512  0.2722 -0.0270
 2709THY    CM167720   7.614   7.613   8.974  0.2372 -0.1768 -0.2918
 2709THY    HM167721   7.642   7.530   8.909  0.3673 -0.2543 -0.1381
 2709THY    HM267722   7.702   7.656   9.024 -0.0426  0.7368 -0.5612
 2709THY    HM367723   7.542   7.571   9.045 -0.8583  3.4136  0.9223
 2709THY    CA667724   7.476   7.699   8.774 -0.8049 -0.3782  0.6087
 2709THY    HA667725   7.454   7.597   8.743 -0.4684 -0.1268 -0.5075
 2710THY      O67726   2.233   5.990   7.900  0.2454  0.4711  0.2805
 2710THY     HO67727   2.198   6.034   7.979  2.1203  0.0321  1.4096
 2710THY    CA167728   2.243   6.088   7.803 -0.0092  0.4601 -0.9700
 2710THY    CA267729   2.282   6.063   7.671  0.6626 -0.2019 -0.1095
 2710THY    CP167730   2.280   5.928   7.614  0.6177  0.2248  0.0789
 2710THY    HP167731   2.251   5.859   7.695 -1.8330  1.8921  0.7614
 2710THY    CP267732   2.166   5.919   7.514 -0.2754 -0.3345  0.0332
 2710THY    HP267733   2.075   5.952   7.565 -0.1744  1.0819 -0.6415
 2710THY    HP367734   2.197   5.992   7.438 -1.5005 -0.1626 -0.3290
 2710THY    HP467735   2.155   5.829   7.453 -1.3785  1.8599 -3.2879
 2710THY    CP367736   2.413   5.892   7.539  0.3870 -0.2162  0.3355
 2710THY    HP567737   2.488   5.934   7.606  0.5649 -0.0268  0.0182
 2710THY    HP667738   2.420   5.785   7.517 -0.7053 -0.2020 -0.2098
 2710THY    HP767739   2.420   5.944   7.443 -0.5540 -1.9560 -0.7317
 2710THY    CA367740   2.309   6.172   7.584 -0.6988 -0.6813  0.3663
 2710THY    HA367741   2.329   6.161   7.478 -1.0215  0.9125  0.1215
 2710THY    CA467742   2.298   6.301   7.629 -0.1675  0.0386  0.1194
 2710THY    HA467743   2.319   6.378   7.556  1.0032 -0.3692  0.0018
 2710THY    CA567744   2.250   6.326   7.766 -0.8248  0.0402  0.3677
 2710THY    CM167745   2.247   6.471   7.814  0.2655  0.5120  0.7922
 2710THY    HM167746   2.249   6.470   7.924 -1.9102 -2.7535  0.9525
 2710THY    HM267747   2.333   6.527   7.775  0.3620 -1.2268 -1.7196
 2710THY    HM367748   2.155   6.521   7.783  0.1286  1.0182  1.9724
 2710THY    CA667749   2.218   6.222   7.850  0.2115  0.3937  0.3021
 2710THY    HA667750   2.188   6.241   7.953  2.3007  0.4278  0.9672
 2711THY      O67751   7.683   4.188   4.119  0.2610 -0.2085  0.1323
 2711THY     HO67752   7.620   4.115   4.128 -2.2886  1.5959 -1.4437
 2711THY    CA167753   7.791   4.154   4.190  0.2384  0.3543 -0.0678
 2711THY    CA267754   7.899   4.242   4.213  0.3168 -0.2457  0.9476
 2711THY    CP167755   7.912   4.372   4.144 -0.2006 -1.1954 -0.0427
 2711THY    HP167756   7.841   4.405   4.067 -2.1006  0.5232  2.2723
 2711THY    CP267757   7.887   4.489   4.243 -0.1081  0.0471 -0.1659
 2711THY    HP267758   7.959   4.498   4.326  0.0926  2.0675 -0.5102
 2711THY    HP367759   7.894   4.590   4.201  1.8504  0.2878  0.6181
 2711THY    HP467760   7.786   4.469   4.280  0.5997 -0.7447  1.4467
 2711THY    CP367761   8.055   4.406   4.083  0.1537  0.2394  0.1203
 2711THY    HP567762   8.079   4.335   4.004 -0.9956 -0.3229  0.2555
 2711THY    HP667763   8.049   4.508   4.043  0.0411 -0.0458 -0.6051
 2711THY    HP767764   8.136   4.404   4.157 -0.3041  0.7184  0.6466
 2711THY    CA367765   7.998   4.197   4.300 -0.0412  0.4607  0.2226
 2711THY    HA367766   8.083   4.259   4.328  0.0512  0.4728 -0.0879
 2711THY    CA467767   7.992   4.070   4.364 -0.2240 -0.4451  0.1102
 2711THY    HA467768   8.070   4.034   4.431 -0.0326  0.5460  0.4309
 2711THY    CA567769   7.891   3.988   4.331 -0.0671 -0.3880 -0.2211
 2711THY    CM167770   7.889   3.846   4.384  0.2369 -0.4685  0.0948
 2711THY    HM167771   7.932   3.843   4.485 -1.2185  1.2190  0.8194
 2711THY    HM267772   7.785   3.814   4.395 -0.3610  0.5275 -2.2384
 2711THY    HM367773   7.948   3.777   4.322  1.5115  0.1945  0.5215
 2711THY    CA667774   7.788   4.025   4.249  0.2343 -0.4561 -0.8835
 2711THY    HA667775   7.709   3.954   4.226  0.3752 -0.1542 -2.3789
 2712THY      O67776   4.255   7.791   1.711  0.3135  0.1334 -0.8632
 2712THY     HO67777   4.331   7.776   1.769  0.9150  1.9532 -1.1220
 2712THY    CA167778   4.307   7.870   1.606 -0.4753  0.4492  0.6965
 2712THY    CA267779   4.223   7.949   1.517  0.7693 -0.1500  0.1425
 2712THY    CP167780   4.067   7.943   1.530  0.0074  0.5041  0.0938
 2712THY    HP167781   4.036   7.902   1.628  0.2058  0.5676  0.1833
 2712THY    CP267782   4.006   8.078   1.499 -0.1687 -0.0202 -1.1021
 2712THY    HP267783   3.999   8.095   1.391 -0.3208 -0.6783 -1.1969
 2712THY    HP367784   3.905   8.093   1.540 -0.0781 -2.0470  0.0309
 2712THY    HP467785   4.068   8.155   1.547 -0.8697 -0.0470 -0.1213
 2712THY    CP367786   4.000   7.839   1.443 -0.1696 -0.3080 -0.2302
 2712THY    HP567787   3.995   7.874   1.339 -2.0437 -0.3160 -0.1696
 2712THY    HP667788   4.061   7.748   1.450  0.6290  0.0647 -1.7748
 2712THY    HP767789   3.900   7.814   1.480  0.1503 -1.3151 -0.0217
 2712THY    CA367790   4.279   8.014   1.406 -0.6290 -0.2114  0.4608
 2712THY    HA367791   4.213   8.059   1.333  1.0910  0.2872 -0.8427
 2712THY    CA467792   4.420   8.014   1.398  0.2822  0.1309  0.4397
 2712THY    HA467793   4.465   8.079   1.323 -0.0164 -0.0830  0.0675
 2712THY    CA567794   4.498   7.945   1.489  0.6325  0.0055 -0.0406
 2712THY    CM167795   4.646   7.960   1.487  0.4272  0.5183  0.5250
 2712THY    HM167796   4.703   7.867   1.481 -0.8760 -0.2365 -0.5288
 2712THY    HM267797   4.677   8.017   1.398  2.0335  0.5274  1.0490
 2712THY    HM367798   4.685   8.016   1.573 -1.2751  2.8695 -0.1255
 2712THY    CA667799   4.446   7.873   1.593  0.0936 -0.0859 -0.3829
 2712THY    HA667800   4.514   7.819   1.658  1.5508  1.2238 -0.7547
 2713THY      O67801   7.587   3.505   4.243  0.5895 -0.4096 -0.3496
 2713THY     HO67802   7.660   3.509   4.307  0.2407  0.0647  0.0247
 2713THY    CA167803   7.632   3.547   4.125  0.3825 -0.0434 -0.0490
 2713THY    CA267804   7.592   3.483   4.008 -0.2185  0.7695 -0.5969
 2713THY    CP167805   7.480   3.379   4.006 -0.1084 -1.3025 -0.1861
 2713THY    HP167806   7.465   3.344   4.108  1.1514  1.7990  1.1898
 2713THY    CP267807   7.345   3.450   3.973 -0.3423 -0.2344 -0.0343
 2713THY    HP267808   7.360   3.497   3.875 -1.2320  0.4179  0.1276
 2713THY    HP367809   7.273   3.367   3.966 -0.8111 -0.0328  1.9530
 2713THY    HP467810   7.315   3.521   4.051  3.0078  0.2961  0.9324
 2713THY    CP367811   7.507   3.258   3.922  0.5233 -0.6025  0.5598
 2713THY    HP567812   7.613   3.250   3.894  0.7389  1.1236  0.7798
 2713THY    HP667813   7.465   3.165   3.963 -3.9170  1.1804  0.5837
 2713THY    HP767814   7.464   3.274   3.822  3.5080 -0.2921 -0.7720
 2713THY    CA367815   7.652   3.518   3.879 -0.2796  0.4028 -0.1411
 2713THY    HA367816   7.620   3.473   3.785 -0.3443 -0.4794  0.2987
 2713THY    CA467817   7.750   3.615   3.879  0.0107  0.3336 -0.0554
 2713THY    HA467818   7.799   3.654   3.790  0.9776 -0.3019  0.1817
 2713THY    CA567819   7.792   3.681   3.994  0.1802 -0.5924 -0.4833
 2713THY    CM167820   7.915   3.770   3.983 -0.1323  0.5439 -0.3094
 2713THY    HM167821   7.969   3.763   4.078 -1.8413  1.1439  0.7537
 2713THY    HM267822   7.978   3.745   3.897 -1.3390  4.0377 -2.3923
 2713THY    HM367823   7.890   3.876   3.998 -0.8370  0.0278  3.0557
 2713THY    CA667824   7.727   3.647   4.121  0.2396 -0.6691 -0.1059
 2713THY    HA667825   7.779   3.678   4.211 -1.5427 -1.5843  1.2967
 2714THY      O67826   6.133   1.552   3.360 -0.2711  0.2620  0.0496
 2714THY     HO67827   6.110   1.500   3.282 -0.5539 -2.8301  2.0136
 2714THY    CA167828   6.086   1.486   3.465  0.0430  0.0345 -0.5979
 2714THY    CA267829   6.038   1.561   3.577  0.1592  0.7611  0.6298
 2714THY    CP167830   6.034   1.717   3.586  0.5130 -0.5599 -0.2335
 2714THY    HP167831   6.123   1.754   3.534 -0.0662 -1.5057 -1.9918
 2714THY    CP267832   5.911   1.779   3.531 -0.0801 -0.2874  0.2440
 2714THY    HP267833   5.923   1.887   3.541 -1.7192  0.0909 -1.3922
 2714THY    HP367834   5.894   1.758   3.425 -3.0186 -0.7808  0.7325
 2714THY    HP467835   5.828   1.743   3.593  0.0427 -1.2416 -0.1213
 2714THY    CP367836   6.065   1.762   3.731  0.1235  0.2051  0.1191
 2714THY    HP567837   5.999   1.728   3.812 -0.7603  1.1080 -0.2108
 2714THY    HP667838   6.159   1.709   3.754  0.8898  0.3118 -2.4737
 2714THY    HP767839   6.083   1.870   3.742 -1.4041  0.6036 -0.9593
 2714THY    CA367840   5.965   1.484   3.676 -0.7279 -1.2342 -0.6659
 2714THY    HA367841   5.914   1.540   3.754  3.1341 -0.8909  1.8786
 2714THY    CA467842   5.954   1.345   3.658  0.0048 -0.2018 -0.5063
 2714THY    HA467843   5.890   1.297   3.732  1.6290 -3.9262 -1.3186
 2714THY    CA567844   6.004   1.281   3.550  0.4322  0.4824  0.3564
 2714THY    CM167845   5.986   1.135   3.528 -0.2095 -0.1552  0.1269
 2714THY    HM167846   5.941   1.092   3.618  1.0264  0.1687  0.9292
 2714THY    HM267847   5.922   1.103   3.445  1.0028 -0.9759 -0.5346
 2714THY    HM367848   6.083   1.086   3.512 -0.5339 -0.3139 -1.5383
 2714THY    CA667849   6.082   1.345   3.457  0.9813 -0.2740  0.4057
 2714THY    HA667850   6.123   1.285   3.376  0.6503  1.9201 -1.4892
 2715THY      O67851   1.274   0.240   2.897 -0.3748 -0.0506  0.1021
 2715THY     HO67852   1.370   0.230   2.883 -0.6895 -1.0308 -1.5086
 2715THY    CA167853   1.249   0.349   2.979  0.4637  0.4910  0.5975
 2715THY    CA267854   1.118   0.398   2.986 -0.1045 -0.3524 -0.2541
 2715THY    CP167855   1.003   0.338   2.914  0.4203 -0.0359 -0.9607
 2715THY    HP167856   1.020   0.230   2.913 -3.4940 -0.8214  0.1427
 2715THY    CP267857   0.869   0.349   2.986  0.3456 -0.2025  0.1881
 2715THY    HP267858   0.840   0.455   2.996 -0.6567 -0.3714 -0.7851
 2715THY    HP367859   0.793   0.297   2.927 -1.3727  1.1836  1.0435
 2715THY    HP467860   0.875   0.286   3.076  0.3504 -0.3718  0.0675
 2715THY    CP367861   0.994   0.392   2.774 -0.0862 -0.4000  0.9271
 2715THY    HP567862   0.995   0.501   2.765 -2.5150 -0.4593 -0.9661
 2715THY    HP667863   1.069   0.349   2.706 -0.7788  0.1855 -0.2406
 2715THY    HP767864   0.894   0.369   2.735  0.1697 -1.4729  0.8731
 2715THY    CA367865   1.102   0.509   3.066  0.3109 -0.4262 -0.3602
 2715THY    HA367866   1.007   0.561   3.075  1.0995  0.8901  0.9251
 2715THY    CA467867   1.208   0.563   3.141 -0.8195 -0.1519  0.1019
 2715THY    HA467868   1.186   0.648   3.206  0.8016  1.0801 -0.8901
 2715THY    CA567869   1.330   0.509   3.132  0.5240 -0.9688  1.3217
 2715THY    CM167870   1.437   0.562   3.223 -0.1707  0.0310  0.0968
 2715THY    HM167871   1.519   0.489   3.218 -2.1869 -2.5410  1.7173
 2715THY    HM267872   1.458   0.665   3.191  0.0905  0.2834  1.0371
 2715THY    HM367873   1.413   0.560   3.330  1.5919 -0.7779  0.5184
 2715THY    CA667874   1.354   0.400   3.047  0.0426  0.1442  0.0949
 2715THY    HA667875   1.454   0.361   3.029 -0.2521  0.9028 -4.2634
 2716THY      O67876   6.091   6.686   7.924  0.1264 -0.1282 -0.2396
 2716THY     HO67877   5.997   6.688   7.899  0.6439  0.8600 -2.2658
 2716THY    CA167878   6.120   6.557   7.966  0.1973 -0.5022  0.5268
 2716THY    CA267879   6.248   6.509   7.981  0.0735  0.1802 -0.5097
 2716THY    CP167880   6.361   6.607   7.952  0.5007  0.3027 -0.0291
 2716THY    HP167881   6.336   6.706   7.914 -0.3302  0.0607 -0.1170
 2716THY    CP267882   6.428   6.630   8.095  0.0655 -0.1342  0.7945
 2716THY    HP267883   6.466   6.539   8.141  1.4827  0.1740  0.3021
 2716THY    HP367884   6.508   6.703   8.080 -1.8102  1.8581 -0.1788
 2716THY    HP467885   6.359   6.686   8.159 -1.0593 -0.0002 -0.4844
 2716THY    CP367886   6.461   6.554   7.845 -0.2730 -0.1929 -0.5339
 2716THY    HP567887   6.543   6.627   7.839  0.7599 -1.2970 -0.2711
 2716THY    HP667888   6.513   6.466   7.886  0.2915  1.5227  2.7636
 2716THY    HP767889   6.422   6.539   7.744 -1.8408 -1.4178  0.2222
 2716THY    CA367890   6.272   6.380   8.026  0.3940  0.2069  0.1616
 2716THY    HA367891   6.372   6.340   8.037  0.0676 -0.7302 -0.1916
 2716THY    CA467892   6.161   6.295   8.064 -0.0159 -0.8602  0.5810
 2716THY    HA467893   6.175   6.192   8.096  1.7009 -1.0402 -0.6083
 2716THY    CA567894   6.036   6.343   8.055 -0.1596 -0.6051  0.4008
 2716THY    CM167895   5.918   6.250   8.088 -0.0856 -0.5177 -0.1420
 2716THY    HM167896   5.924   6.215   8.191  4.0160 -0.2662 -0.1128
 2716THY    HM267897   5.824   6.305   8.087 -0.7293 -1.4298  2.5950
 2716THY    HM367898   5.897   6.167   8.019 -0.1576 -0.3097 -0.3732
 2716THY    CA667899   6.016   6.475   8.004  0.5419 -0.0780  0.4690
 2716THY    HA667900   5.915   6.513   7.995  0.8543  0.2630 -2.7839
 2717THY      O67901   6.328   0.921   4.520 -0.0547  0.6027  0.7954
 2717THY     HO67902   6.378   0.971   4.588  0.4592  2.0090 -0.5546
 2717THY    CA167903   6.380   0.798   4.520 -0.2827  0.4791 -0.8637
 2717THY    CA267904   6.424   0.739   4.398  0.3769  0.5388  0.5061
 2717THY    CP167905   6.425   0.831   4.275 -0.7144 -0.2529  0.7541
 2717THY    HP167906   6.329   0.884   4.273 -1.4276 -1.5302 -0.1519
 2717THY    CP267907   6.545   0.937   4.281  0.3271  0.5909  0.0261
 2717THY    HP267908   6.518   1.032   4.233 -0.5246  1.7530  2.6240
 2717THY    HP367909   6.573   0.955   4.385  1.0355 -1.2211  0.1874
 2717THY    HP467910   6.628   0.903   4.219  1.7167 -1.8830  2.9928
 2717THY    CP367911   6.439   0.756   4.146 -0.7182  0.3503  0.1844
 2717THY    HP567912   6.539   0.711   4.141 -1.1660 -0.5602 -1.4082
 2717THY    HP667913   6.354   0.687   4.148 -1.0401  0.5414  4.8971
 2717THY    HP767914   6.440   0.824   4.060 -2.7634  0.8864  0.5355
 2717THY    CA367915   6.492   0.616   4.394  0.2320  0.2300  0.0221
 2717THY    HA367916   6.535   0.568   4.306 -0.5274  0.4539 -0.4757
 2717THY    CA467917   6.512   0.550   4.517  0.5241  0.1817 -0.1296
 2717THY    HA467918   6.556   0.450   4.513  1.1127  0.4585 -2.0697
 2717THY    CA567919   6.469   0.610   4.637  0.0364  0.0764  0.0527
 2717THY    CM167920   6.496   0.535   4.771  0.2211  0.3757  0.0618
 2717THY    HM167921   6.402   0.544   4.828 -0.3911  1.3834 -1.0713
 2717THY    HM267922   6.528   0.432   4.751 -1.8766 -0.4235  0.5262
 2717THY    HM367923   6.572   0.586   4.831  0.6412 -0.9095  0.6742
 2717THY    CA667924   6.401   0.730   4.641 -0.3202  0.0672  0.9783
 2717THY    HA667925   6.374   0.782   4.732  0.6275 -1.7273  2.3571
 2718THY      O67926   5.672   3.234   0.669  0.5836  0.2850  0.2763
 2718THY     HO67927   5.580   3.236   0.636  0.2661 -0.7805  1.0278
 2718THY    CA167928   5.731   3.143   0.587 -0.4516  0.0893 -0.4813
 2718THY    CA267929   5.750   3.014   0.622 -0.1754  0.1619 -0.2806
 2718THY    CP167930   5.695   2.970   0.755 -0.3722 -0.5754  0.1828
 2718THY    HP167931   5.721   3.057   0.818 -1.6962  0.1652 -0.2638
 2718THY    CP267932   5.547   2.958   0.742  0.5721 -0.2263  0.0059
 2718THY    HP267933   5.495   2.937   0.836  0.3650 -0.1813 -0.0989
 2718THY    HP367934   5.501   3.053   0.715  1.7611  0.4261  0.2097
 2718THY    HP467935   5.529   2.878   0.669 -1.7344 -0.8613  1.1955
 2718THY    CP367936   5.770   2.855   0.826  0.5957 -0.1169  0.8244
 2718THY    HP567937   5.723   2.846   0.924 -0.0333 -0.2009  0.5222
 2718THY    HP667938   5.744   2.765   0.767 -1.0390  0.4419  0.6251
 2718THY    HP767939   5.879   2.867   0.825  0.5795  0.7271  3.2855
 2718THY    CA367940   5.831   2.929   0.543  0.4788 -0.6080  0.0767
 2718THY    HA367941   5.841   2.825   0.570 -0.5350 -0.6855  0.2237
 2718THY    CA467942   5.896   2.987   0.431  0.1206 -1.0335  0.0006
 2718THY    HA467943   5.956   2.926   0.365  1.3167  1.5763 -1.4703
 2718THY    CA567944   5.882   3.122   0.406 -0.3578  0.3950  0.4624
 2718THY    CM167945   5.937   3.178   0.288 -0.5327  0.1825  0.0594
 2718THY    HM167946   5.927   3.287   0.293 -1.2557  0.0776  1.8569
 2718THY    HM267947   6.043   3.150   0.280 -0.8573 -1.2344  0.3932
 2718THY    HM367948   5.874   3.144   0.205 -4.4680  1.1200  2.3947
 2718THY    CA667949   5.797   3.200   0.479  0.4089 -0.5291  0.9271
 2718THY    HA667950   5.771   3.303   0.455  0.0865 -1.4022 -3.1620
 2719THY      O67951   9.074   3.416   6.131 -0.7490  0.3878  0.3423
 2719THY     HO67952   9.107   3.344   6.074 -2.1517  0.2294 -0.3059
 2719THY    CA167953   8.963   3.461   6.068  0.3939 -0.9220 -0.4002
 2719THY    CA267954   8.891   3.574   6.123 -0.5259  0.4521 -0.5529
 2719THY    CP167955   8.937   3.655   6.241 -0.0000  0.2519 -0.2886
 2719THY    HP167956   9.044   3.636   6.252  0.1565  1.4873  0.5489
 2719THY    CP267957   8.917   3.809   6.234 -0.3524 -0.7316 -0.7209
 2719THY    HP267958   8.977   3.861   6.310 -0.6808  1.0249 -1.6247
 2719THY    HP367959   8.938   3.864   6.142 -0.7006  1.1073  0.2603
 2719THY    HP467960   8.811   3.830   6.250 -0.2167 -0.3281 -0.3459
 2719THY    CP367961   8.879   3.599   6.375 -0.1842 -0.3684  0.3886
 2719THY    HP567962   8.770   3.591   6.369 -0.0663 -1.0380 -1.6224
 2719THY    HP667963   8.920   3.499   6.393 -1.8936 -0.9896  1.0053
 2719THY    HP767964   8.888   3.666   6.461 -1.2263  1.3033 -0.7299
 2719THY    CA367965   8.775   3.608   6.056  0.2290 -0.7374  0.1621
 2719THY    HA367966   8.727   3.702   6.081 -1.2219 -1.0014 -1.4569
 2719THY    CA467967   8.730   3.537   5.941 -0.0565  0.0972  0.2121
 2719THY    HA467968   8.629   3.559   5.906 -1.4927 -0.0567  3.8337
 2719THY    CA567969   8.802   3.425   5.896  0.1258  0.5495  0.0665
 2719THY    CM167970   8.759   3.345   5.774  0.0296 -0.3468  0.0089
 2719THY    HM167971   8.809   3.380   5.682 -1.2772  2.4660  0.2595
 2719THY    HM267972   8.756   3.238   5.797  0.9686 -0.1743  1.0639
 2719THY    HM367973   8.654   3.373   5.763  0.3054  0.8771  0.3357
 2719THY    CA667974   8.914   3.385   5.960 -0.3203 -0.4839 -0.0317
 2719THY    HA667975   8.964   3.297   5.922 -1.2548 -0.6541 -0.9001
 2720THY      O67976   5.649   0.371   1.069  0.0705 -0.1577  0.2182
 2720THY     HO67977   5.687   0.310   1.134  1.8493  1.4377  0.7834
 2720THY    CA167978   5.596   0.471   1.143  0.8217 -0.3673  0.1077
 2720THY    CA267979   5.503   0.571   1.091 -0.0729 -0.6525  0.2939
 2720THY    CP167980   5.454   0.566   0.948  0.0190 -0.0014 -0.0973
 2720THY    HP167981   5.469   0.466   0.905  0.9984 -0.4553  1.2217
 2720THY    CP267982   5.305   0.579   0.952  0.6977 -0.1065 -0.8169
 2720THY    HP267983   5.272   0.493   1.011  1.2240  1.5954  2.1943
 2720THY    HP367984   5.274   0.655   1.025 -0.1087 -1.8419  0.7303
 2720THY    HP467985   5.261   0.591   0.853  0.4262 -0.5012 -0.7447
 2720THY    CP367986   5.518   0.669   0.861  0.4630 -0.5542  1.0026
 2720THY    HP567987   5.491   0.765   0.907 -1.7538 -0.1838 -0.9013
 2720THY    HP667988   5.627   0.662   0.853  0.5419  0.5246  0.8963
 2720THY    HP767989   5.471   0.674   0.763  1.2083 -1.4077  0.5958
 2720THY    CA367990   5.473   0.687   1.167 -0.9844  0.0849 -0.4266
 2720THY    HA367991   5.416   0.770   1.126 -2.7296 -0.6947  0.3184
 2720THY    CA467992   5.521   0.694   1.301 -0.1604 -0.2544 -0.2288
 2720THY    HA467993   5.493   0.774   1.368  0.4658  0.2367 -0.5475
 2720THY    CA567994   5.604   0.592   1.350 -0.0095  0.0890 -0.1687
 2720THY    CM167995   5.652   0.598   1.498  0.4095  0.4657  0.2918
 2720THY    HM167996   5.587   0.546   1.570  1.6402  0.0675  1.1466
 2720THY    HM267997   5.755   0.563   1.508  0.7299  0.8339 -1.4406
 2720THY    HM367998   5.654   0.701   1.536 -0.2472  0.1547  1.2145
 2720THY    CA667999   5.646   0.482   1.270 -0.2765 -0.4939  0.2187
 2720THY    HA668000   5.715   0.410   1.312 -2.0960 -2.9675 -0.7560
 2721THY      O68001   9.447   4.806   5.097  0.9676 -0.2372  0.2262
 2721THY     HO68002   9.509   4.881   5.091 -0.1728  0.7990  0.8347
 2721THY    CA168003   9.484   4.732   5.206 -0.8721  0.4333  0.5396
 2721THY    CA268004   9.459   4.592   5.214  0.1614 -0.1636 -0.4228
 2721THY    CP168005   9.406   4.508   5.095  0.3274  0.0339 -0.0270
 2721THY    HP168006   9.331   4.569   5.043 -1.1198  1.4468  3.3988
 2721THY    CP268007   9.516   4.464   4.998 -0.5005  0.4212  0.3866
 2721THY    HP268008   9.495   4.388   4.922  0.3673 -1.4252  1.9121
 2721THY    HP368009   9.563   4.551   4.951 -1.9785  0.8590 -0.3497
 2721THY    HP468010   9.606   4.424   5.045 -0.3992 -0.7077 -0.7344
 2721THY    CP368011   9.323   4.386   5.156  0.1253 -0.2856  0.7786
 2721THY    HP568012   9.239   4.410   5.223 -0.3359  0.4328 -0.0347
 2721THY    HP668013   9.275   4.335   5.072  1.6987  1.9697 -1.6368
 2721THY    HP768014   9.388   4.313   5.205  0.2879  0.4956  1.7636
 2721THY    CA368015   9.512   4.526   5.329 -0.2810  0.0133 -0.5783
 2721THY    HA368016   9.518   4.417   5.327  1.9648  0.0936 -1.5045
 2721THY    CA468017   9.578   4.601   5.431 -0.3561  0.2645 -0.0342
 2721THY    HA468018   9.629   4.545   5.508 -1.5371 -0.0638  0.5322
 2721THY    CA568019   9.600   4.739   5.419 -0.1966 -0.2745 -0.3015
 2721THY    CM168020   9.687   4.805   5.522 -0.2181  0.5026  0.5400
 2721THY    HM168021   9.753   4.871   5.464  0.5266  1.6766  2.6134
 2721THY    HM268022   9.631   4.861   5.598  0.1914  0.1684  1.0924
 2721THY    HM368023   9.746   4.729   5.575  0.6071  1.1663  0.6010
 2721THY    CA668024   9.551   4.807   5.307  0.1686  0.0311 -0.2692
 2721THY    HA668025   9.548   4.914   5.294  0.2452  0.0130 -0.4341
 2722THY      O68026   0.617   6.768   8.315 -0.1082 -0.0857 -0.0304
 2722THY     HO68027   0.554   6.756   8.242 -0.8506  0.2710  0.5426
 2722THY    CA168028   0.631   6.649   8.386  0.2493 -0.2772 -0.0826
 2722THY    CA268029   0.683   6.654   8.514  0.6358  0.2525  0.6157
 2722THY    CP168030   0.727   6.778   8.587 -0.1844 -0.7091 -0.1660
 2722THY    HP168031   0.691   6.871   8.539  0.1712 -0.9105 -0.8431
 2722THY    CP268032   0.679   6.797   8.736  0.5582  0.0773  0.3723
 2722THY    HP268033   0.645   6.900   8.756  3.1558  1.0266  0.3716
 2722THY    HP368034   0.591   6.736   8.758  1.0759 -0.8804 -0.1473
 2722THY    HP468035   0.758   6.776   8.809  0.6048 -4.2100 -0.6606
 2722THY    CP368036   0.877   6.788   8.577 -0.0806 -0.6997 -0.2902
 2722THY    HP568037   0.927   6.717   8.644 -0.2860 -0.7948 -0.2384
 2722THY    HP668038   0.896   6.768   8.471 -2.3168 -1.5468 -0.5779
 2722THY    HP768039   0.897   6.894   8.598  0.1477 -0.1884 -2.8372
 2722THY    CA368040   0.691   6.529   8.579 -0.4500  0.2380 -0.4768
 2722THY    HA368041   0.736   6.519   8.678 -2.9549  2.1092  0.9697
 2722THY    CA468042   0.656   6.411   8.510 -0.2887  0.0227  0.5657
 2722THY    HA468043   0.675   6.316   8.559 -1.3862 -0.2877  0.4092
 2722THY    CA568044   0.599   6.415   8.381 -0.0264  0.0186 -0.1290
 2722THY    CM168045   0.540   6.296   8.317  0.2103  0.2570 -0.2693
 2722THY    HM168046   0.523   6.305   8.209  0.1582  0.5531 -0.2362
 2722THY    HM268047   0.603   6.207   8.324 -0.7599 -0.4315 -0.0761
 2722THY    HM368048   0.439   6.272   8.351  0.5477 -0.2995  0.3708
 2722THY    CA668049   0.591   6.538   8.319 -0.1401 -0.0304  0.9611
 2722THY    HA668050   0.549   6.549   8.219 -0.7380 -1.3167  1.0622
 2723THY      O68051   2.291   4.664   5.198  0.1026  0.0306 -0.6942
 2723THY     HO68052   2.203   4.700   5.222 -0.1498 -0.9874 -0.0014
 2723THY    CA168053   2.367   4.773   5.157  0.4075  0.3747  0.3910
 2723THY    CA268054   2.508   4.764   5.129  0.2483  0.1069  0.1869
 2723THY    CP168055   2.584   4.642   5.156 -0.9938 -0.5141 -0.5099
 2723THY    HP168056   2.523   4.557   5.123 -0.1382 -1.5179  0.4237
 2723THY    CP268057   2.711   4.625   5.068 -0.3618 -0.4918 -0.0295
 2723THY    HP268058   2.693   4.635   4.961 -1.9364 -2.2693  0.0096
 2723THY    HP368059   2.790   4.688   5.110 -1.8381 -1.0062  3.9633
 2723THY    HP468060   2.738   4.520   5.081 -0.3150 -0.5147 -0.3155
 2723THY    CP368061   2.623   4.627   5.312  0.0702 -0.0855 -0.0453
 2723THY    HP568062   2.660   4.527   5.336 -0.6293 -0.8553 -1.9613
 2723THY    HP668063   2.699   4.702   5.335  1.2656 -1.1331 -0.4863
 2723THY    HP768064   2.536   4.646   5.376  0.3034  0.4393  0.1115
 2723THY    CA368065   2.563   4.889   5.084 -0.5355  0.1126 -0.1398
 2723THY    HA368066   2.669   4.893   5.059 -0.6373  0.4065 -0.5265
 2723THY    CA468067   2.486   5.009   5.065  0.2701 -0.1077 -0.5361
 2723THY    HA468068   2.533   5.101   5.030 -0.5930  0.7336  0.4449
 2723THY    CA568069   2.353   5.007   5.118 -0.5013  0.3528  0.2939
 2723THY    CM168070   2.264   5.134   5.107 -0.4725  0.0260  0.2423
 2723THY    HM168071   2.181   5.102   5.043 -0.5695 -1.7459  1.1893
 2723THY    HM268072   2.234   5.162   5.209  0.9708  0.3973  0.5877
 2723THY    HM368073   2.323   5.214   5.063 -0.4197 -0.2997 -0.2834
 2723THY    CA668074   2.299   4.892   5.159  0.2771  0.2917  0.5565
 2723THY    HA668075   2.196   4.899   5.190 -0.0408 -0.7204 -0.2430
 2724THY      O68076   5.046   0.844   7.410 -0.3161 -0.9624 -0.1079
 2724THY     HO68077   5.143   0.836   7.414 -0.1275  0.4677 -1.1421
 2724THY    CA168078   5.008   0.809   7.287  0.2877  0.8452 -0.4081
 2724THY    CA268079   4.961   0.911   7.196 -0.2509  0.3899 -0.4533
 2724THY    CP168080   4.971   1.062   7.239  0.2768  0.1640  0.2129
 2724THY    HP168081   5.013   1.069   7.340  0.2313 -0.9792  0.3287
 2724THY    CP268082   5.056   1.147   7.149  0.0500 -0.8751  0.3437
 2724THY    HP268083   5.018   1.145   7.046 -0.3227 -0.6928  0.4795
 2724THY    HP368084   5.071   1.247   7.190 -1.6110  0.4792 -2.1288
 2724THY    HP468085   5.155   1.100   7.151  0.6163  0.3001  0.8618
 2724THY    CP368086   4.826   1.126   7.258  0.6204 -0.6217  0.4547
 2724THY    HP568087   4.761   1.070   7.326 -1.1699  0.7721 -0.0314
 2724THY    HP668088   4.848   1.225   7.299 -1.4627 -0.4184  1.2052
 2724THY    HP768089   4.787   1.140   7.156 -1.0873 -0.0101  1.1583
 2724THY    CA368090   4.932   0.868   7.066 -0.1380 -0.1497 -0.0103
 2724THY    HA368091   4.898   0.943   6.995  0.4884  2.1990  2.0530
 2724THY    CA468092   4.943   0.731   7.029  0.5629 -0.0299 -0.0415
 2724THY    HA468093   4.937   0.709   6.923  0.5875  0.5611 -0.1718
 2724THY    CA568094   4.985   0.634   7.116 -0.2316 -0.6613 -0.1401
 2724THY    CM168095   4.991   0.482   7.079 -0.3252 -0.7180  0.0201
 2724THY    HM168096   4.893   0.436   7.065 -0.0828 -0.7990 -1.6553
 2724THY    HM268097   5.045   0.474   6.984  1.0943 -3.9298  0.9475
 2724THY    HM368098   5.048   0.421   7.150 -2.2750 -1.7935  0.7568
 2724THY    CA668099   5.020   0.678   7.245 -0.4423 -0.0567  0.5501
 2724THY    HA668100   5.056   0.605   7.317 -0.5067 -0.3305  0.3081
 2725THY      O68101   8.810   8.995   0.434  0.0676 -0.2011 -0.3397
 2725THY     HO68102   8.764   9.050   0.499 -0.8050 -1.0547 -0.2132
 2725THY    CA168103   8.858   9.064   0.323 -0.0727 -0.0953  0.2101
 2725THY    CA268104   8.916   9.007   0.210  0.2390  0.6302  0.1776
 2725THY    CP168105   8.933   8.860   0.208  0.2261 -0.4770  0.2620
 2725THY    HP168106   8.947   8.822   0.310 -0.3658  0.9711  0.9173
 2725THY    CP268107   8.808   8.789   0.144  0.2385  0.6771  0.0248
 2725THY    HP268108   8.809   8.679   0.146  1.0460  0.6660  2.3292
 2725THY    HP368109   8.717   8.810   0.202 -0.4651  0.1539 -0.8608
 2725THY    HP468110   8.791   8.816   0.039  1.7620  0.4051 -0.3100
 2725THY    CP368111   9.066   8.814   0.140 -0.4011 -0.1969 -0.2894
 2725THY    HP568112   9.072   8.707   0.163 -0.9625 -0.6204 -1.9892
 2725THY    HP668113   9.064   8.819   0.031  0.7184  0.4387 -0.2982
 2725THY    HP768114   9.159   8.858   0.180 -1.3063  1.3213  0.2363
 2725THY    CA368115   8.947   9.088   0.099 -0.6909 -0.2691  0.6385
 2725THY    HA368116   9.002   9.050   0.014 -0.6074 -1.7104  1.3132
 2725THY    CA468117   8.921   9.227   0.101  0.7246 -0.1309  0.1310
 2725THY    HA468118   8.945   9.292   0.017  3.3137 -2.5053 -1.1363
 2725THY    CA568119   8.856   9.283   0.209  0.1380 -0.3256  0.3274
 2725THY    CM168120   8.836   9.428   0.220  0.2252 -0.2427  0.0659
 2725THY    HM168121   8.824   9.478   0.123 -0.7463  0.4185  0.5088
 2725THY    HM268122   8.736   9.444   0.262  1.0411  1.1635  1.5790
 2725THY    HM368123   8.904   9.485   0.285  1.0349 -0.2826 -0.7274
 2725THY    CA668124   8.825   9.203   0.322 -0.5153  0.5787  0.5967
 2725THY    HA668125   8.781   9.251   0.409 -2.9460 -0.0964 -0.1850
 2726THY      O68126   2.461   0.441   3.601  0.2796  0.1796  0.4665
 2726THY     HO68127   2.404   0.382   3.653 -0.6809 -1.0002 -1.8091
 2726THY    CA168128   2.579   0.459   3.672  0.4452 -0.7401  0.0427
 2726THY    CA268129   2.662   0.570   3.653 -0.6520  0.0728  0.2340
 2726THY    CP168130   2.627   0.671   3.549 -0.8406 -0.4484 -0.3448
 2726THY    HP168131   2.524   0.706   3.566 -0.6353  0.4527 -0.8564
 2726THY    CP268132   2.707   0.808   3.565  0.1362  0.2804 -1.1557
 2726THY    HP268133   2.814   0.790   3.547  0.6161 -0.0633  1.5878
 2726THY    HP368134   2.671   0.881   3.492  1.9030 -0.5329 -2.9587
 2726THY    HP468135   2.700   0.848   3.666 -0.7230  0.3579 -1.2372
 2726THY    CP368136   2.647   0.622   3.405  0.9860 -0.1484  0.1553
 2726THY    HP568137   2.554   0.634   3.349  1.9629  2.9672 -1.0212
 2726THY    HP668138   2.730   0.676   3.358  0.4552  1.8881  1.4619
 2726THY    HP768139   2.684   0.518   3.411  2.5491  0.4255  1.1148
 2726THY    CA368140   2.773   0.578   3.737 -0.2850  0.2399 -0.2040
 2726THY    HA368141   2.842   0.662   3.734  1.4888 -1.1208  0.4392
 2726THY    CA468142   2.804   0.473   3.828  0.3909 -0.3458 -0.2951
 2726THY    HA468143   2.887   0.484   3.897 -0.8859 -1.6875  1.5731
 2726THY    CA568144   2.725   0.361   3.839  0.0165  0.1241 -0.1135
 2726THY    CM168145   2.776   0.250   3.924  0.0066 -0.2299 -0.0095
 2726THY    HM168146   2.877   0.215   3.903 -0.4934 -2.0094  0.4167
 2726THY    HM268147   2.792   0.292   4.024  0.0358  0.7766 -0.4203
 2726THY    HM368148   2.711   0.163   3.933  1.1259 -1.0701  0.1194
 2726THY    CA668149   2.613   0.358   3.758  0.4265 -0.1312  0.3473
 2726THY    HA668150   2.544   0.274   3.765 -2.1655  1.9590  1.8551
 2727THY      O68151   3.802   6.400   5.817  0.4217 -0.3706 -0.0852
 2727THY     HO68152   3.849   6.446   5.888  0.9197  1.3129 -1.4364
 2727THY    CA168153   3.900   6.376   5.721 -0.4678 -0.6781  0.0807
 2727THY    CA268154   3.862   6.347   5.585  0.7915 -0.4053  0.2060
 2727THY    CP168155   3.711   6.324   5.555  0.1680 -0.5709 -0.2181
 2727THY    HP168156   3.653   6.402   5.606  0.6518  0.7619 -1.6416
 2727THY    CP268157   3.671   6.326   5.408  0.1041  0.6304  0.1335
 2727THY    HP268158   3.681   6.225   5.366 -1.8386  1.4931 -2.7202
 2727THY    HP368159   3.565   6.352   5.399  0.7014  3.8769  1.3518
 2727THY    HP468160   3.715   6.389   5.330 -0.8311 -1.1103 -1.8889
 2727THY    CP368161   3.672   6.189   5.607  0.5270 -0.1367 -0.3713
 2727THY    HP568162   3.580   6.158   5.557  0.9984  1.0476 -2.0855
 2727THY    HP668163   3.749   6.120   5.572  0.0933 -1.1629  0.6631
 2727THY    HP768164   3.666   6.181   5.716 -0.4365 -0.5118 -0.4505
 2727THY    CA368165   3.960   6.328   5.488 -0.8009 -0.6480  0.3078
 2727THY    HA368166   3.939   6.290   5.388  2.6183 -0.8824 -0.4259
 2727THY    CA468167   4.095   6.333   5.522 -0.6329 -0.1149 -0.2393
 2727THY    HA468168   4.174   6.319   5.449 -0.8194  0.6443 -0.5931
 2727THY    CA568169   4.129   6.367   5.651  0.1340 -0.4681 -1.0716
 2727THY    CM168170   4.271   6.372   5.699  1.0256  0.2304  0.3471
 2727THY    HM168171   4.300   6.285   5.759 -2.1601 -0.2446  1.3857
 2727THY    HM268172   4.331   6.370   5.607  0.3034 -1.3978 -0.1274
 2727THY    HM368173   4.310   6.452   5.763  0.9643 -0.6946  1.5819
 2727THY    CA668174   4.035   6.387   5.756 -0.5948 -0.1683  0.3358
 2727THY    HA668175   4.067   6.392   5.860 -0.3679 -1.2574  0.3272
 2728THY      O68176   6.144   6.977   7.987 -0.0495  0.2014  0.4418
 2728THY     HO68177   6.111   6.885   7.995 -1.3435  0.6921  1.1898
 2728THY    CA168178   6.249   6.989   8.075  1.4491 -0.1590 -0.0694
 2728THY    CA268179   6.377   7.000   8.038 -0.2169 -0.0488 -0.3035
 2728THY    CP168180   6.409   7.027   7.891  0.1366  0.2651 -0.5644
 2728THY    HP168181   6.337   6.969   7.833 -1.5619 -0.6053  2.2053
 2728THY    CP268182   6.394   7.182   7.860 -0.0221  0.4248 -0.6043
 2728THY    HP268183   6.297   7.221   7.890 -0.2782 -1.7993  1.9157
 2728THY    HP368184   6.473   7.229   7.920  0.1198 -0.1982 -0.2948
 2728THY    HP468185   6.397   7.192   7.751  1.6026 -2.5665 -0.9576
 2728THY    CP368186   6.550   6.980   7.855  0.1341  0.7454 -0.4615
 2728THY    HP568187   6.637   7.017   7.910 -1.1687  3.1894  0.0689
 2728THY    HP668188   6.556   6.872   7.876  0.5020  0.4936 -1.7958
 2728THY    HP768189   6.572   7.002   7.750  0.6475  0.5882 -0.3908
 2728THY    CA368190   6.478   6.985   8.134  0.0267 -0.0490  0.3178
 2728THY    HA368191   6.585   6.980   8.113  0.2005 -1.2304  1.3439
 2728THY    CA468192   6.437   6.956   8.268 -0.5361  0.3000  0.0214
 2728THY    HA468193   6.508   6.967   8.349  1.7351 -2.4505 -1.4453
 2728THY    CA568194   6.298   6.961   8.303 -0.0716  0.1554 -0.1711
 2728THY    CM168195   6.248   6.952   8.443 -0.4736  0.2224  0.6695
 2728THY    HM168196   6.142   6.976   8.458 -0.4546  0.6259  0.1879
 2728THY    HM268197   6.268   6.847   8.468  1.0074  0.2528 -0.2609
 2728THY    HM368198   6.309   7.006   8.516 -1.1960  0.3199  1.2030
 2728THY    CA668199   6.206   6.986   8.206 -0.0552 -0.1384 -0.3876
 2728THY    HA668200   6.101   6.983   8.231 -0.0392 -1.7090 -0.3614
 2729THY      O68201   5.027   8.927   7.203  0.4809 -0.0823  0.0092
 2729THY     HO68202   4.996   8.957   7.116 -1.9169 -0.1674  0.7670
 2729THY    CA168203   4.907   8.928   7.267  0.0815  0.1267  0.1228
 2729THY    CA268204   4.889   8.857   7.389  0.6521 -1.1522 -1.0244
 2729THY    CP168205   5.000   8.754   7.435  0.2230  0.0483  0.3193
 2729THY    HP168206   5.064   8.721   7.352 -0.2145 -1.9252  0.7142
 2729THY    CP268207   5.093   8.821   7.534  0.0306 -0.4048 -0.1242
 2729THY    HP268208   5.048   8.818   7.634  0.7236  0.5962  0.2272
 2729THY    HP368209   5.192   8.775   7.539 -0.2732 -0.9503  1.5345
 2729THY    HP468210   5.107   8.925   7.502  0.8840  0.0333  1.5799
 2729THY    CP368211   4.931   8.633   7.491  0.4660  0.5538  0.0744
 2729THY    HP568212   5.005   8.553   7.497 -0.0990  0.0399  0.2293
 2729THY    HP668213   4.891   8.665   7.588  2.8671 -0.1704  1.3886
 2729THY    HP768214   4.852   8.593   7.427  1.8378 -1.7980 -0.2687
 2729THY    CA368215   4.761   8.863   7.456  0.7155 -0.4422 -0.0111
 2729THY    HA368216   4.724   8.809   7.542 -3.5039 -0.8213 -1.8311
 2729THY    CA468217   4.667   8.954   7.408 -0.0050  0.2951  0.2902
 2729THY    HA468218   4.576   8.967   7.466  0.3557  0.5081  0.8168
 2729THY    CA568219   4.689   9.029   7.286 -0.0511 -0.2502 -0.3355
 2729THY    CM168220   4.565   9.106   7.227 -0.0364  0.0796 -0.5628
 2729THY    HM168221   4.530   9.190   7.290 -1.7789  0.0162 -1.3711
 2729THY    HM268222   4.591   9.155   7.133 -1.5893 -0.8409 -1.5213
 2729THY    HM368223   4.489   9.031   7.203  0.5903 -0.9709  0.6081
 2729THY    CA668224   4.811   9.012   7.213  0.6137  0.7353  0.7710
 2729THY    HA668225   4.827   9.078   7.129  1.1734  0.7136  0.8569
 2730THY      O68226   5.723   4.012   5.695  0.1961 -0.1331  0.1847
 2730THY     HO68227   5.675   4.066   5.760 -2.0673 -1.5176 -0.2132
 2730THY    CA168228   5.753   4.096   5.595  0.5809  0.4736 -0.6042
 2730THY    CA268229   5.866   4.071   5.509  0.3305  0.4210 -0.8299
 2730THY    CP168230   5.943   3.941   5.505  0.6543  0.5149 -0.0436
 2730THY    HP168231   5.929   3.875   5.591 -0.4068  0.6374 -0.1095
 2730THY    CP268232   5.899   3.850   5.383 -0.1404  0.0978 -0.2500
 2730THY    HP268233   5.945   3.750   5.386 -0.7270 -0.1857 -0.5388
 2730THY    HP368234   5.791   3.835   5.369  0.0268 -1.9368  0.2981
 2730THY    HP468235   5.936   3.898   5.292 -1.5612  0.7163 -0.5285
 2730THY    CP368236   6.096   3.960   5.492  0.2342  0.4945  0.1190
 2730THY    HP568237   6.127   4.028   5.572 -1.6480  3.0998 -1.2398
 2730THY    HP668238   6.136   3.859   5.509 -1.6440  0.0704  2.8324
 2730THY    HP768239   6.125   3.991   5.391 -0.2338 -0.3627 -0.2875
 2730THY    CA368240   5.894   4.174   5.416 -0.7004  0.0190  0.1994
 2730THY    HA368241   5.976   4.158   5.346 -0.7650 -0.5155  0.2471
 2730THY    CA468242   5.828   4.299   5.411 -0.8629  0.4886 -0.1368
 2730THY    HA468243   5.867   4.377   5.347 -0.9923 -0.3414 -1.2577
 2730THY    CA568244   5.735   4.325   5.513 -0.1679  0.6838  0.1217
 2730THY    CM168245   5.668   4.465   5.505 -0.1589  0.6719  0.0698
 2730THY    HM168246   5.604   4.487   5.591  0.4596 -0.1340  0.7568
 2730THY    HM268247   5.754   4.531   5.492  1.3001 -0.9455  1.0647
 2730THY    HM368248   5.601   4.470   5.418  1.3499  4.4057 -1.0659
 2730THY    CA668249   5.700   4.224   5.602 -0.3111 -0.0082  0.0528
 2730THY    HA668250   5.623   4.235   5.678 -0.5188 -2.7814  0.3410
 2731THY      O68251   8.494   7.268   1.939 -0.5174  0.0382 -0.2205
 2731THY     HO68252   8.535   7.296   1.855  0.1438 -1.4179 -0.4218
 2731THY    CA168253   8.437   7.147   1.920 -0.2959 -0.0424 -0.3624
 2731THY    CA268254   8.365   7.081   2.021  0.5479  0.5432  0.4160
 2731THY    CP168255   8.347   7.139   2.159  0.1069 -0.0204  0.5639
 2731THY    HP168256   8.347   7.248   2.147 -2.6701  0.0091  0.1466
 2731THY    CP268257   8.205   7.116   2.220 -0.2598 -0.0338 -0.1796
 2731THY    HP268258   8.128   7.130   2.144 -0.6017 -0.3543  0.1065
 2731THY    HP368259   8.193   7.020   2.272  0.4114 -0.5008 -0.8671
 2731THY    HP468260   8.191   7.202   2.286 -1.3350  0.7323 -1.3666
 2731THY    CP368261   8.464   7.110   2.253 -0.4991 -0.4097  1.1183
 2731THY    HP568262   8.442   7.051   2.343  0.4149 -1.2487  0.8040
 2731THY    HP668263   8.539   7.051   2.201 -0.6356 -0.9054  1.4764
 2731THY    HP768264   8.520   7.201   2.280 -2.0777  0.7627  0.6031
 2731THY    CA368265   8.305   6.953   1.994  0.1733 -0.1064  0.7111
 2731THY    HA368266   8.240   6.899   2.062 -1.2715 -0.2002 -0.6888
 2731THY    CA468267   8.309   6.909   1.863  0.1716  0.4165  0.2817
 2731THY    HA468268   8.253   6.821   1.833  0.5522  0.2133  0.1535
 2731THY    CA568269   8.380   6.978   1.762  0.2926 -0.8965  0.3457
 2731THY    CM168270   8.380   6.934   1.615  0.1415 -0.1801  0.0204
 2731THY    HM168271   8.409   6.829   1.612  2.6583  0.4694 -0.2684
 2731THY    HM268272   8.276   6.949   1.582  0.1673  3.5821  1.1467
 2731THY    HM368273   8.441   6.991   1.544  0.0774  2.3643  1.8838
 2731THY    CA668274   8.446   7.096   1.792  0.2266 -0.5098 -0.0478
 2731THY    HA668275   8.494   7.142   1.706  2.3005  1.9527  2.2760
 2732THY      O68276   0.353   9.935   5.181 -0.4325 -0.1084  0.8980
 2732THY     HO68277   0.259   9.959   5.186 -0.5850 -0.5901  0.4243
 2732THY    CA168278   0.349   9.865   5.058 -0.1313  0.5700 -0.5505
 2732THY    CA268279   0.468   9.840   4.987  0.3656  0.0105  0.2142
 2732THY    CP168280   0.597   9.916   5.017 -0.2029 -0.2973  0.4705
 2732THY    HP168281   0.598   9.968   5.113 -2.4183 -0.4741  0.6413
 2732THY    CP268282   0.720   9.823   5.036  0.2912  0.3639  0.0378
 2732THY    HP268283   0.811   9.864   5.081  1.7699 -3.2198  0.6653
 2732THY    HP368284   0.695   9.728   5.085 -0.7158  0.1374 -0.8692
 2732THY    HP468285   0.746   9.794   4.933  0.9238 -0.1904  0.3479
 2732THY    CP368286   0.629  10.035   4.913  0.2055  0.0576  0.1542
 2732THY    HP568287   0.535  10.091   4.904 -0.7233 -1.3361  0.8643
 2732THY    HP668288   0.703  10.110   4.940 -0.5720  0.8912  0.0127
 2732THY    HP768289   0.662  10.005   4.813  0.5004  0.5751  0.0925
 2732THY    CA368290   0.463   9.762   4.874 -0.0933 -0.5847  0.0292
 2732THY    HA368291   0.547   9.755   4.807 -0.6091 -1.4946 -0.5472
 2732THY    CA468292   0.336   9.712   4.835 -0.1791 -0.2080 -0.2479
 2732THY    HA468293   0.316   9.673   4.735 -0.7015 -0.9941  0.1543
 2732THY    CA568294   0.221   9.741   4.906  0.3454 -0.2423 -0.6431
 2732THY    CM168295   0.089   9.671   4.866 -0.8702 -0.1376  0.2206
 2732THY    HM168296   0.003   9.729   4.831 -0.1734  0.4967 -0.4779
 2732THY    HM268297   0.116   9.611   4.779  2.3930 -1.0477  1.7218
 2732THY    HM368298   0.068   9.599   4.946  2.5976 -3.0437 -1.2234
 2732THY    CA668299   0.228   9.816   5.021 -0.4833  0.3505 -0.7636
 2732THY    HA668300   0.136   9.837   5.074 -0.7320  1.6894 -1.6731
 2733THY      O68301   6.933   1.247   0.431 -0.1044  0.2386  0.4299
 2733THY     HO68302   6.896   1.335   0.449 -3.6686 -1.1652  0.6753
 2733THY    CA168303   7.041   1.254   0.353  0.2432 -0.7411  0.0268
 2733THY    CA268304   7.143   1.160   0.357  0.7867 -0.1021  0.2839
 2733THY    CP168305   7.124   1.042   0.448 -0.6858 -0.6747 -0.4216
 2733THY    HP168306   7.028   1.057   0.500 -1.7354 -2.2672 -1.7728
 2733THY    CP268307   7.111   0.911   0.374  0.0593 -0.1252 -0.1105
 2733THY    HP268308   7.093   0.829   0.445 -0.6465  0.6365  0.6101
 2733THY    HP368309   7.039   0.922   0.292  1.4780  3.5757 -1.0304
 2733THY    HP468310   7.207   0.889   0.327 -0.3738 -1.3402 -0.4607
 2733THY    CP368311   7.235   1.030   0.551 -0.3854 -0.3071 -0.2258
 2733THY    HP568312   7.331   1.038   0.499  0.2382  3.1697  1.2091
 2733THY    HP668313   7.240   1.107   0.628 -2.8188 -0.9925  0.7057
 2733THY    HP768314   7.228   0.933   0.603 -0.4362 -0.0096  0.3288
 2733THY    CA368315   7.247   1.174   0.273  0.0888  0.5517  0.6392
 2733THY    HA368316   7.326   1.099   0.277 -0.1151 -0.0063 -2.6187
 2733THY    CA468317   7.253   1.274   0.175  0.3748  0.6723 -0.2462
 2733THY    HA468318   7.336   1.283   0.106 -1.0028  2.5501 -1.7906
 2733THY    CA568319   7.151   1.365   0.174  0.0218 -0.0332 -0.1478
 2733THY    CM168320   7.159   1.476   0.070  0.2796 -0.0701 -0.2388
 2733THY    HM168321   7.190   1.433  -0.026 -0.2028  1.0106 -0.8970
 2733THY    HM268322   7.062   1.525   0.054  0.4199  0.6859  1.1437
 2733THY    HM368323   7.237   1.547   0.101  1.2677 -1.8999  1.6728
 2733THY    CA668324   7.044   1.361   0.257 -0.6240 -0.5242  0.8499
 2733THY    HA668325   6.967   1.436   0.242  1.4505  1.3674 -1.0041
 2734THY      O68326   9.239   9.390   1.590  0.3630 -0.1976  0.5236
 2734THY     HO68327   9.282   9.333   1.524 -0.7403 -0.0849 -0.3191
 2734THY    CA168328   9.296   9.519   1.596 -0.0527 -0.0653  0.0921
 2734THY    CA268329   9.238   9.633   1.663  0.6002 -0.0449  0.4320
 2734THY    CP168330   9.111   9.613   1.744  0.2624  0.0698 -0.1259
 2734THY    HP168331   9.090   9.505   1.741  1.1240 -0.1371  0.7983
 2734THY    CP268332   9.136   9.657   1.887  0.3910  0.4106  0.0685
 2734THY    HP268333   9.107   9.757   1.919 -0.5688  0.4358 -0.7967
 2734THY    HP368334   9.085   9.589   1.957  1.5342  0.5576  1.0685
 2734THY    HP468335   9.243   9.640   1.903 -0.0435 -1.7457  1.0405
 2734THY    CP368336   8.992   9.694   1.688 -0.2064  0.4308  0.5551
 2734THY    HP568337   8.982   9.672   1.581  2.2292 -0.0136  0.3485
 2734THY    HP668338   8.900   9.668   1.742 -0.6484 -1.9391 -1.1552
 2734THY    HP768339   9.001   9.803   1.692  0.0087  0.5397 -1.6486
 2734THY    CA368340   9.295   9.760   1.653 -0.1064  0.1852 -0.1858
 2734THY    HA368341   9.249   9.850   1.693  0.3208  0.8726 -1.1885
 2734THY    CA468342   9.411   9.775   1.580  0.5789  0.0116  0.5955
 2734THY    HA468343   9.449   9.874   1.557  0.2894 -0.0910 -0.4014
 2734THY    CA568344   9.476   9.659   1.522  0.4414  0.5259  0.0862
 2734THY    CM168345   9.605   9.678   1.447 -0.1066  0.1002  0.2491
 2734THY    HM168346   9.628   9.601   1.372  1.3601 -0.0336  0.8011
 2734THY    HM268347   9.598   9.773   1.393 -0.8859  0.1635  0.4540
 2734THY    HM368348   9.690   9.675   1.516 -1.5020  0.0273  2.0340
 2734THY    CA668349   9.414   9.533   1.529  0.5125  0.3660  0.8419
 2734THY    HA668350   9.453   9.446   1.477 -1.3600  0.1320 -0.2823
 2735THY      O68351   3.644   3.992   2.171 -0.0349  0.0883  0.1711
 2735THY     HO68352   3.664   4.016   2.263 -2.5844  1.1303  0.5480
 2735THY    CA168353   3.509   3.975   2.170 -0.2213 -0.1121 -0.5160
 2735THY    CA268354   3.425   4.039   2.083  0.4075 -0.3204  0.4362
 2735THY    CP168355   3.481   4.146   1.988 -0.2818  0.1836 -0.6798
 2735THY    HP168356   3.588   4.126   1.978  0.0730 -0.4883  3.0357
 2735THY    CP268357   3.405   4.163   1.857  0.2808 -0.4088 -0.0402
 2735THY    HP268358   3.418   4.073   1.797 -1.5630 -1.1466  0.5780
 2735THY    HP368359   3.296   4.172   1.867  0.3116  2.2397 -1.3695
 2735THY    HP468360   3.441   4.247   1.797 -0.9465 -1.3471 -2.1842
 2735THY    CP368361   3.465   4.274   2.066 -0.3169  0.1965 -0.3938
 2735THY    HP568362   3.487   4.364   2.008 -0.5844  0.9614  0.6513
 2735THY    HP668363   3.360   4.295   2.092  0.0281  0.0094  1.2806
 2735THY    HP768364   3.525   4.281   2.157 -1.7440 -3.6119  1.0292
 2735THY    CA368365   3.287   4.023   2.088 -0.0975 -0.3334 -0.9006
 2735THY    HA368366   3.214   4.090   2.044 -0.4034  0.7877  1.2007
 2735THY    CA468367   3.234   3.933   2.187 -0.0889  0.9088  0.5757
 2735THY    HA468368   3.127   3.916   2.199 -0.1871 -0.0807 -1.3785
 2735THY    CA568369   3.324   3.862   2.273 -0.0221 -0.4435  0.2061
 2735THY    CM168370   3.278   3.776   2.379 -0.5547  0.8487  0.3836
 2735THY    HM168371   3.292   3.829   2.474 -1.0671  1.1985  0.2684
 2735THY    HM268372   3.173   3.747   2.370  0.0702 -0.9710 -2.2043
 2735THY    HM368373   3.348   3.694   2.400 -0.8388  1.2861  3.4590
 2735THY    CA668374   3.455   3.885   2.262 -0.5684  0.5548  0.4006
 2735THY    HA668375   3.521   3.853   2.342  1.3174  2.0799 -0.4496
 2736THY      O68376   3.926   8.059   4.258  0.6552 -0.5929  0.6086
 2736THY     HO68377   3.996   8.117   4.224 -0.5051 -0.9135 -2.6387
 2736THY    CA168378   3.924   8.060   4.388  0.0484  0.4416 -0.1672
 2736THY    CA268379   3.829   7.981   4.461 -0.8278 -0.0145 -0.2733
 2736THY    CP168380   3.723   7.891   4.388  0.0234  0.0785 -0.0221
 2736THY    HP168381   3.753   7.857   4.288 -0.5338 -0.9373  0.1400
 2736THY    CP268382   3.700   7.760   4.455 -0.7038  0.5814 -0.4367
 2736THY    HP268383   3.628   7.768   4.537 -1.3172 -2.2247 -0.6173
 2736THY    HP368384   3.642   7.691   4.393 -0.4691  0.1787 -0.2140
 2736THY    HP468385   3.787   7.705   4.493 -1.7838 -0.7582  0.1707
 2736THY    CP368386   3.594   7.957   4.351 -0.2332  0.0096  0.6641
 2736THY    HP568387   3.621   8.046   4.294 -1.0333  1.2995  2.2153
 2736THY    HP668388   3.531   7.892   4.289 -0.8634 -0.1287  1.4243
 2736THY    HP768389   3.546   7.989   4.444 -0.5232 -0.1839  0.5817
 2736THY    CA368390   3.854   7.974   4.603  0.4568 -0.0179  0.2877
 2736THY    HA368391   3.787   7.918   4.667  0.2790  0.0114  0.1305
 2736THY    CA468392   3.962   8.040   4.658  0.0465  0.5239 -0.1440
 2736THY    HA468393   3.983   8.039   4.764 -0.1923  0.8367 -0.0909
 2736THY    CA568394   4.052   8.122   4.584 -0.3609 -0.2867 -0.4218
 2736THY    CM168395   4.162   8.204   4.654  0.3992  0.1850  0.0474
 2736THY    HM168396   4.144   8.312   4.643 -0.1141 -0.0355 -1.4643
 2736THY    HM268397   4.186   8.191   4.761  1.4656  1.0700 -0.0600
 2736THY    HM368398   4.251   8.203   4.591  0.6653 -1.1693  0.4205
 2736THY    CA668399   4.028   8.139   4.452  0.2421  0.4235  0.2670
 2736THY    HA668400   4.100   8.202   4.402  0.8207 -0.0391  0.5059
 2737THY      O68401   2.246   7.274   7.321 -0.1911  0.0286  0.1323
 2737THY     HO68402   2.250   7.178   7.329  0.8943  0.1861  2.4939
 2737THY    CA168403   2.204   7.327   7.439  0.2883  0.0985 -0.3694
 2737THY    CA268404   2.153   7.462   7.446  0.5446 -0.5474 -1.0925
 2737THY    CP168405   2.151   7.559   7.329  0.7203  0.6735 -0.0019
 2737THY    HP168406   2.199   7.512   7.243  0.0865 -1.2479  0.6346
 2737THY    CP268407   2.005   7.585   7.293  0.1496  0.0369 -0.3595
 2737THY    HP268408   1.951   7.493   7.266 -0.1102  0.6393 -1.9724
 2737THY    HP368409   1.950   7.617   7.383 -2.3531 -0.5719 -1.5787
 2737THY    HP468410   2.002   7.655   7.210  0.6055  0.8245  0.2732
 2737THY    CP368411   2.206   7.702   7.362 -0.0183  0.5981 -0.0681
 2737THY    HP568412   2.205   7.764   7.272 -0.5631 -0.3103 -0.6938
 2737THY    HP668413   2.154   7.755   7.443  0.8473  0.9040  0.3053
 2737THY    HP768414   2.307   7.703   7.407 -0.3621  1.1975  0.7289
 2737THY    CA368415   2.101   7.502   7.572 -0.0487  0.2735 -0.4660
 2737THY    HA368416   2.058   7.600   7.588 -0.0441  0.2977 -0.5993
 2737THY    CA468417   2.113   7.407   7.686  0.0050  0.0658  0.1133
 2737THY    HA468418   2.075   7.439   7.783 -0.6059  0.9014 -0.3917
 2737THY    CA568419   2.172   7.284   7.675  0.3694  0.1253  0.0326
 2737THY    CM168420   2.173   7.196   7.795 -0.2626  0.3401 -0.1932
 2737THY    HM168421   2.072   7.183   7.836  0.0281  1.5330  0.9421
 2737THY    HM268422   2.228   7.102   7.780  0.3476  0.9445 -2.0194
 2737THY    HM368423   2.221   7.242   7.882  1.5651 -1.8295  0.0271
 2737THY    CA668424   2.207   7.239   7.549  0.5979  0.6598  0.3275
 2737THY    HA668425   2.237   7.135   7.538  0.3215  0.6213 -0.0897
 2738THY      O68426   5.026   7.689   8.339  0.0308 -0.6555 -0.2026
 2738THY     HO68427   4.970   7.660   8.413  1.7030  1.9695  2.3042
 2738THY    CA168428   4.957   7.657   8.224  0.2434  0.4423 -0.3209
 2738THY    CA268429   5.032   7.652   8.102 -0.5257 -0.7480 -0.1795
 2738THY    CP168430   5.172   7.713   8.093 -0.1594 -0.0240  0.5595
 2738THY    HP168431   5.193   7.743   8.196 -1.5245  0.5546  0.6800
 2738THY    CP268432   5.264   7.592   8.068  0.2550 -0.2355  0.7138
 2738THY    HP268433   5.249   7.526   8.154  2.5995 -0.3882  1.0481
 2738THY    HP368434   5.224   7.540   7.980 -1.0217  0.9455  0.5582
 2738THY    HP468435   5.367   7.627   8.057  0.1783 -0.3419 -0.5273
 2738THY    CP368436   5.195   7.827   7.999 -0.2049 -0.7408  0.1489
 2738THY    HP568437   5.121   7.907   8.008  0.3219 -0.2628  0.2688
 2738THY    HP668438   5.291   7.863   8.037  0.1497  0.4674 -1.7522
 2738THY    HP768439   5.206   7.802   7.892  0.7611  1.8993 -0.4472
 2738THY    CA368440   4.960   7.608   7.990 -1.0231 -0.2310  0.0704
 2738THY    HA368441   5.016   7.600   7.897 -0.6580 -0.7567  0.3270
 2738THY    CA468442   4.829   7.561   8.003 -0.0260 -0.4416 -0.1407
 2738THY    HA468443   4.785   7.524   7.911  1.6239  1.4267 -1.7845
 2738THY    CA568444   4.766   7.559   8.124  0.7793 -0.2060  0.2721
 2738THY    CM168445   4.622   7.505   8.140 -0.6717  0.3759  0.4983
 2738THY    HM168446   4.561   7.561   8.212  0.4916  0.3256  1.5585
 2738THY    HM268447   4.574   7.502   8.042 -1.6869 -2.0739  0.9899
 2738THY    HM368448   4.615   7.400   8.171 -2.6275  0.8230  1.7117
 2738THY    CA668449   4.832   7.598   8.239  0.0749  0.2529  0.4065
 2738THY    HA668450   4.780   7.604   8.334  1.1303 -1.7936  1.1758
 2739THY      O68451   2.825   1.429   9.824 -0.1749 -0.4217 -0.4548
 2739THY     HO68452   2.819   1.520   9.858  1.0085 -0.1529 -0.9183
 2739THY    CA168453   2.907   1.368   9.910 -0.2096  0.2371 -0.0762
 2739THY    CA268454   2.944   1.233   9.893  0.5577  0.0405  0.1778
 2739THY    CP168455   2.895   1.153   9.765  0.5456  0.5127 -0.1748
 2739THY    HP168456   2.885   1.221   9.680 -1.4698  1.9332  1.0984
 2739THY    CP268457   2.987   1.037   9.727  0.3656  0.1184 -0.5381
 2739THY    HP268458   2.958   1.005   9.626  2.8959 -0.8929 -1.0207
 2739THY    HP368459   3.090   1.071   9.718  0.9611 -1.8686 -2.1095
 2739THY    HP468460   2.990   0.951   9.795 -0.3694  0.4494 -0.0785
 2739THY    CP368461   2.753   1.094   9.795 -0.6078 -0.0368  0.3130
 2739THY    HP568462   2.725   1.011   9.729  1.9677 -1.6946  1.1225
 2739THY    HP668463   2.740   1.063   9.899 -0.3111 -1.3919 -0.0362
 2739THY    HP768464   2.684   1.174   9.766  0.3976  1.2317  1.2665
 2739THY    CA368465   3.024   1.165   9.992 -0.8590 -0.1988  0.6916
 2739THY    HA368466   3.063   1.063   9.993  2.0676  0.8229 -0.0990
 2739THY    CA468467   3.065   1.248  10.105 -0.2152 -0.0618 -0.4126
 2739THY    HA468468   3.123   1.202  10.185 -1.4904 -0.2256  0.4495
 2739THY    CA568469   3.032   1.383  10.121 -0.5600 -0.7743 -0.2792
 2739THY    CM168470   3.071   1.458  10.244 -0.0025  0.4100 -0.5709
 2739THY    HM168471   3.070   1.567  10.228 -2.0161  0.6438  0.7771
 2739THY    HM268472   2.999   1.432  10.322 -0.5232  1.0575 -0.8247
 2739THY    HM368473   3.175   1.436  10.270 -0.6650 -0.6674  1.3875
 2739THY    CA668474   2.951   1.442  10.019 -0.0762  0.6031 -0.9908
 2739THY    HA668475   2.916   1.543  10.040  3.3715  1.2334  2.7696
 2740THY      O68476   9.326   5.746   3.742  0.4998 -0.0301 -0.2167
 2740THY     HO68477   9.344   5.813   3.810 -1.1735  0.4950 -0.2385
 2740THY    CA168478   9.368   5.629   3.800  0.0106  1.1819 -0.8077
 2740THY    CA268479   9.296   5.511   3.796  0.1456 -0.1563  0.2608
 2740THY    CP168480   9.160   5.509   3.719  0.5881 -0.3812  0.6178
 2740THY    HP168481   9.110   5.605   3.733  0.1212 -0.3972 -0.7871
 2740THY    CP268482   9.181   5.502   3.566 -0.2031 -0.1241 -0.1560
 2740THY    HP268483   9.257   5.431   3.530  2.1534  2.4505 -0.6286
 2740THY    HP368484   9.086   5.475   3.519  0.2467  1.3137 -2.0021
 2740THY    HP468485   9.203   5.606   3.539  2.2343  0.3539  3.1443
 2740THY    CP368486   9.075   5.388   3.764 -0.1677 -1.1169  0.6456
 2740THY    HP568487   9.121   5.293   3.733  1.0733  0.0482 -1.2478
 2740THY    HP668488   9.074   5.392   3.873 -1.4344 -0.4912  0.6348
 2740THY    HP768489   8.971   5.402   3.731 -0.5065  0.7749  2.3442
 2740THY    CA368490   9.350   5.405   3.859  0.1080 -0.4529 -0.3295
 2740THY    HA368491   9.312   5.305   3.843  1.4618 -1.5100  2.4144
 2740THY    CA468492   9.472   5.413   3.936  0.2416  0.4194  0.2020
 2740THY    HA468493   9.510   5.328   3.992 -2.5823  0.8563  3.0447
 2740THY    CA568494   9.536   5.533   3.947 -0.1201  0.3891  0.6170
 2740THY    CM168495   9.657   5.555   4.038  0.6841 -0.5841 -0.2070
 2740THY    HM168496   9.635   5.617   4.126 -0.6133 -0.0202 -0.8984
 2740THY    HM268497   9.685   5.452   4.061 -1.4176 -1.7723 -2.5401
 2740THY    HM368498   9.729   5.609   3.975 -1.0867  1.4895 -0.5948
 2740THY    CA668499   9.486   5.639   3.867 -0.5781  0.1836  0.6608
 2740THY    HA668500   9.547   5.728   3.861 -0.9512  0.4503  0.7771
 2741THY      O68501   5.850   8.918   6.553  0.1929  0.3513  0.0116
 2741THY     HO68502   5.905   8.845   6.519 -0.7682 -0.6473  0.5483
 2741THY    CA168503   5.794   8.977   6.447  0.1344  0.2976 -0.2655
 2741THY    CA268504   5.726   9.103   6.445  0.6483 -0.1202 -1.4250
 2741THY    CP168505   5.737   9.190   6.566 -0.3021 -0.1213 -0.1469
 2741THY    HP168506   5.798   9.134   6.638 -0.2492 -1.2617 -1.0589
 2741THY    CP268507   5.785   9.330   6.536 -1.2487  0.0857  0.0238
 2741THY    HP268508   5.718   9.393   6.476 -0.3008  1.9389  0.8323
 2741THY    HP368509   5.802   9.386   6.628  0.8292  1.3481 -1.0531
 2741THY    HP468510   5.880   9.332   6.481 -2.5404  0.3679 -2.3764
 2741THY    CP368511   5.596   9.213   6.636  0.2817  0.7804 -0.1084
 2741THY    HP568512   5.584   9.116   6.684  0.9316  0.8216  0.1513
 2741THY    HP668513   5.617   9.276   6.723  1.5805 -0.4905  0.5286
 2741THY    HP768514   5.515   9.250   6.572  1.5359 -0.4276 -2.5173
 2741THY    CA368515   5.669   9.158   6.329 -0.9402  0.0813  0.6443
 2741THY    HA368516   5.617   9.254   6.324 -3.3448 -1.2004 -2.3226
 2741THY    CA468517   5.693   9.084   6.210  0.1749  0.1848  0.3027
 2741THY    HA468518   5.672   9.125   6.111  0.4794 -1.8034 -0.6405
 2741THY    CA568519   5.751   8.961   6.209  0.0275 -0.0687  0.3213
 2741THY    CM168520   5.757   8.886   6.077 -0.1914 -0.2797 -0.6950
 2741THY    HM168521   5.719   8.941   5.990  0.2292 -1.3583 -1.5794
 2741THY    HM268522   5.861   8.853   6.070  0.6131  1.6297  1.0740
 2741THY    HM368523   5.698   8.796   6.097 -1.0530  0.6729  1.3683
 2741THY    CA668524   5.798   8.904   6.331  0.2603  0.1452  0.7144
 2741THY    HA668525   5.839   8.804   6.336 -1.3948 -0.6753 -0.8200
 2742THY      O68526   5.022   9.425   2.355 -0.5197  0.5048 -0.3921
 2742THY     HO68527   5.106   9.401   2.397 -0.6076 -0.9567 -0.9762
 2742THY    CA168528   5.053   9.485   2.238  0.4833 -0.1247 -0.1188
 2742THY    CA268529   4.948   9.521   2.148 -0.2171  0.4897 -0.3179
 2742THY    CP168530   4.798   9.527   2.197  0.1743 -0.2077 -0.1648
 2742THY    HP168531   4.798   9.503   2.304 -0.2156  0.0520 -0.1051
 2742THY    CP268532   4.747   9.671   2.176 -0.5378  0.4319 -0.0543
 2742THY    HP268533   4.832   9.739   2.171 -1.5538  1.9008  1.6918
 2742THY    HP368534   4.722   9.669   2.069  0.3775  1.3144 -0.2980
 2742THY    HP468535   4.666   9.702   2.243 -0.3920  1.5402 -0.3753
 2742THY    CP368536   4.710   9.421   2.118 -0.2342 -0.3737 -0.1497
 2742THY    HP568537   4.733   9.431   2.011 -3.1764  0.2508 -0.7952
 2742THY    HP668538   4.735   9.324   2.162  2.9948  1.1341  1.7762
 2742THY    HP768539   4.605   9.446   2.138  0.1861  0.2492  1.4603
 2742THY    CA368540   4.982   9.567   2.024 -0.2962  0.0307 -0.3761
 2742THY    HA368541   4.907   9.591   1.949 -0.6695  1.9848  0.5608
 2742THY    CA468542   5.116   9.586   1.989 -0.2748  0.7461 -0.3480
 2742THY    HA468543   5.139   9.617   1.888 -0.0399  0.7271 -0.3011
 2742THY    CA568544   5.212   9.542   2.076 -0.5854 -0.6972 -0.0755
 2742THY    CM168545   5.351   9.528   2.035 -0.6269 -1.2458 -0.2049
 2742THY    HM168546   5.395   9.620   1.996 -0.9074 -1.4487 -1.0246
 2742THY    HM268547   5.421   9.485   2.108  1.2912  1.4919 -0.2841
 2742THY    HM368548   5.358   9.463   1.947  0.5082  1.0150 -1.8962
 2742THY    CA668549   5.182   9.493   2.203  0.4422  1.0805 -0.1766
 2742THY    HA668550   5.264   9.452   2.261  0.1722 -0.2441 -0.7050
 2743THY      O68551   1.972   4.534   4.980  0.4218  0.4346  0.0564
 2743THY     HO68552   2.052   4.481   4.964 -1.6496 -2.4084 -1.8197
 2743THY    CA168553   1.893   4.471   4.898  0.2052 -0.0748  0.2679
 2743THY    CA268554   1.759   4.513   4.876 -0.1979 -0.6984  0.4518
 2743THY    CP168555   1.703   4.636   4.951  0.2922  0.5864 -0.1592
 2743THY    HP168556   1.792   4.692   4.983  0.4068 -0.3312  1.2211
 2743THY    CP268557   1.610   4.725   4.874  0.3969  0.0019 -0.0002
 2743THY    HP268558   1.523   4.668   4.838 -0.4494  0.3799  1.3959
 2743THY    HP368559   1.577   4.806   4.940  1.0703  0.3103 -0.0329
 2743THY    HP468560   1.666   4.771   4.792 -0.1628  2.1990  0.7867
 2743THY    CP368561   1.633   4.590   5.081 -0.3306  0.1046 -0.3364
 2743THY    HP568562   1.538   4.538   5.064 -0.1935 -0.4951  0.6129
 2743THY    HP668563   1.707   4.531   5.138  0.3506 -1.0750 -2.3402
 2743THY    HP768564   1.603   4.670   5.150  0.7113  0.6076 -0.4517
 2743THY    CA368565   1.674   4.443   4.783  0.1673  0.0127  0.1883
 2743THY    HA368566   1.570   4.471   4.772  0.2662  0.2523 -0.1319
 2743THY    CA468567   1.733   4.332   4.717 -0.0507 -0.3968 -0.2825
 2743THY    HA468568   1.673   4.277   4.646 -1.1673 -0.7147  0.8638
 2743THY    CA568569   1.867   4.300   4.728 -0.2924 -0.0827  0.4223
 2743THY    CM168570   1.922   4.186   4.645  0.1032  0.3184 -0.2255
 2743THY    HM168571   1.997   4.124   4.696 -2.1421 -2.4751 -0.0592
 2743THY    HM268572   1.851   4.105   4.623  0.2817 -0.4989  1.9625
 2743THY    HM368573   1.957   4.217   4.546  0.2009  1.0905  0.0465
 2743THY    CA668574   1.948   4.364   4.822 -0.2182 -0.2717  0.3800
 2743THY    HA668575   2.049   4.329   4.842 -0.8621 -1.2866  2.0793
 2744THY      O68576   6.258   1.650   9.455  0.1452 -0.4136  0.5114
 2744THY     HO68577   6.282   1.730   9.506  0.5088  0.0427 -0.3526
 2744THY    CA168578   6.254   1.688   9.323  0.0132  0.4348 -0.6506
 2744THY    CA268579   6.171   1.624   9.232  0.3362  0.2428 -0.0612
 2744THY    CP168580   6.075   1.514   9.278 -0.8807 -0.2149 -0.3123
 2744THY    HP168581   6.047   1.535   9.382 -1.7578  2.8405 -1.0673
 2744THY    CP268582   5.948   1.510   9.199  0.1821 -0.0383  0.1141
 2744THY    HP268583   5.968   1.468   9.099 -1.3779 -0.9295  0.1555
 2744THY    HP368584   5.871   1.447   9.245  0.3957 -0.5278 -0.1963
 2744THY    HP468585   5.914   1.613   9.183  2.1231  0.8009  1.0523
 2744THY    CP368586   6.140   1.377   9.284 -0.1358 -0.6529  0.2316
 2744THY    HP568587   6.176   1.343   9.185  0.3967 -0.1191  0.2320
 2744THY    HP668588   6.224   1.374   9.354 -0.1379 -0.9879  0.2187
 2744THY    HP768589   6.063   1.306   9.314  0.5094 -0.7623  1.7109
 2744THY    CA368590   6.175   1.661   9.094  0.2291  0.1677 -0.2486
 2744THY    HA368591   6.102   1.625   9.023  0.7071 -1.5469  0.0847
 2744THY    CA468592   6.265   1.769   9.060  0.1228 -0.1813  1.7085
 2744THY    HA468593   6.263   1.812   8.961  1.1917 -0.5327  1.5146
 2744THY    CA568594   6.353   1.825   9.155 -0.0179 -0.4411  0.9902
 2744THY    CM168595   6.443   1.942   9.116  0.5547 -0.1616  0.1617
 2744THY    HM168596   6.373   2.019   9.079  1.1080  1.4287  2.2725
 2744THY    HM268597   6.493   1.988   9.201 -0.8485  2.1119 -0.1552
 2744THY    HM368598   6.511   1.901   9.040  0.0779 -3.0373  1.1546
 2744THY    CA668599   6.346   1.784   9.287  0.1820  0.4188  0.0159
 2744THY    HA668600   6.415   1.821   9.363 -0.1987 -0.0407  0.5944
 2745THY      O68601   8.021   9.866   0.724  0.0886  0.3143  0.2930
 2745THY     HO68602   7.989   9.949   0.686 -0.5766 -0.3824 -0.7335
 2745THY    CA168603   7.932   9.766   0.696 -0.2322 -0.6186  0.0771
 2745THY    CA268604   7.931   9.640   0.756  0.8828 -0.1935 -0.2253
 2745THY    CP168605   8.045   9.610   0.853  0.1507  0.2106 -0.4837
 2745THY    HP168606   8.129   9.679   0.839  1.3036 -1.5298 -2.7097
 2745THY    CP268607   7.984   9.613   0.992  0.7466  0.2939 -0.5288
 2745THY    HP268608   7.913   9.530   1.003  0.5012  0.4537 -0.9187
 2745THY    HP368609   8.059   9.616   1.072  1.7613 -1.9354 -1.2951
 2745THY    HP468610   7.921   9.701   1.004  1.3566  0.7983 -1.0207
 2745THY    CP368611   8.115   9.475   0.840 -0.6108  1.0484 -0.6944
 2745THY    HP568612   8.048   9.392   0.866  0.7105  0.4266  0.9164
 2745THY    HP668613   8.152   9.476   0.737  3.4735  0.7042  0.5465
 2745THY    HP768614   8.211   9.469   0.893 -1.0399  0.9762  0.0871
 2745THY    CA368615   7.838   9.538   0.729 -0.0028  0.1320 -0.6934
 2745THY    HA368616   7.840   9.440   0.775 -0.8741 -0.0467 -1.0226
 2745THY    CA468617   7.743   9.570   0.631 -0.2579  0.3190 -0.2122
 2745THY    HA468618   7.667   9.502   0.594  0.7918 -0.5631 -0.8048
 2745THY    CA568619   7.749   9.699   0.567  0.8580  0.1977  0.2924
 2745THY    CM168620   7.644   9.723   0.463 -0.0820 -0.1682  0.7028
 2745THY    HM168621   7.556   9.659   0.476  1.4298 -2.3383  0.7567
 2745THY    HM268622   7.604   9.825   0.466  0.7229  0.3889 -2.8785
 2745THY    HM368623   7.690   9.718   0.364 -0.5442  0.5578  0.4369
 2745THY    CA668624   7.840   9.799   0.597 -0.1745  0.1618 -0.5288
 2745THY    HA668625   7.843   9.893   0.541  1.6319  0.9000  0.7439
 2746THY      O68626   6.808   8.355   4.075 -0.2695  0.1192 -0.2699
 2746THY     HO68627   6.824   8.280   4.015 -0.3838  0.9926 -1.4291
 2746THY    CA168628   6.745   8.284   4.171  0.4032 -0.6050  0.3669
 2746THY    CA268629   6.704   8.340   4.294  0.0517  0.3244  0.0741
 2746THY    CP168630   6.757   8.478   4.342 -0.2218  0.4035  0.3282
 2746THY    HP168631   6.839   8.513   4.279  1.7175  1.9148  3.4705
 2746THY    CP268632   6.648   8.586   4.331 -0.3213 -0.4362  0.7133
 2746THY    HP268633   6.614   8.587   4.227  1.4077 -0.0726  0.1341
 2746THY    HP368634   6.557   8.566   4.390 -0.8212  2.8754  1.2458
 2746THY    HP468635   6.682   8.686   4.361 -0.3214 -0.2845  0.2119
 2746THY    CP368636   6.804   8.480   4.498  0.1193 -0.1049 -0.1462
 2746THY    HP568637   6.876   8.559   4.521  1.8494 -1.8747  0.8003
 2746THY    HP668638   6.729   8.508   4.572 -0.3995  4.5095 -2.1022
 2746THY    HP768639   6.856   8.389   4.529 -0.1798 -0.7918 -1.5677
 2746THY    CA368640   6.611   8.266   4.371 -0.6496  0.1780 -0.4427
 2746THY    HA368641   6.573   8.304   4.466  0.1657  0.4817 -0.2281
 2746THY    CA468642   6.563   8.142   4.326 -0.5584 -0.3818  0.5505
 2746THY    HA468643   6.482   8.101   4.385 -2.4240  1.7687 -0.3784
 2746THY    CA568644   6.605   8.086   4.207  0.6056 -0.7189 -0.0464
 2746THY    CM168645   6.541   7.966   4.154  0.3364 -0.5257  0.0161
 2746THY    HM168646   6.451   7.935   4.208 -0.1544  0.0590 -0.4394
 2746THY    HM268647   6.507   7.985   4.051 -2.0862 -1.1726  0.6301
 2746THY    HM368648   6.624   7.895   4.157  2.6544  2.0464  0.8439
 2746THY    CA668649   6.697   8.160   4.129  0.1353  0.4185  0.6195
 2746THY    HA668650   6.737   8.127   4.033  2.4218 -0.9769  1.9736
 2747THY      O68651   7.022   3.860   6.035 -0.9309 -0.7595  0.3874
 2747THY     HO68652   7.026   3.764   6.045  0.3037 -0.7585  0.1201
 2747THY    CA168653   7.114   3.893   5.939 -0.1128  0.2753  0.3034
 2747THY    CA268654   7.166   4.023   5.924 -0.0382  0.2624  1.1768
 2747THY    CP168655   7.106   4.139   5.996  0.5662  0.2457  0.1020
 2747THY    HP168656   7.005   4.112   6.029 -0.3322  2.7570 -0.3569
 2747THY    CP268657   7.195   4.172   6.114 -0.9355 -0.0369  0.9928
 2747THY    HP268658   7.162   4.262   6.166 -0.6026  0.1507  0.8815
 2747THY    HP368659   7.216   4.082   6.174  0.8930 -0.3119  0.0381
 2747THY    HP468660   7.290   4.208   6.073 -2.1735  1.8265 -0.3672
 2747THY    CP368661   7.092   4.272   5.925 -0.1216  0.7569  0.4531
 2747THY    HP568662   7.033   4.345   5.980  0.4004  0.8352  0.9222
 2747THY    HP668663   7.187   4.313   5.888  0.5431 -1.6637 -0.8130
 2747THY    HP768664   7.039   4.249   5.832  0.7253  1.9721 -0.3636
 2747THY    CA368665   7.273   4.042   5.825 -0.6043 -0.2504  0.5614
 2747THY    HA368666   7.324   4.137   5.816  3.4351 -2.2760 -0.1834
 2747THY    CA468667   7.326   3.929   5.759 -0.2521 -0.2292 -0.1831
 2747THY    HA468668   7.415   3.939   5.698  0.5878 -2.2754  0.6176
 2747THY    CA568669   7.278   3.802   5.785  0.7982  0.2013  0.5555
 2747THY    CM168670   7.342   3.691   5.715  0.2567  0.5776  0.3901
 2747THY    HM168671   7.363   3.608   5.784  0.0310  2.5122  2.9075
 2747THY    HM268672   7.272   3.645   5.644  0.2642 -0.6546  1.1419
 2747THY    HM368673   7.426   3.728   5.656  0.4896 -1.2978 -0.5280
 2747THY    CA668674   7.176   3.777   5.879  0.4361  0.7542 -0.6091
 2747THY    HA668675   7.147   3.673   5.891 -1.5609  1.3932  0.7569
 2748THY      O68676   1.070   2.517   6.004 -0.3348 -0.3339  0.1338
 2748THY     HO68677   1.033   2.448   5.946  0.8662  0.3261 -1.5205
 2748THY    CA168678   1.175   2.584   5.939  0.4328 -0.1035  0.2636
 2748THY    CA268679   1.257   2.685   5.994  0.5768  0.1385  0.2266
 2748THY    CP168680   1.238   2.733   6.136 -0.4934  0.3918  0.2624
 2748THY    HP168681   1.131   2.735   6.160 -0.6847  1.9968 -0.5701
 2748THY    CP268682   1.315   2.641   6.227  0.1178  0.8206  0.1086
 2748THY    HP268683   1.331   2.690   6.323  2.2827  0.1009  0.1679
 2748THY    HP368684   1.261   2.546   6.238  2.1243 -0.5044 -0.7921
 2748THY    HP468685   1.417   2.618   6.193  0.3608 -0.3745  1.5388
 2748THY    CP368686   1.290   2.877   6.163  0.0454  0.8873 -0.2471
 2748THY    HP568687   1.233   2.939   6.093  1.3041  2.8178  0.3768
 2748THY    HP668688   1.262   2.891   6.268  1.0289  1.2133 -0.0176
 2748THY    HP768689   1.399   2.883   6.160  0.1678 -0.9614 -0.4890
 2748THY    CA368690   1.361   2.733   5.908  0.7850  0.4749 -0.3937
 2748THY    HA368691   1.421   2.817   5.943  1.5085  0.3772 -1.3475
 2748THY    CA468692   1.393   2.681   5.787  0.0185 -0.2889  0.2949
 2748THY    HA468693   1.466   2.729   5.722 -1.4401  1.3484 -0.2203
 2748THY    CA568694   1.314   2.588   5.737  0.3451  0.1864  0.4680
 2748THY    CM168695   1.348   2.523   5.601 -0.0502 -0.0914  0.1892
 2748THY    HM168696   1.443   2.569   5.572  0.1298  0.7011  1.9525
 2748THY    HM268697   1.365   2.416   5.617 -2.1236 -0.1242  2.9676
 2748THY    HM368698   1.263   2.531   5.532  2.1451 -2.8750 -3.2232
 2748THY    CA668699   1.210   2.531   5.813  0.4969  0.0172  0.5874
 2748THY    HA668700   1.150   2.458   5.760  3.9376 -1.1785 -2.0108
 2749THY      O68701   2.961   7.948   8.476 -0.6351 -0.2552 -0.2136
 2749THY     HO68702   2.865   7.963   8.467 -0.4212  1.3882 -0.0967
 2749THY    CA168703   3.004   8.062   8.536 -0.2956  0.2442  0.0056
 2749THY    CA268704   3.142   8.080   8.577  0.5588  0.0626  0.2320
 2749THY    CP168705   3.245   7.971   8.573 -0.0460 -0.3765 -0.1672
 2749THY    HP168706   3.217   7.904   8.492  2.0334 -0.3062 -0.9986
 2749THY    CP268707   3.386   8.031   8.545 -0.6856 -0.5857 -0.1339
 2749THY    HP268708   3.427   8.105   8.615  1.2524  0.3115 -2.1022
 2749THY    HP368709   3.462   7.951   8.547  0.7836  0.7483  2.0699
 2749THY    HP468710   3.398   8.076   8.446  6.7307  1.4232  1.0573
 2749THY    CP368711   3.250   7.883   8.700 -1.1719 -0.2208 -1.0355
 2749THY    HP568712   3.148   7.847   8.721 -0.3185 -2.5528 -0.6768
 2749THY    HP668713   3.302   7.787   8.694  1.6693  1.1392  0.1518
 2749THY    HP768714   3.274   7.944   8.788 -2.2886 -1.4941  0.1971
 2749THY    CA368715   3.166   8.203   8.647 -0.1133  0.1905 -0.0438
 2749THY    HA368716   3.267   8.218   8.684  0.2807 -0.1267 -0.9740
 2749THY    CA468717   3.073   8.306   8.668  0.3210  0.6231 -0.1311
 2749THY    HA468718   3.084   8.393   8.732 -1.1721 -0.9035  2.3499
 2749THY    CA568719   2.941   8.287   8.613 -0.0444 -0.4305  0.0877
 2749THY    CM168720   2.833   8.389   8.628 -0.3593  0.3456  0.9659
 2749THY    HM168721   2.870   8.486   8.593 -0.4677 -0.9575 -3.3612
 2749THY    HM268722   2.752   8.354   8.562  0.7127 -1.6543  0.6197
 2749THY    HM368723   2.801   8.401   8.732  0.1941  1.4904  1.0221
 2749THY    CA668724   2.914   8.171   8.541  0.0410 -0.2015  0.9547
 2749THY    HA668725   2.823   8.162   8.484  0.1512  0.9763  0.5633
 2750THY      O68726   6.560   5.893   6.048  0.4137  0.0681  0.0767
 2750THY     HO68727   6.520   5.881   6.136 -0.9677 -1.5523 -0.7111
 2750THY    CA168728   6.562   6.028   6.008  0.5726  0.2181 -0.2533
 2750THY    CA268729   6.589   6.065   5.881 -0.3629  1.0754 -0.0677
 2750THY    CP168730   6.614   5.967   5.770 -0.0143  0.0709  0.2922
 2750THY    HP168731   6.606   5.862   5.801 -0.9807  0.6087  1.9954
 2750THY    CP268732   6.511   5.988   5.651  0.4296  0.2463 -0.1324
 2750THY    HP268733   6.535   5.912   5.575  0.2741  0.1461 -0.0803
 2750THY    HP368734   6.415   5.975   5.701 -0.1871  2.6011 -0.6086
 2750THY    HP468735   6.510   6.086   5.603  3.8550  0.6924  0.4825
 2750THY    CP368736   6.751   5.988   5.712 -0.3055 -0.2428  0.4731
 2750THY    HP568737   6.769   5.915   5.632 -1.6688 -0.2819  0.1675
 2750THY    HP668738   6.764   6.091   5.677 -0.0102 -1.2136 -2.5768
 2750THY    HP768739   6.834   5.973   5.781  0.1802 -1.2974 -0.3205
 2750THY    CA368740   6.599   6.199   5.853  0.1258 -0.0043  0.6955
 2750THY    HA368741   6.622   6.240   5.755 -1.6770  4.6370  1.9319
 2750THY    CA468742   6.593   6.288   5.956  0.0552  0.5656  0.1991
 2750THY    HA468743   6.606   6.393   5.936  1.3211  0.6484  1.3305
 2750THY    CA568744   6.563   6.255   6.085  0.2406 -0.1125 -0.2976
 2750THY    CM168745   6.554   6.359   6.185  0.5792  0.5400  0.0196
 2750THY    HM168746   6.647   6.417   6.179 -0.1682  2.0164  1.5408
 2750THY    HM268747   6.471   6.425   6.156 -0.8356 -1.7192 -1.3683
 2750THY    HM368748   6.544   6.313   6.284  0.2245 -1.4970 -0.9338
 2750THY    CA668749   6.549   6.122   6.110 -0.4684 -0.1533 -0.3014
 2750THY    HA668750   6.534   6.090   6.212  1.1236  1.6894  0.5799
 2751THY      O68751   7.685   8.638   5.318  0.0170  0.3568 -0.0908
 2751THY     HO68752   7.671   8.617   5.412 -0.2119 -0.9609 -0.3971
 2751THY    CA168753   7.803   8.701   5.311 -0.2549 -0.1095  0.4208
 2751THY    CA268754   7.843   8.774   5.195 -0.0977 -0.1530 -0.3687
 2751THY    CP168755   7.769   8.777   5.061 -0.6156  0.2945 -1.0023
 2751THY    HP168756   7.667   8.739   5.076 -1.0781  2.3535  1.8380
 2751THY    CP268757   7.761   8.924   5.007  0.6461  0.0834  0.2474
 2751THY    HP268758   7.738   8.980   5.099  0.8330 -0.5735  0.7032
 2751THY    HP368759   7.859   8.954   4.971  1.0546 -1.7252 -0.2562
 2751THY    HP468760   7.680   8.921   4.934  0.1118  1.6605  0.7258
 2751THY    CP368761   7.839   8.688   4.956  0.1739  0.0629 -0.9156
 2751THY    HP568762   7.941   8.726   4.940  0.6339 -1.4112 -1.6791
 2751THY    HP668763   7.834   8.583   4.987 -1.2827  0.8824  1.9638
 2751THY    HP768764   7.788   8.702   4.860 -0.6011  0.9478 -0.3857
 2751THY    CA368765   7.974   8.835   5.194  0.2928  0.2273  0.2478
 2751THY    HA368766   8.014   8.891   5.110  0.0204  0.9226  0.5726
 2751THY    CA468767   8.042   8.838   5.319  0.4762  0.4061  0.7667
 2751THY    HA468768   8.132   8.899   5.321  0.9084  0.0042 -2.1125
 2751THY    CA568769   7.991   8.778   5.428 -0.3499  0.0866 -0.1086
 2751THY    CM168770   8.070   8.776   5.553  0.6356 -0.7223  0.2663
 2751THY    HM168771   8.093   8.875   5.593  0.3601 -1.1124  1.4154
 2751THY    HM268772   8.024   8.708   5.625  0.4360 -1.1323 -0.2416
 2751THY    HM368773   8.169   8.736   5.526  1.4172  2.0371 -1.4643
 2751THY    CA668774   7.871   8.709   5.424  0.0795  0.1707  0.0777
 2751THY    HA668775   7.839   8.654   5.512 -0.2583  0.9296  0.4398
 2752THY      O68776   7.212   3.043   8.571  0.2164 -0.0390 -0.5925
 2752THY     HO68777   7.303   3.051   8.605 -0.6236 -0.0273  1.8344
 2752THY    CA168778   7.225   3.053   8.435 -0.2542 -0.0176 -0.0366
 2752THY    CA268779   7.118   3.035   8.350  0.7680  0.3403  0.2697
 2752THY    CP168780   6.973   3.000   8.407 -0.3279 -0.0190  0.3283
 2752THY    HP168781   6.989   2.968   8.510  1.7461 -1.9465 -0.5086
 2752THY    CP268782   6.893   3.130   8.407 -0.1069 -0.7414  0.8966
 2752THY    HP268783   6.786   3.120   8.427 -0.1822  0.1067  0.9896
 2752THY    HP368784   6.933   3.204   8.477  1.9273  0.6476 -1.5192
 2752THY    HP468785   6.894   3.165   8.302 -0.3860  1.6303  1.6123
 2752THY    CP368786   6.905   2.895   8.326 -0.8120 -0.8395 -0.3802
 2752THY    HP568787   6.841   2.850   8.403 -0.0538  0.4385  1.0362
 2752THY    HP668788   6.860   2.928   8.231  1.9540 -1.5268 -2.0556
 2752THY    HP768789   6.985   2.823   8.302 -0.5410 -0.8595  0.5380
 2752THY    CA368790   7.144   3.046   8.208 -0.3956  0.1282 -0.4073
 2752THY    HA368791   7.065   3.024   8.138 -1.2892 -0.0365  0.6337
 2752THY    CA468792   7.275   3.084   8.167  0.5858  0.7031  0.0647
 2752THY    HA468793   7.292   3.090   8.060 -0.5418  2.5625 -0.0417
 2752THY    CA568794   7.374   3.111   8.253  0.0804 -0.6627 -0.2744
 2752THY    CM168795   7.508   3.158   8.210  0.0385  0.3774 -0.7670
 2752THY    HM168796   7.522   3.140   8.102  1.3492 -0.6573 -0.4432
 2752THY    HM268797   7.529   3.262   8.237 -2.2099  0.6050  0.3094
 2752THY    HM368798   7.590   3.095   8.245 -0.0364 -0.2138 -1.6076
 2752THY    CA668799   7.348   3.094   8.390 -0.3458  0.3027  0.3627
 2752THY    HA668800   7.430   3.121   8.456  1.5248 -0.9615 -1.3511
 2753THY      O68801   6.540   0.132   4.916  0.3371  0.2137  0.0322
 2753THY     HO68802   6.481   0.078   4.861  1.7669 -0.1375 -1.2246
 2753THY    CA168803   6.664   0.080   4.893  1.1026 -0.1412  0.2627
 2753THY    CA268804   6.776   0.164   4.903 -0.3581  0.3767  0.0128
 2753THY    CP168805   6.765   0.318   4.925 -1.1438  0.2364 -0.5824
 2753THY    HP168806   6.658   0.340   4.929 -1.5422 -1.6404  1.6769
 2753THY    CP268807   6.834   0.362   5.058  0.4911  0.5827 -0.2034
 2753THY    HP268808   6.928   0.313   5.087  0.2317 -0.0152 -0.3767
 2753THY    HP368809   6.852   0.470   5.065  0.9044  0.6137 -1.4872
 2753THY    HP468810   6.770   0.325   5.139  0.2000  0.8085 -0.3293
 2753THY    CP368811   6.832   0.400   4.811 -0.4016  0.3501 -0.2369
 2753THY    HP568812   6.848   0.505   4.840 -2.0826  0.5713  0.0254
 2753THY    HP668813   6.930   0.363   4.778  1.2044  0.9698  3.3352
 2753THY    HP768814   6.755   0.407   4.734 -1.7738 -1.9077  0.8420
 2753THY    CA368815   6.903   0.107   4.893  0.0839 -0.3867 -0.0445
 2753THY    HA368816   6.990   0.172   4.899 -0.4164  0.3876 -0.9325
 2753THY    CA468817   6.908  -0.030   4.868 -0.1568  0.1094 -0.4811
 2753THY    HA468818   7.002  -0.078   4.843  0.4131  0.4284  0.9797
 2753THY    CA568819   6.796  -0.116   4.856 -0.0061  0.1467  0.7227
 2753THY    CM168820   6.805  -0.269   4.849  0.6248  0.5804  0.4996
 2753THY    HM168821   6.806  -0.308   4.747 -3.4916 -0.3020  0.6157
 2753THY    HM268822   6.890  -0.287   4.916  0.6056 -1.9832 -0.0784
 2753THY    HM368823   6.718  -0.312   4.900  0.9283  0.2177  0.7175
 2753THY    CA668824   6.675  -0.061   4.869  0.5990 -0.3643 -0.1772
 2753THY    HA668825   6.584  -0.120   4.872 -0.2204  0.7941 -1.0860
 2754THY      O68826   0.636   0.175   8.566  0.3210  0.2100  0.3561
 2754THY     HO68827   0.667   0.099   8.515  1.6386  0.3360  0.9351
 2754THY    CA168828   0.680   0.286   8.501 -1.1043  0.1196 -0.7481
 2754THY    CA268829   0.650   0.407   8.551  0.2707 -0.1092 -0.0030
 2754THY    CP168830   0.568   0.415   8.683  0.8108 -0.3662 -0.1868
 2754THY    HP168831   0.582   0.328   8.748 -0.7638  0.2722  1.0737
 2754THY    CP268832   0.602   0.532   8.776 -1.0393  0.7594 -0.0908
 2754THY    HP268833   0.710   0.546   8.789 -1.4751  3.8335  1.1954
 2754THY    HP368834   0.568   0.628   8.734 -2.1813  0.4843  0.1612
 2754THY    HP468835   0.555   0.531   8.875  0.1506 -0.3277  0.4831
 2754THY    CP368836   0.414   0.414   8.649  0.3508 -0.2561  0.5126
 2754THY    HP568837   0.351   0.379   8.732 -0.1708  1.0964  0.7178
 2754THY    HP668838   0.380   0.515   8.624  1.7744 -0.1656 -1.2875
 2754THY    HP768839   0.401   0.349   8.562  0.6957  3.7410 -2.8256
 2754THY    CA368840   0.679   0.525   8.488 -0.0285  0.3700  0.0083
 2754THY    HA368841   0.627   0.616   8.516 -0.5458  0.2700 -0.6144
 2754THY    CA468842   0.741   0.517   8.362 -0.5331  0.2659  0.1322
 2754THY    HA468843   0.731   0.606   8.301 -1.2379  1.1659  1.4969
 2754THY    CA568844   0.771   0.387   8.311  0.4207 -0.5157 -0.3016
 2754THY    CM168845   0.815   0.363   8.161  0.1209 -0.4623 -0.2601
 2754THY    HM168846   0.730   0.306   8.121  1.1141 -2.1739  0.0088
 2754THY    HM268847   0.849   0.450   8.104  0.2439 -0.4362 -0.1492
 2754THY    HM368848   0.890   0.285   8.146 -2.8483 -3.3180 -1.5168
 2754THY    CA668849   0.753   0.273   8.385 -0.0871 -0.3642  0.1117
 2754THY    HA668850   0.773   0.180   8.332 -0.6844 -0.1974 -0.4274
 2755THY      O68851   0.861   8.406   9.141 -0.3496 -0.2543 -0.1133
 2755THY     HO68852   0.801   8.421   9.066  0.8069  2.1347 -0.6471
 2755THY    CA168853   0.899   8.536   9.174  0.8129  0.3002 -0.9312
 2755THY    CA268854   1.029   8.575   9.185  0.4854  0.3534  0.1291
 2755THY    CP168855   1.145   8.479   9.155  0.8544 -0.5517 -0.3591
 2755THY    HP168856   1.114   8.421   9.067 -0.7711 -0.1867 -0.0424
 2755THY    CP268857   1.272   8.554   9.107 -0.0776  0.1076 -0.4760
 2755THY    HP268858   1.334   8.601   9.185 -1.3834  0.7169  0.2242
 2755THY    HP368859   1.344   8.480   9.070  0.7517  1.1135 -0.9172
 2755THY    HP468860   1.248   8.633   9.035 -2.1190 -0.2879 -0.3006
 2755THY    CP368861   1.180   8.372   9.256 -0.0162  0.1748 -0.2045
 2755THY    HP568862   1.267   8.317   9.220  0.5655  0.0857  1.2895
 2755THY    HP668863   1.193   8.419   9.354 -0.2848  2.6778 -1.2943
 2755THY    HP768864   1.096   8.301   9.258 -0.0853  0.2308 -0.7557
 2755THY    CA368865   1.057   8.708   9.219 -0.4521 -0.9358  0.5543
 2755THY    HA368866   1.159   8.741   9.233 -0.6067  0.2925 -1.0289
 2755THY    CA468867   0.947   8.795   9.248 -0.2309 -0.4346  0.5040
 2755THY    HA468868   0.968   8.896   9.281  1.0101 -1.2623  2.4302
 2755THY    CA568869   0.817   8.746   9.238  0.2077  0.1008 -0.3835
 2755THY    CM168870   0.703   8.842   9.262 -0.3057 -0.1943 -0.4643
 2755THY    HM168871   0.664   8.825   9.363  0.4724  1.7341  0.1968
 2755THY    HM268872   0.720   8.947   9.236 -1.1320 -0.6009 -2.9292
 2755THY    HM368873   0.625   8.817   9.188 -0.6182 -0.1905 -0.1384
 2755THY    CA668874   0.794   8.618   9.196  0.8134 -0.9787 -0.9307
 2755THY    HA668875   0.694   8.578   9.183  0.1192  0.7298 -1.1343
 2756THY      O68876   1.201   3.206   8.831  0.1341 -0.5887  0.9234
 2756THY     HO68877   1.184   3.256   8.913 -1.0713  1.7923 -0.6983
 2756THY    CA168878   1.318   3.141   8.852  0.2085  0.3954  0.2015
 2756THY    CA268879   1.377   3.043   8.762 -0.1610 -1.1126  0.1399
 2756THY    CP168880   1.297   3.013   8.642 -0.1511 -0.0558 -0.1588
 2756THY    HP168881   1.196   3.050   8.663 -0.1496  1.6383 -2.6683
 2756THY    CP268882   1.357   3.080   8.514 -0.2005 -0.0282  0.5194
 2756THY    HP268883   1.457   3.038   8.498 -0.4090 -0.8053  1.1780
 2756THY    HP368884   1.299   3.040   8.430 -1.5557 -0.9310  1.8367
 2756THY    HP468885   1.358   3.189   8.520  1.9983 -0.0238  0.8206
 2756THY    CP368886   1.290   2.855   8.629 -0.2773 -0.1456 -1.0790
 2756THY    HP568887   1.212   2.823   8.560 -1.2493 -0.6246  0.2040
 2756THY    HP668888   1.378   2.808   8.583 -0.9310 -1.7050 -0.8156
 2756THY    HP768889   1.291   2.812   8.730  1.5905 -0.0193 -0.9996
 2756THY    CA368890   1.497   2.973   8.798 -0.4611  0.5792 -0.1191
 2756THY    HA368891   1.536   2.890   8.740 -0.5195  0.6469 -0.2567
 2756THY    CA468892   1.571   3.017   8.909  0.4510  0.2875 -0.2588
 2756THY    HA468893   1.666   2.971   8.935  0.4111  1.3103  1.9030
 2756THY    CA568894   1.518   3.120   8.989 -0.3628  0.5499  0.4342
 2756THY    CM168895   1.590   3.162   9.113 -0.6792 -0.2568 -0.1395
 2756THY    HM168896   1.695   3.159   9.081 -0.7406 -1.3367 -0.2581
 2756THY    HM268897   1.556   3.263   9.138 -0.6544 -0.4762  0.7946
 2756THY    HM368898   1.572   3.094   9.197 -1.8690 -1.1567 -1.0860
 2756THY    CA668899   1.392   3.176   8.965  0.8172  0.0692 -0.3838
 2756THY    HA668900   1.350   3.243   9.040  0.8721 -1.3794  0.9852
 2757THY      O68901   5.422   0.366   9.216 -0.2405 -0.3707 -0.1568
 2757THY     HO68902   5.405   0.455   9.252 -0.7413  0.5888 -2.5812
 2757THY    CA168903   5.553   0.370   9.173 -0.1948 -0.0661  0.7800
 2757THY    CA268904   5.613   0.260   9.112  0.0324 -0.5161 -0.1516
 2757THY    CP168905   5.544   0.117   9.129 -0.1652 -0.7495 -0.0704
 2757THY    HP168906   5.452   0.106   9.188  0.2261  0.9152  0.9206
 2757THY    CP268907   5.507   0.076   8.994 -0.1078 -0.2369  0.0984
 2757THY    HP268908   5.444   0.158   8.958  0.0989  0.3450  1.0182
 2757THY    HP368909   5.597   0.061   8.934 -1.2714  0.5714 -1.9403
 2757THY    HP468910   5.460  -0.021   9.012  2.0718 -1.4006 -0.0964
 2757THY    CP368911   5.648   0.020   9.195  0.0272 -0.3592 -0.4413
 2757THY    HP568912   5.588  -0.054   9.248 -3.1284  0.4866 -2.5667
 2757THY    HP668913   5.706  -0.031   9.117 -1.3505 -2.9133  0.1120
 2757THY    HP768914   5.717   0.064   9.268 -2.4514  3.1073  0.0670
 2757THY    CA368915   5.741   0.274   9.056 -0.4285  0.6330  0.9959
 2757THY    HA368916   5.790   0.191   9.007  1.0976  1.8501  0.3929
 2757THY    CA468917   5.808   0.392   9.061  0.1425  0.0309  0.1699
 2757THY    HA468918   5.908   0.401   9.019 -0.0180  1.2657  0.0371
 2757THY    CA568919   5.741   0.507   9.108 -0.3239 -0.4822 -0.3364
 2757THY    CM168920   5.815   0.636   9.117 -0.5717  0.8545 -0.0261
 2757THY    HM168921   5.803   0.674   9.220  0.2069  2.0732 -0.3568
 2757THY    HM268922   5.922   0.616   9.101 -0.6669  1.0328 -0.9098
 2757THY    HM368923   5.795   0.711   9.040 -0.8814  1.1746  0.3581
 2757THY    CA668924   5.613   0.494   9.159  0.0921 -0.5850  0.0893
 2757THY    HA668925   5.568   0.582   9.204 -0.8338 -0.4574 -1.0504
 2758THY      O68926   0.841   3.410   8.933 -0.2301  0.3377 -0.2981
 2758THY     HO68927   0.816   3.349   8.861 -0.7007  1.6355 -1.2593
 2758THY    CA168928   0.735   3.494   8.945 -0.0514  0.7303  0.7381
 2758THY    CA268929   0.692   3.549   9.068 -1.5181 -0.0719  0.8509
 2758THY    CP168930   0.748   3.496   9.200  0.3338 -0.5144 -0.7583
 2758THY    HP168931   0.832   3.426   9.188  1.0877  0.0905  0.6694
 2758THY    CP268932   0.803   3.613   9.290 -0.2968  0.9897 -0.3107
 2758THY    HP268933   0.884   3.650   9.225  1.9080 -1.5151  0.8274
 2758THY    HP368934   0.720   3.680   9.315 -1.4496  1.0773 -3.8169
 2758THY    HP468935   0.845   3.586   9.387  0.2119  1.4886 -0.3828
 2758THY    CP368936   0.645   3.414   9.283  0.6501 -0.3455 -0.9695
 2758THY    HP568937   0.553   3.470   9.305  1.4970  0.8991 -0.5368
 2758THY    HP668938   0.606   3.330   9.223 -0.8618 -1.9984  2.0803
 2758THY    HP768939   0.684   3.368   9.375  1.8801  0.9522 -0.8131
 2758THY    CA368940   0.591   3.638   9.070  0.8597 -0.2678  0.4771
 2758THY    HA368941   0.541   3.680   9.157 -1.6445 -0.3143 -0.8251
 2758THY    CA468942   0.525   3.674   8.950  0.4272 -0.4072  0.0259
 2758THY    HA468943   0.439   3.741   8.948 -0.1768 -1.0984  1.5259
 2758THY    CA568944   0.563   3.621   8.830 -0.2691 -0.3994  0.5750
 2758THY    CM168945   0.496   3.661   8.705 -0.1297 -0.4291 -0.4453
 2758THY    HM168946   0.511   3.762   8.666 -0.4779 -0.3395 -0.3557
 2758THY    HM268947   0.521   3.600   8.617  2.0428  1.5452 -1.3064
 2758THY    HM368948   0.391   3.631   8.714  0.5474 -3.3539 -1.0317
 2758THY    CA668949   0.664   3.528   8.829 -0.1745 -0.2099 -0.1060
 2758THY    HA668950   0.693   3.494   8.729 -0.7764  2.1071 -1.1299
 2759THY      O68951   3.249   1.693   2.554  0.1928 -0.1885  0.3877
 2759THY     HO68952   3.323   1.757   2.555  0.5029 -0.5509  0.8121
 2759THY    CA168953   3.151   1.738   2.641  0.7677  0.0104  0.5164
 2759THY    CA268954   3.038   1.658   2.679 -0.1379  0.1681  0.0042
 2759THY    CP168955   3.015   1.521   2.619 -0.0049  0.5613 -0.5788
 2759THY    HP168956   3.069   1.514   2.524  0.9856 -2.6824  0.1002
 2759THY    CP268957   3.069   1.428   2.718 -0.1062  0.0416  0.1813
 2759THY    HP268958   3.046   1.321   2.705  0.4443 -0.2386  1.3692
 2759THY    HP368959   3.178   1.437   2.722 -0.1294 -0.0412  3.3646
 2759THY    HP468960   3.025   1.464   2.812 -0.6812 -2.2586  0.8541
 2759THY    CP368961   2.865   1.483   2.603 -0.1567  1.1268 -0.4882
 2759THY    HP568962   2.850   1.392   2.544  0.2116 -0.6510  1.9741
 2759THY    HP668963   2.826   1.456   2.702  1.4405  1.3498  0.2346
 2759THY    HP768964   2.810   1.564   2.555 -0.5081 -0.3113 -2.6265
 2759THY    CA368965   2.948   1.715   2.770 -0.9591 -0.4999  0.1015
 2759THY    HA368966   2.865   1.652   2.801 -1.8387  0.5178 -0.1221
 2759THY    CA468967   2.970   1.836   2.827 -0.5149 -0.3842  0.4762
 2759THY    HA468968   2.901   1.872   2.904 -0.3423 -1.7481  1.3086
 2759THY    CA568969   3.075   1.922   2.782  0.4642 -0.5931 -0.0440
 2759THY    CM168970   3.104   2.056   2.840 -0.0082  0.1914 -0.4296
 2759THY    HM168971   3.022   2.098   2.899 -0.6159  0.3159 -1.3458
 2759THY    HM268972   3.195   2.057   2.902  0.0523  0.4131 -0.5189
 2759THY    HM368973   3.118   2.132   2.762 -2.4709 -0.4440 -1.5649
 2759THY    CA668974   3.157   1.867   2.686 -0.6556 -0.7913 -0.2865
 2759THY    HA668975   3.238   1.936   2.662 -1.0554 -0.1584  0.1513
 2760THY      O68976   7.692   8.309   5.555 -0.9200 -0.3523 -0.1401
 2760THY     HO68977   7.676   8.342   5.465  0.8723  4.3949  0.9619
 2760THY    CA168978   7.831   8.316   5.575 -0.3806  0.3703  0.0718
 2760THY    CA268979   7.890   8.311   5.705 -0.8055  1.1590  1.2465
 2760THY    CP168980   7.812   8.325   5.835  0.3463  0.3081  0.1937
 2760THY    HP168981   7.708   8.350   5.815  0.9193  2.0307 -0.8189
 2760THY    CP268982   7.813   8.198   5.921 -0.4381  0.0561  0.3599
 2760THY    HP268983   7.914   8.156   5.931 -0.2778  0.3497  0.0252
 2760THY    HP368984   7.770   8.230   6.016  2.6106  2.8254  0.9877
 2760THY    HP468985   7.753   8.123   5.868  1.3727 -0.8418 -0.5379
 2760THY    CP368986   7.851   8.446   5.913 -0.3207 -0.3721 -0.0007
 2760THY    HP568987   7.859   8.535   5.849 -0.5684 -0.1482  0.2773
 2760THY    HP668988   7.770   8.463   5.985  0.0275 -0.3432  0.3854
 2760THY    HP768989   7.941   8.426   5.971 -1.9447 -0.7472  2.5445
 2760THY    CA368990   8.031   8.317   5.710 -0.3034 -0.1988 -0.4376
 2760THY    HA368991   8.085   8.312   5.804 -0.5945 -0.2013 -0.2707
 2760THY    CA468992   8.108   8.334   5.593  0.7481 -0.5732  0.4681
 2760THY    HA468993   8.217   8.334   5.594  0.8495 -1.1478 -2.4993
 2760THY    CA568994   8.050   8.335   5.471 -0.2777  0.1072 -0.1125
 2760THY    CM168995   8.125   8.352   5.345 -0.1670  1.1585  0.6184
 2760THY    HM168996   8.203   8.427   5.363 -0.6122  1.5618  0.8798
 2760THY    HM268997   8.173   8.260   5.310  0.1128  1.7971 -0.7410
 2760THY    HM368998   8.061   8.395   5.267 -0.0371  0.9648  0.4040
 2760THY    CA668999   7.915   8.331   5.463  0.1725 -0.0676 -0.5888
 2760THY    HA669000   7.874   8.342   5.363  1.4469 -2.0409 -1.3951
 2761THY      O69001   3.662   6.711   9.836 -0.0887  0.0181 -0.0758
 2761THY     HO69002   3.704   6.643   9.780  0.2715  1.2184 -1.3105
 2761THY    CA169003   3.671   6.827   9.766 -0.2452  0.5951 -0.3038
 2761THY    CA269004   3.612   6.948   9.806 -0.2195  0.5479 -0.4926
 2761THY    CP169005   3.541   6.949   9.935  0.2686  0.2377  0.1561
 2761THY    HP169006   3.534   6.852   9.986  2.0080 -0.3547 -0.6369
 2761THY    CP269007   3.608   7.036  10.031 -0.9898 -0.0870 -0.3002
 2761THY    HP269008   3.707   6.997  10.054 -0.8892 -0.3711 -1.1865
 2761THY    HP369009   3.613   7.140   9.996  0.8952  0.3343  1.0887
 2761THY    HP469010   3.557   7.046  10.128 -0.4351 -0.4518  0.0260
 2761THY    CP369011   3.389   6.997   9.923  0.0272  0.1411 -0.4396
 2761THY    HP569012   3.337   6.958   9.835 -1.1652 -0.8738  0.6829
 2761THY    HP669013   3.329   6.966  10.009  2.9172 -0.9352  1.3405
 2761THY    HP769014   3.390   7.107   9.914 -0.9237  0.1984  0.0113
 2761THY    CA369015   3.637   7.061   9.736 -0.4045 -0.2501 -0.4832
 2761THY    HA369016   3.601   7.157   9.773 -1.5071  0.1004 -2.2978
 2761THY    CA469017   3.717   7.057   9.616  0.5226 -0.3076  0.0365
 2761THY    HA469018   3.739   7.151   9.566 -1.3291  0.6661  0.9408
 2761THY    CA569019   3.785   6.941   9.585 -0.3422  0.7759  0.0159
 2761THY    CM169020   3.882   6.946   9.481  0.1930  0.4902 -0.0775
 2761THY    HM169021   3.930   7.044   9.466  1.2693  0.0891  0.6191
 2761THY    HM269022   3.951   6.861   9.488 -0.3240  0.0290 -0.4855
 2761THY    HM369023   3.827   6.939   9.386  0.8574  0.2912 -0.4606
 2761THY    CA669024   3.759   6.822   9.658  0.7497 -0.1517 -0.1948
 2761THY    HA669025   3.804   6.736   9.609 -2.5310 -1.9852 -0.2648
 2762THY      O69026   9.021   2.498   1.683  0.0840 -0.2797  0.7563
 2762THY     HO69027   9.001   2.471   1.592  3.0116  0.4185 -0.1847
 2762THY    CA169028   9.120   2.414   1.722 -0.3645 -0.5831 -0.3301
 2762THY    CA269029   9.119   2.353   1.851  0.3667 -0.2248  0.3831
 2762THY    CP169030   8.994   2.385   1.944 -0.2305 -0.3685  0.5249
 2762THY    HP169031   8.965   2.491   1.938  0.5295  0.1510  3.8925
 2762THY    CP269032   8.876   2.295   1.905 -0.5145 -1.1140 -0.6015
 2762THY    HP269033   8.889   2.189   1.930  0.2115 -0.7352  0.7635
 2762THY    HP369034   8.793   2.312   1.975 -0.1442 -1.2610 -0.1176
 2762THY    HP469035   8.835   2.315   1.805 -2.2636  1.2916  0.4826
 2762THY    CP369036   9.024   2.372   2.096 -0.5663 -0.5472 -1.2847
 2762THY    HP569037   9.055   2.269   2.117 -1.5449 -0.4271  1.0291
 2762THY    HP669038   9.100   2.441   2.133  0.3127 -1.6995 -0.8581
 2762THY    HP769039   8.927   2.374   2.148 -0.5304  0.4727 -1.2521
 2762THY    CA369040   9.216   2.260   1.889  0.2214 -0.1935  0.7320
 2762THY    HA369041   9.201   2.197   1.976  0.9769 -1.3387  0.0673
 2762THY    CA469042   9.327   2.239   1.800 -0.2694 -0.0102 -0.4179
 2762THY    HA469043   9.407   2.174   1.835 -1.1962  0.1562  2.1807
 2762THY    CA569044   9.332   2.301   1.675  0.0147  0.8979 -0.1037
 2762THY    CM169045   9.439   2.264   1.576 -0.1556  0.5628 -0.0907
 2762THY    HM169046   9.418   2.162   1.542  0.1504 -0.4072  2.4531
 2762THY    HM269047   9.467   2.341   1.503 -2.3675  0.6526 -0.9142
 2762THY    HM369048   9.528   2.254   1.640 -0.2138  2.3471  0.3225
 2762THY    CA669049   9.228   2.382   1.638  0.6941  0.3558  0.9301
 2762THY    HA669050   9.234   2.437   1.544 -0.7826  1.2071  1.2881
 2763THY      O69051   9.394   7.291   1.528  0.0741 -0.3409  0.6055
 2763THY     HO69052   9.324   7.241   1.573  0.6619 -0.2687  1.6427
 2763THY    CA169053   9.488   7.273   1.620 -0.2665 -0.3793 -0.1411
 2763THY    CA269054   9.592   7.370   1.644 -0.9967 -0.7810  0.1726
 2763THY    CP169055   9.586   7.500   1.563  0.0023  0.2386  0.1420
 2763THY    HP169056   9.523   7.490   1.474  0.8585 -2.0185 -0.2638
 2763THY    CP269057   9.521   7.614   1.649 -0.0623 -0.5157  0.5023
 2763THY    HP269058   9.506   7.706   1.591 -0.0681 -1.2396 -0.6766
 2763THY    HP369059   9.421   7.584   1.681  0.0054 -1.5860 -0.2849
 2763THY    HP469060   9.579   7.641   1.739  0.6833  1.1000 -0.4210
 2763THY    CP369061   9.728   7.558   1.522  0.0996  0.2276  0.1187
 2763THY    HP569062   9.797   7.586   1.602 -0.2059 -1.2054  0.9122
 2763THY    HP669063   9.775   7.481   1.460 -0.7197 -0.5668  0.4715
 2763THY    HP769064   9.709   7.648   1.463  1.7569 -0.5356 -1.7051
 2763THY    CA369065   9.686   7.350   1.738 -0.2323  0.3958 -0.1072
 2763THY    HA369066   9.750   7.435   1.761 -0.8092  0.5417  0.9986
 2763THY    CA469067   9.684   7.228   1.814 -0.3366  0.0905 -0.6795
 2763THY    HA469068   9.755   7.208   1.894 -0.0135 -0.0728 -1.0002
 2763THY    CA569069   9.594   7.126   1.782  0.6084 -0.7995  0.2426
 2763THY    CM169070   9.591   6.998   1.861 -0.1048  0.0220 -0.0543
 2763THY    HM169071   9.490   6.973   1.895 -0.8687  3.4343  0.6148
 2763THY    HM269072   9.621   6.917   1.794 -0.5194 -0.7485  0.6701
 2763THY    HM369073   9.649   7.010   1.954 -1.3628 -2.2020  1.0989
 2763THY    CA669074   9.500   7.145   1.678  0.7434 -0.2568 -0.9716
 2763THY    HA669075   9.421   7.073   1.660 -1.3266  1.9418 -1.2041
 2764THY      O69076   4.913   6.817   7.597 -0.2116 -0.2895 -0.4441
 2764THY     HO69077   4.838   6.829   7.657  0.4207  0.6028  0.1960
 2764THY    CA169078   5.028   6.808   7.669 -0.4099  0.1813 -0.8017
 2764THY    CA269079   5.099   6.913   7.729  0.7632 -0.0503  0.1576
 2764THY    CP169080   5.030   7.039   7.722 -0.1632 -1.2579 -0.7560
 2764THY    HP169081   4.922   7.036   7.741  0.1214  1.4179  2.0271
 2764THY    CP269082   5.083   7.147   7.825 -0.2986  0.2447  0.3773
 2764THY    HP269083   5.020   7.236   7.835  0.0888  0.3835  1.9644
 2764THY    HP369084   5.086   7.110   7.928  0.6320  1.6125  0.8728
 2764THY    HP469085   5.188   7.169   7.801 -0.4534  1.3424  0.6200
 2764THY    CP369086   5.047   7.105   7.587  0.1160 -0.8111  0.5610
 2764THY    HP569087   4.983   7.043   7.523 -0.3513 -1.2857  1.4684
 2764THY    HP669088   4.991   7.199   7.580 -0.9702 -1.4736 -0.0885
 2764THY    HP769089   5.148   7.138   7.562 -0.6986 -0.4322 -2.6848
 2764THY    CA369090   5.226   6.894   7.780 -0.2130  0.1476 -0.0741
 2764THY    HA369091   5.285   6.974   7.822 -1.7379  1.0144  0.4939
 2764THY    CA469092   5.277   6.763   7.791  0.3111  0.8196 -0.0347
 2764THY    HA469093   5.377   6.749   7.831  0.9774  2.2516 -1.1538
 2764THY    CA569094   5.207   6.652   7.738 -0.3860 -0.2147  0.1071
 2764THY    CM169095   5.251   6.514   7.737  0.5112 -0.0709  0.1188
 2764THY    HM169096   5.357   6.489   7.719  1.1491 -1.0146  4.1430
 2764THY    HM269097   5.250   6.483   7.842  3.3317  0.9722  0.5427
 2764THY    HM369098   5.187   6.440   7.688  1.2630 -1.9219  1.7849
 2764THY    CA669099   5.083   6.679   7.678 -0.0034  0.1756 -0.0194
 2764THY    HA669100   5.025   6.602   7.629 -1.1071  0.8298  0.2223
 2765THY      O69101   3.577   2.133   6.385  0.1703 -0.4087 -0.0358
 2765THY     HO69102   3.516   2.147   6.310  0.4251  0.8045 -0.0292
 2765THY    CA169103   3.705   2.115   6.343  0.0485  0.2165  1.5294
 2765THY    CA269104   3.815   2.100   6.424  0.0080  0.7027  0.6192
 2765THY    CP169105   3.807   2.090   6.579 -0.2416  0.1523  0.7910
 2765THY    HP169106   3.711   2.138   6.599 -1.6342 -1.2799 -1.9192
 2765THY    CP269107   3.798   1.937   6.624  0.3734 -1.0058  0.6148
 2765THY    HP269108   3.733   1.879   6.558  0.8642 -2.6624  1.5331
 2765THY    HP369109   3.899   1.896   6.607  1.0593  0.1835  1.6023
 2765THY    HP469110   3.770   1.928   6.729 -1.0242  1.2126  0.4857
 2765THY    CP369111   3.910   2.167   6.659 -0.0366  0.9018 -0.4650
 2765THY    HP569112   3.902   2.273   6.633  2.7645  1.3238  0.0717
 2765THY    HP669113   3.899   2.152   6.767  0.9207  1.4945 -0.2730
 2765THY    HP769114   4.008   2.125   6.632 -0.5350 -0.5656 -0.1221
 2765THY    CA369115   3.948   2.101   6.370 -0.6058 -0.6502  0.4339
 2765THY    HA369116   4.036   2.091   6.433 -0.8818 -2.1361  0.6300
 2765THY    CA469117   3.954   2.106   6.227  0.4989  0.0096  0.0473
 2765THY    HA469118   4.055   2.105   6.185  1.1397 -0.2958  1.5206
 2765THY    CA569119   3.843   2.117   6.148 -0.2211 -0.4077 -0.4249
 2765THY    CM169120   3.857   2.122   5.998  0.2736  0.4739 -0.3177
 2765THY    HM169121   3.960   2.145   5.970  1.1889 -1.5441  1.1705
 2765THY    HM269122   3.844   2.022   5.953  2.2626  0.5273 -1.0962
 2765THY    HM369123   3.792   2.194   5.947 -3.1072 -2.5666 -0.7805
 2765THY    CA669124   3.718   2.126   6.202  0.2401  0.3440 -0.1305
 2765THY    HA669125   3.628   2.133   6.142 -0.1273 -1.7067  0.1228
 2766THY      O69126   9.094   8.123   7.384 -0.2172 -0.3836 -0.3797
 2766THY     HO69127   9.096   8.073   7.300 -1.1770  0.4518 -0.9335
 2766THY    CA169128   8.966   8.121   7.415 -0.2521 -0.1915  0.7890
 2766THY    CA269129   8.907   8.229   7.478  0.0082 -0.2708 -0.8825
 2766THY    CP169130   8.992   8.343   7.537  0.2717 -0.0283 -0.0253
 2766THY    HP169131   9.095   8.309   7.522 -0.1710 -0.9595 -1.1513
 2766THY    CP269132   8.975   8.473   7.468  0.3750  0.0725  0.7123
 2766THY    HP269133   9.036   8.552   7.513  1.7629  0.4860 -1.7140
 2766THY    HP369134   9.003   8.457   7.363  0.6067  2.1236  0.4038
 2766THY    HP469135   8.868   8.493   7.480  0.7182  1.7570  1.2808
 2766THY    CP369136   8.965   8.368   7.686 -0.7735 -0.1597  0.1671
 2766THY    HP569137   8.960   8.270   7.736 -1.3710 -0.3767 -0.2977
 2766THY    HP669138   9.054   8.413   7.731 -0.5122  1.1082 -1.5309
 2766THY    HP769139   8.871   8.420   7.710  0.6439  2.4354  0.4522
 2766THY    CA369140   8.773   8.232   7.504  0.4117  0.5925 -0.1048
 2766THY    HA369141   8.719   8.313   7.551  0.5343  0.6288 -0.0251
 2766THY    CA469142   8.696   8.126   7.454  0.4547 -0.2912  0.6216
 2766THY    HA469143   8.587   8.129   7.459  0.4410 -0.9417  0.7937
 2766THY    CA569144   8.753   8.017   7.391 -0.5457 -0.3129  0.4730
 2766THY    CM169145   8.662   7.918   7.326 -0.2403  0.5663  0.2858
 2766THY    HM169146   8.720   7.853   7.260 -1.4258  0.5795 -0.8098
 2766THY    HM269147   8.599   7.858   7.392 -3.0388  1.0026 -1.8017
 2766THY    HM369148   8.589   7.970   7.262  0.1507 -0.4748 -1.0416
 2766THY    CA669149   8.894   8.018   7.367  0.5911 -0.5196  0.4262
 2766THY    HA669150   8.932   7.945   7.296 -0.8177 -0.7479 -0.1208
 2767THY      O69151   6.655   6.913   3.556 -0.2851  0.1746 -0.3920
 2767THY     HO69152   6.718   6.939   3.487  1.4839 -0.6140  0.8369
 2767THY    CA169153   6.712   6.799   3.603 -0.0946  0.2207 -0.0960
 2767THY    CA269154   6.685   6.759   3.738 -0.7138 -0.4588 -0.0732
 2767THY    CP169155   6.577   6.835   3.818 -0.3182  0.2371  0.0969
 2767THY    HP169156   6.502   6.870   3.746  0.2089  1.1382 -0.0329
 2767THY    CP269157   6.508   6.742   3.922  0.4922 -0.3287  1.2379
 2767THY    HP269158   6.578   6.719   4.004  3.4665  1.0335 -0.7545
 2767THY    HP369159   6.423   6.801   3.959  0.8660 -0.3717  2.1918
 2767THY    HP469160   6.459   6.657   3.874 -2.3790  1.5455  0.5538
 2767THY    CP369161   6.653   6.955   3.896  0.8990  0.1367 -0.2227
 2767THY    HP569162   6.721   7.007   3.827  1.9698 -0.2501  0.5202
 2767THY    HP669163   6.578   7.022   3.938  3.3782  2.1804  1.1930
 2767THY    HP769164   6.702   6.910   3.983 -1.5168  0.4390  1.4033
 2767THY    CA369165   6.745   6.646   3.787  0.7927 -0.2427  0.0666
 2767THY    HA369166   6.732   6.610   3.888  2.3651 -0.3129  0.2751
 2767THY    CA469167   6.845   6.582   3.705 -0.8589  0.0317  0.0127
 2767THY    HA469168   6.906   6.499   3.738 -0.1303 -0.0569 -1.5242
 2767THY    CA569169   6.877   6.621   3.576  0.4357  0.4365 -0.5367
 2767THY    CM169170   6.978   6.542   3.500  0.1708 -0.3999  0.1434
 2767THY    HM169171   6.965   6.435   3.521 -0.4466 -0.4442 -0.4244
 2767THY    HM269172   6.946   6.540   3.396 -1.2335 -0.4879  0.5515
 2767THY    HM369173   7.082   6.573   3.509  0.8386 -2.2070 -0.9077
 2767THY    CA669174   6.808   6.727   3.525  0.6223  0.1562  0.5204
 2767THY    HA669175   6.821   6.752   3.420  0.5990 -2.1377 -0.0827
 2768THY      O69176   8.529   7.080   7.584 -0.0850  0.4038  0.0925
 2768THY     HO69177   8.433   7.080   7.600  0.0792 -1.3960  1.3435
 2768THY    CA169178   8.571   7.185   7.652 -0.4361  0.9621 -0.3774
 2768THY    CA269179   8.711   7.215   7.669  0.7716 -0.4597  1.1695
 2768THY    CP169180   8.816   7.133   7.591  0.2413 -0.4044 -0.5603
 2768THY    HP169181   8.769   7.050   7.537 -0.3790  0.8618 -2.0442
 2768THY    CP269182   8.885   7.200   7.480 -0.2395  0.5096 -0.3057
 2768THY    HP269183   8.939   7.125   7.421  0.3651  0.1443  0.6806
 2768THY    HP369184   8.824   7.263   7.413 -1.0784 -0.7421 -0.7562
 2768THY    HP469185   8.964   7.265   7.520  2.3630 -2.1332 -0.8098
 2768THY    CP369186   8.919   7.073   7.688 -0.5543  0.0999  0.0430
 2768THY    HP569187   8.864   7.018   7.766  1.9302  1.8144  3.2654
 2768THY    HP669188   8.994   7.005   7.645 -1.7048 -0.7706 -0.6459
 2768THY    HP769189   8.966   7.148   7.752 -0.8137  0.1604  0.1627
 2768THY    CA369190   8.743   7.327   7.746 -0.4628 -0.1457 -0.1918
 2768THY    HA369191   8.847   7.354   7.759 -0.5069  0.2230 -0.5823
 2768THY    CA469192   8.647   7.406   7.804  0.5656  0.2614  0.1736
 2768THY    HA469193   8.680   7.483   7.873 -0.5586 -0.1333  1.1947
 2768THY    CA569194   8.507   7.383   7.776 -0.4034 -0.0901  0.6974
 2768THY    CM169195   8.404   7.487   7.821  0.6584 -0.2506 -0.3060
 2768THY    HM169196   8.356   7.542   7.739 -1.0336  0.4121  1.0803
 2768THY    HM269197   8.330   7.447   7.892  0.2186  2.7403  1.0482
 2768THY    HM369198   8.459   7.566   7.874  0.3235  0.5408 -1.1148
 2768THY    CA669199   8.474   7.266   7.696  0.8637 -0.3832 -0.2262
 2768THY    HA669200   8.372   7.254   7.663  0.4934  1.4315  0.1192
 2769THY      O69201   7.099   1.945   3.784  0.3382  0.0542 -0.4467
 2769THY     HO69202   7.152   1.865   3.793 -2.7415 -1.9323  3.8415
 2769THY    CA169203   7.186   2.049   3.759  0.4762 -0.6816 -0.4306
 2769THY    CA269204   7.167   2.187   3.804 -1.1600  0.5750 -0.1205
 2769THY    CP169205   7.042   2.232   3.875  0.2090 -0.6018 -0.0789
 2769THY    HP169206   7.002   2.148   3.932 -1.5358 -1.3989 -2.3613
 2769THY    CP269207   7.065   2.342   3.976 -0.2360 -0.0363  0.1618
 2769THY    HP269208   6.973   2.354   4.036  0.1060 -0.1312  0.7142
 2769THY    HP369209   7.147   2.299   4.035 -0.2400 -0.5447 -0.1974
 2769THY    HP469210   7.102   2.435   3.933  1.2546 -0.0152  1.4062
 2769THY    CP369211   6.945   2.287   3.774 -0.1540  0.3951 -0.3686
 2769THY    HP569212   6.991   2.371   3.721  0.1615  0.2159 -0.3865
 2769THY    HP669213   6.909   2.217   3.698 -0.0946 -0.0747  0.0295
 2769THY    HP769214   6.859   2.326   3.830 -0.0792 -0.7879  0.6250
 2769THY    CA369215   7.273   2.277   3.777 -0.3733  0.3631  0.1543
 2769THY    HA369216   7.270   2.380   3.811  0.6664  0.0641  1.1879
 2769THY    CA469217   7.389   2.235   3.705  0.6915  0.6705  0.3043
 2769THY    HA469218   7.476   2.296   3.683  0.4503  1.2314  0.8760
 2769THY    CA569219   7.397   2.106   3.656 -0.1500  0.0948  0.2043
 2769THY    CM169220   7.506   2.065   3.567 -1.0580  1.0538 -0.0096
 2769THY    HM169221   7.556   1.974   3.603 -1.4770  0.2792 -1.2994
 2769THY    HM269222   7.464   2.037   3.470  1.8389 -2.9719 -0.3813
 2769THY    HM369223   7.584   2.140   3.551 -2.1389  2.0723 -0.6195
 2769THY    CA669224   7.303   2.017   3.692  0.3705  0.2009 -0.8846
 2769THY    HA669225   7.310   1.913   3.662  0.5207  0.0767 -0.4223
 2770THY      O69226   6.414   8.266   9.644 -0.6875  0.0622 -0.0440
 2770THY     HO69227   6.383   8.292   9.732 -0.2291  0.5056 -0.0058
 2770THY    CA169228   6.332   8.164   9.596 -0.1886 -0.4149 -0.4258
 2770THY    CA269229   6.347   8.112   9.470  0.4934 -0.0208 -0.1779
 2770THY    CP169230   6.460   8.173   9.384 -0.8839 -0.0696 -0.3058
 2770THY    HP169231   6.466   8.281   9.403  0.6162 -0.5819  2.7050
 2770THY    CP269232   6.596   8.093   9.423 -0.0977  0.2746 -0.3048
 2770THY    HP269233   6.676   8.134   9.362 -0.5207  0.3815 -0.7921
 2770THY    HP369234   6.623   8.103   9.529  2.0843 -0.1647 -0.7682
 2770THY    HP469235   6.583   7.985   9.408  0.9396 -0.1587  1.5717
 2770THY    CP369236   6.441   8.152   9.235 -0.0930  0.1250  0.5332
 2770THY    HP569237   6.409   8.049   9.215 -1.5546  0.5401  0.6109
 2770THY    HP669238   6.365   8.222   9.200  1.2673  0.8435 -1.1834
 2770THY    HP769239   6.522   8.183   9.167  0.0795  2.6293  1.7687
 2770THY    CA369240   6.260   8.007   9.429 -0.0649 -0.7446 -0.5600
 2770THY    HA369241   6.266   7.975   9.325 -1.2542  2.4610 -1.7393
 2770THY    CA469242   6.169   7.951   9.519 -0.0990 -0.2646 -0.4441
 2770THY    HA469243   6.108   7.867   9.486  0.4868 -0.9169  0.1037
 2770THY    CA569244   6.148   8.010   9.644  0.3309 -0.2284  0.3680
 2770THY    CM169245   6.057   7.953   9.740 -0.1390  0.1111 -0.4414
 2770THY    HM169246   5.973   7.900   9.693 -1.3371 -0.5896  2.2901
 2770THY    HM269247   6.107   7.886   9.811 -1.1625  0.6597  0.8370
 2770THY    HM369248   6.012   8.035   9.797  0.0813  0.9783 -1.4759
 2770THY    CA669249   6.232   8.110   9.678 -0.2086 -0.8231 -0.5524
 2770THY    HA669250   6.224   8.148   9.780  2.0743 -0.4208 -0.4669
 2771THY      O69251   0.175   2.176   9.221  0.3059 -0.2290  0.3061
 2771THY     HO69252   0.222   2.173   9.136  0.5987 -1.1533  0.4815
 2771THY    CA169253   0.155   2.052   9.252  0.4595 -0.1976 -0.1995
 2771THY    CA269254   0.074   2.013   9.363 -0.1347 -1.1277  0.3449
 2771THY    CP169255   0.020   2.111   9.467 -0.5389 -0.1234  0.7667
 2771THY    HP169256   0.060   2.211   9.448  0.4069 -0.1341  2.5369
 2771THY    CP269257  -0.130   2.110   9.490 -0.0278  0.1483  0.4487
 2771THY    HP269258  -0.164   2.171   9.575  0.8889  1.1554  0.1065
 2771THY    HP369259  -0.175   2.152   9.399  1.1937  0.4641 -0.0203
 2771THY    HP469260  -0.158   2.004   9.495  0.1901  0.0342 -0.5853
 2771THY    CP369261   0.101   2.079   9.594 -0.3944 -0.2770 -0.0271
 2771THY    HP569262   0.078   1.982   9.640  3.2655 -1.1851  0.2210
 2771THY    HP669263   0.208   2.070   9.572 -0.5324 -0.1224 -0.7893
 2771THY    HP769264   0.099   2.157   9.670  1.0878 -1.2519  1.0647
 2771THY    CA369265   0.060   1.876   9.388 -0.3609 -0.2630  0.1118
 2771THY    HA369266  -0.003   1.837   9.468 -2.2042  2.1643 -0.0254
 2771THY    CA469267   0.114   1.781   9.305 -0.1607  0.3872  0.0819
 2771THY    HA469268   0.107   1.674   9.321  0.1946  0.6127  1.9243
 2771THY    CA569269   0.193   1.824   9.198 -0.2703  0.3154  0.0326
 2771THY    CM169270   0.269   1.728   9.106 -1.0052 -0.4324  0.2214
 2771THY    HM169271   0.267   1.626   9.147  1.6717  0.0792  1.8728
 2771THY    HM269272   0.241   1.740   9.001  1.1563  0.8448 -0.2651
 2771THY    HM369273   0.375   1.752   9.112 -1.0508  0.8038 -2.6854
 2771THY    CA669274   0.217   1.961   9.171 -0.2466 -0.4478 -0.4678
 2771THY    HA669275   0.288   1.988   9.094  1.3069  1.2770  1.4359
 2772THY      O69276   5.399   9.738   5.229  0.3129  0.3724  0.3319
 2772THY     HO69277   5.447   9.791   5.164  0.5969  0.3413  0.5160
 2772THY    CA169278   5.493   9.661   5.289  0.3680 -0.4163  0.0672
 2772THY    CA269279   5.496   9.518   5.304  0.1989  0.1559  0.3149
 2772THY    CP169280   5.387   9.439   5.248 -0.1558 -0.3542  0.0773
 2772THY    HP169281   5.295   9.499   5.236 -1.8781 -3.1729 -2.1171
 2772THY    CP269282   5.412   9.405   5.101 -0.0816 -0.3005 -0.4494
 2772THY    HP269283   5.463   9.481   5.041 -0.5295 -0.6728 -1.3216
 2772THY    HP369284   5.467   9.311   5.091  0.8747  0.3837 -1.8805
 2772THY    HP469285   5.323   9.387   5.040  0.9237 -1.4598 -1.6252
 2772THY    CP369286   5.349   9.311   5.326 -0.1069 -0.0695  0.2438
 2772THY    HP569287   5.444   9.258   5.344  2.3005  3.7554  0.0746
 2772THY    HP669288   5.288   9.332   5.414 -0.6610  1.1261 -0.3984
 2772THY    HP769289   5.290   9.241   5.267  0.1835 -0.9023  0.9215
 2772THY    CA369290   5.608   9.461   5.371 -0.5489  0.4499 -0.3802
 2772THY    HA369291   5.625   9.355   5.390  0.1163  0.5295 -0.5085
 2772THY    CA469292   5.706   9.544   5.429 -0.3664 -0.8866 -0.0646
 2772THY    HA469293   5.788   9.502   5.486 -0.2513 -0.6308 -0.0389
 2772THY    CA569294   5.695   9.683   5.422 -0.3131 -0.3002  0.2069
 2772THY    CM169295   5.796   9.781   5.480  0.4885 -0.8327 -0.8876
 2772THY    HM169296   5.763   9.885   5.486 -0.1261 -1.0983  1.1654
 2772THY    HM269297   5.821   9.743   5.580 -3.5404 -2.7065 -0.3711
 2772THY    HM369298   5.879   9.775   5.409  0.2640  1.1467 -1.3684
 2772THY    CA669299   5.592   9.739   5.344  0.5105 -0.3001  0.0525
 2772THY    HA669300   5.584   9.845   5.326  3.4329  0.3284  1.8019
 2773THY      O69301   3.624   6.829   8.048  0.2437 -0.2823 -0.2790
 2773THY     HO69302   3.549   6.851   8.107  1.0540 -1.5627  1.3233
 2773THY    CA169303   3.590   6.711   7.992  0.0610 -0.2662  0.1188
 2773THY    CA269304   3.691   6.627   7.932  0.2339  0.0124  0.5086
 2773THY    CP169305   3.841   6.661   7.936  0.4414  0.0355  0.7048
 2773THY    HP169306   3.850   6.770   7.934  3.1914 -0.1159  1.3037
 2773THY    CP269307   3.902   6.610   8.064  0.0231  0.3084 -0.4671
 2773THY    HP269308   4.001   6.654   8.083  0.7904 -2.1672  2.1394
 2773THY    HP369309   3.836   6.627   8.150  0.6326 -1.6683  0.4644
 2773THY    HP469310   3.922   6.502   8.059  1.8893  0.4562  1.8047
 2773THY    CP369311   3.922   6.618   7.810 -0.0421  0.4719 -0.3062
 2773THY    HP569312   3.927   6.510   7.794 -0.1854  0.4029  0.0888
 2773THY    HP669313   3.891   6.673   7.721 -1.0289 -0.6328 -0.6688
 2773THY    HP769314   4.028   6.641   7.826 -0.0596  0.6114 -0.3973
 2773THY    CA369315   3.651   6.500   7.884 -0.3902  0.1397 -0.4794
 2773THY    HA369316   3.721   6.421   7.858  0.4419  0.7293 -0.0957
 2773THY    CA469317   3.515   6.466   7.883 -0.9898  0.0210  0.0198
 2773THY    HA469318   3.481   6.368   7.851 -0.4957 -0.4833  0.9840
 2773THY    CA569319   3.417   6.547   7.944 -0.2968 -0.9341 -0.1452
 2773THY    CM169320   3.276   6.491   7.959  0.3586  0.6125 -0.1374
 2773THY    HM169321   3.259   6.417   7.880  1.7543  0.0284  0.0648
 2773THY    HM269322   3.270   6.437   8.055 -0.8210 -1.0099 -1.0784
 2773THY    HM369323   3.205   6.574   7.956 -2.2765 -1.5100 -3.1551
 2773THY    CA669324   3.460   6.667   7.999  0.2705  0.2122  0.5545
 2773THY    HA669325   3.391   6.729   8.056  0.0948 -0.7223  1.3968
 2774THY      O69326   0.434   4.797   7.099  0.0626 -0.2031 -0.1626
 2774THY     HO69327   0.468   4.873   7.049 -0.9804  1.3691  1.3791
 2774THY    CA169328   0.546   4.735   7.138  0.4863 -0.3495 -0.5311
 2774THY    CA269329   0.535   4.623   7.223  0.6680 -0.0858  0.6216
 2774THY    CP169330   0.401   4.585   7.288  0.4092 -0.0885 -0.1289
 2774THY    HP169331   0.338   4.674   7.303 -2.3334 -1.5507 -2.2131
 2774THY    CP269332   0.315   4.497   7.194  0.0777  0.4174 -0.3304
 2774THY    HP269333   0.215   4.488   7.237  0.4849  2.2130  1.1193
 2774THY    HP369334   0.287   4.547   7.100  0.0815  0.9647 -0.0432
 2774THY    HP469335   0.357   4.397   7.174 -0.7359 -0.6412  2.6731
 2774THY    CP369336   0.416   4.525   7.423 -0.2097  0.0020 -0.2987
 2774THY    HP569337   0.312   4.522   7.455 -1.8155  1.7509 -4.5963
 2774THY    HP669338   0.457   4.423   7.415  1.6741  0.5104  1.7246
 2774THY    HP769339   0.476   4.594   7.484 -0.1791 -0.3159  0.0383
 2774THY    CA369340   0.657   4.570   7.281 -0.6180 -0.1989 -0.2965
 2774THY    HA369341   0.645   4.490   7.353 -2.1555 -2.3832 -2.7652
 2774THY    CA469342   0.783   4.621   7.245 -0.4253  0.2311  0.2128
 2774THY    HA469343   0.869   4.578   7.295  2.4953  1.8054 -3.0435
 2774THY    CA569344   0.786   4.728   7.156  0.4337  0.0888 -0.2194
 2774THY    CM169345   0.917   4.787   7.111 -0.1735  0.6349  0.2801
 2774THY    HM169346   0.992   4.778   7.191 -0.7907 -0.1777  0.7823
 2774THY    HM269347   0.968   4.720   7.042  2.0969 -1.4731  3.6702
 2774THY    HM369348   0.927   4.891   7.077  1.2646 -0.1817 -2.0431
 2774THY    CA669349   0.670   4.787   7.103 -0.7914  0.5448  0.5759
 2774THY    HA669350   0.670   4.873   7.037 -0.2391 -0.6556 -1.0318
 2775THY      O69351   7.568   5.585   6.158 -0.0372  0.0053 -0.0527
 2775THY     HO69352   7.559   5.675   6.193 -0.8603  1.1263 -2.8638
 2775THY    CA169353   7.629   5.503   6.241  0.1302  0.4786 -0.7608
 2775THY    CA269354   7.652   5.369   6.208 -0.4064  0.3237 -0.2024
 2775THY    CP169355   7.615   5.318   6.070  0.3381  0.3161 -0.3651
 2775THY    HP169356   7.530   5.374   6.029  0.5389 -0.2602 -1.6247
 2775THY    CP269357   7.737   5.325   5.979 -0.4303  0.1628  0.3856
 2775THY    HP269358   7.821   5.287   6.039 -1.6512 -3.4037  0.0497
 2775THY    HP369359   7.731   5.279   5.880 -2.7204 -0.3320  0.7137
 2775THY    HP469360   7.762   5.430   5.961  1.7468 -0.5710 -1.3862
 2775THY    CP369361   7.558   5.171   6.065 -0.0246 -0.0064 -0.3003
 2775THY    HP569362   7.497   5.145   5.977 -1.5516 -0.0168  0.7305
 2775THY    HP669363   7.636   5.094   6.069 -0.1364 -0.1425 -0.7038
 2775THY    HP769364   7.480   5.167   6.142 -0.9567  0.1158 -1.2081
 2775THY    CA369365   7.715   5.285   6.301  0.2709  0.7565 -0.7628
 2775THY    HA369366   7.734   5.179   6.289  1.3189  0.7536  0.6645
 2775THY    CA469367   7.746   5.339   6.431 -0.3222  0.1378 -0.0151
 2775THY    HA469368   7.804   5.295   6.512  0.5166  2.1774  0.5557
 2775THY    CA569369   7.729   5.470   6.460  0.1945  0.0074  0.6072
 2775THY    CM169370   7.787   5.526   6.590  0.4900 -0.9281  0.0404
 2775THY    HM169371   7.778   5.635   6.584 -0.1039 -1.0456 -2.4018
 2775THY    HM269372   7.749   5.472   6.677 -0.0311 -1.0551 -0.2596
 2775THY    HM369373   7.896   5.513   6.583  0.3249 -1.8916 -1.1694
 2775THY    CA669374   7.671   5.556   6.366 -0.0346 -0.1242  0.3154
 2775THY    HA669375   7.645   5.656   6.400 -0.5823 -1.0995  2.9578
 2776THY      O69376   1.274   5.708   1.161  0.0669 -0.2309 -0.2115
 2776THY     HO69377   1.199   5.708   1.098 -0.2483  3.7866 -0.1054
 2776THY    CA169378   1.202   5.693   1.277  0.0815 -0.2766 -0.1592
 2776THY    CA269379   1.251   5.745   1.397  0.2939 -0.1217 -0.2150
 2776THY    CP169380   1.401   5.791   1.398 -0.3517 -0.2047 -0.5715
 2776THY    HP169381   1.458   5.752   1.313  1.4147  0.4977  0.2395
 2776THY    CP269382   1.415   5.944   1.399  0.5866 -0.1199  0.4262
 2776THY    HP269383   1.521   5.969   1.389  0.6931 -0.8368 -0.3213
 2776THY    HP369384   1.357   5.989   1.317  0.6852 -0.8070 -0.0271
 2776THY    HP469385   1.368   5.977   1.492 -0.3353  0.1631 -0.1155
 2776THY    CP369386   1.465   5.731   1.523  0.5417  0.6889  1.1376
 2776THY    HP569387   1.574   5.740   1.529  0.5735  1.9257 -0.4904
 2776THY    HP669388   1.427   5.789   1.608 -0.8932  1.4994 -0.0175
 2776THY    HP769389   1.426   5.629   1.535  1.9577  0.0202  0.3616
 2776THY    CA369390   1.172   5.739   1.517 -0.6949  0.2253  0.7194
 2776THY    HA369391   1.217   5.762   1.614 -0.6156  1.4402  0.4187
 2776THY    CA469392   1.045   5.678   1.507  0.0690  0.3874  0.2649
 2776THY    HA469393   0.976   5.670   1.590 -0.4142  1.9891  0.0608
 2776THY    CA569394   0.991   5.630   1.385 -0.1546  0.2454 -0.7255
 2776THY    CM169395   0.859   5.558   1.393 -0.4826  0.2697  0.5289
 2776THY    HM169396   0.789   5.611   1.328  0.5719  1.4027  0.2905
 2776THY    HM269397   0.877   5.454   1.361 -1.4680 -0.2844  1.6783
 2776THY    HM369398   0.815   5.546   1.493 -0.7695  1.8739  0.6073
 2776THY    CA669399   1.074   5.644   1.272  0.4993 -0.1492  0.2930
 2776THY    HA669400   1.043   5.608   1.174  2.4135  0.9344 -0.7752
 2777THY      O69401   1.925   3.402   9.072 -0.0372  0.1546 -0.1127
 2777THY     HO69402   1.905   3.477   9.013 -0.8439 -0.5960 -0.8025
 2777THY    CA169403   1.823   3.414   9.154 -0.7520  0.5352 -0.2999
 2777THY    CA269404   1.837   3.368   9.285 -0.6718  0.1383 -0.0738
 2777THY    CP169405   1.954   3.274   9.322 -0.5409 -0.1002 -0.3203
 2777THY    HP169406   2.044   3.311   9.272 -0.1020 -1.6617 -0.7114
 2777THY    CP269407   1.983   3.280   9.470 -0.0821 -0.6066  0.2439
 2777THY    HP269408   1.963   3.378   9.515  2.4599 -0.0293  0.2560
 2777THY    HP369409   1.932   3.197   9.521 -2.8025  0.4117 -0.6716
 2777THY    HP469410   2.090   3.263   9.486 -0.2287 -1.6356  0.2272
 2777THY    CP369411   1.935   3.127   9.271 -0.2120 -0.7797 -0.2748
 2777THY    HP569412   1.851   3.097   9.335 -0.4141  1.7156  0.7759
 2777THY    HP669413   1.902   3.124   9.167  0.2910  1.5937 -0.5748
 2777THY    HP769414   2.024   3.067   9.291  1.7819  1.6892 -1.1537
 2777THY    CA369415   1.725   3.374   9.371  0.0321  1.0330  0.2226
 2777THY    HA369416   1.724   3.324   9.467  1.4832 -1.2620 -0.8479
 2777THY    CA469417   1.610   3.449   9.337 -0.5753  0.2557 -0.2899
 2777THY    HA469418   1.532   3.457   9.412  0.2924  1.5309  0.5073
 2777THY    CA569419   1.603   3.512   9.212 -0.3191  0.6198 -0.7373
 2777THY    CM169420   1.478   3.586   9.172 -0.1377 -0.3056  0.1605
 2777THY    HM169421   1.398   3.520   9.136 -0.4628  1.4128 -2.5980
 2777THY    HM269422   1.443   3.644   9.258 -1.2325  0.9542 -1.0801
 2777THY    HM369423   1.500   3.666   9.100  0.7579  3.1533  3.8459
 2777THY    CA669424   1.711   3.487   9.116 -0.5280 -0.3995 -0.4554
 2777THY    HA669425   1.706   3.520   9.013  1.4995  0.0526 -0.4417
 2778THY      O69426   2.705   0.437   2.220  0.2807 -0.1640  0.6766
 2778THY     HO69427   2.608   0.433   2.220  0.2471  0.2862 -0.2686
 2778THY    CA169428   2.731   0.366   2.109 -0.2464  0.2224  0.1614
 2778THY    CA269429   2.854   0.303   2.081 -0.6880 -0.4436  0.3511
 2778THY    CP169430   2.975   0.313   2.185  0.4112  0.4822  0.1280
 2778THY    HP169431   2.932   0.333   2.284  2.3334  0.8932  0.9353
 2778THY    CP269432   3.061   0.180   2.190  0.5854 -0.1756  0.6800
 2778THY    HP269433   2.994   0.096   2.211  0.5112 -0.1524  0.5347
 2778THY    HP369434   3.106   0.171   2.090  0.8731  1.8650  0.5875
 2778THY    HP469435   3.143   0.183   2.263 -0.1784 -1.4707  1.6240
 2778THY    CP369436   3.066   0.431   2.145  0.0552  0.3931  0.9373
 2778THY    HP569437   3.130   0.398   2.062  2.1583  2.0470  1.8018
 2778THY    HP669438   3.029   0.533   2.128  1.0653  0.4661 -1.1346
 2778THY    HP769439   3.134   0.441   2.231  2.0281 -0.9075 -0.3929
 2778THY    CA369440   2.876   0.244   1.949  0.0495  0.2097 -0.6287
 2778THY    HA369441   2.965   0.192   1.915 -1.3369 -1.5069 -1.8138
 2778THY    CA469442   2.778   0.253   1.850 -1.0249 -0.9053 -0.0470
 2778THY    HA469443   2.804   0.225   1.749  1.1363 -0.7933  0.4343
 2778THY    CA569444   2.656   0.319   1.880 -0.7358 -0.1634  0.1790
 2778THY    CM169445   2.559   0.343   1.767 -0.0439 -0.2710 -0.4265
 2778THY    HM169446   2.613   0.345   1.671  0.1578  1.0553 -0.3013
 2778THY    HM269447   2.489   0.259   1.765 -0.0403 -0.3509  1.2529
 2778THY    HM369448   2.513   0.442   1.773 -1.0902 -0.8454  1.7836
 2778THY    CA669449   2.630   0.367   2.011 -0.0129 -0.0703  0.4606
 2778THY    HA669450   2.534   0.411   2.036 -0.6048 -1.5996  1.0297
 2779THY      O69451   1.497   5.816   6.947  0.5303  0.0026 -0.3529
 2779THY     HO69452   1.538   5.877   6.883 -1.7522  0.9299 -1.0335
 2779THY    CA169453   1.580   5.790   7.050 -0.7448  0.4630 -0.5322
 2779THY    CA269454   1.538   5.731   7.171 -0.0241  0.0233 -0.4573
 2779THY    CP169455   1.395   5.691   7.184 -0.3515 -0.7102  0.2021
 2779THY    HP169456   1.334   5.710   7.096  0.7489 -0.4793 -0.5313
 2779THY    CP269457   1.372   5.535   7.200 -0.2415 -0.0837 -0.3466
 2779THY    HP269458   1.411   5.502   7.297  0.5947 -0.8545 -0.9283
 2779THY    HP369459   1.266   5.507   7.197 -0.4002  0.5880 -1.5984
 2779THY    HP469460   1.422   5.476   7.122 -0.7502 -0.7214 -0.2035
 2779THY    CP369461   1.333   5.765   7.304  0.6775 -0.3071 -0.1926
 2779THY    HP569462   1.223   5.770   7.302  0.6002  1.0154  2.4137
 2779THY    HP669463   1.360   5.730   7.404  1.5129  0.5200 -0.1096
 2779THY    HP769464   1.354   5.873   7.295 -1.2515  0.1578  0.2368
 2779THY    CA369465   1.635   5.716   7.272 -0.4660  0.2907  0.4794
 2779THY    HA369466   1.614   5.663   7.364  2.2544  0.0867  1.0697
 2779THY    CA469467   1.764   5.766   7.254  0.0257 -0.2244  0.2818
 2779THY    HA469468   1.834   5.762   7.337 -2.7834  0.7139  2.8791
 2779THY    CA569469   1.799   5.832   7.137  0.4871 -0.2324  0.2856
 2779THY    CM169470   1.930   5.907   7.124  0.0127 -0.8879  0.2429
 2779THY    HM169471   1.969   5.913   7.226 -1.5263 -0.4280  0.8357
 2779THY    HM269472   1.994   5.844   7.062 -0.6008 -1.6370  0.3668
 2779THY    HM369473   1.925   6.008   7.081 -0.1550 -1.1414 -0.3458
 2779THY    CA669474   1.711   5.846   7.039  0.6641  0.3853  0.1003
 2779THY    HA669475   1.732   5.899   6.947  0.2428 -0.5307 -0.5344
 2780THY      O69476   4.215   5.489   4.127  0.8698  0.0815  0.2216
 2780THY     HO69477   4.290   5.537   4.166  2.6992 -2.6424  0.3302
 2780THY    CA169478   4.161   5.567   4.035  0.0385 -0.1295 -0.5838
 2780THY    CA269479   4.042   5.545   3.959  0.1490  0.2592  0.1755
 2780THY    CP169480   3.942   5.427   3.996  0.0648 -0.0431  0.0730
 2780THY    HP169481   3.981   5.368   4.080 -3.5701  1.0526  2.8290
 2780THY    CP269482   3.821   5.493   4.062 -0.3808 -0.9969  0.7246
 2780THY    HP269483   3.760   5.545   3.988 -0.1496 -0.2902  1.0231
 2780THY    HP369484   3.758   5.415   4.106 -0.0502 -1.7732 -0.1492
 2780THY    HP469485   3.852   5.557   4.146  1.0284 -1.4454  0.5885
 2780THY    CP369486   3.892   5.339   3.879  0.3805  0.6083 -0.2393
 2780THY    HP569487   3.841   5.397   3.801  1.9700  0.6306 -1.3118
 2780THY    HP669488   3.977   5.282   3.840  1.4047  1.6124  0.4618
 2780THY    HP769489   3.819   5.270   3.922  1.4210 -0.0888  0.4623
 2780THY    CA369490   4.008   5.633   3.856 -0.6450 -0.4739 -0.1784
 2780THY    HA369491   3.910   5.624   3.812 -0.5348 -0.1612 -0.4927
 2780THY    CA469492   4.086   5.741   3.835 -0.2204 -0.6389  0.3426
 2780THY    HA469493   4.063   5.818   3.761 -1.0900  0.9815  2.1913
 2780THY    CA569494   4.201   5.766   3.911  0.2638  0.0969 -0.5770
 2780THY    CM169495   4.279   5.894   3.893 -0.1239  0.2038 -0.2179
 2780THY    HM169496   4.305   5.913   3.788  0.1889 -0.1667 -0.2102
 2780THY    HM269497   4.222   5.978   3.934 -0.3952 -0.4321  0.7388
 2780THY    HM369498   4.372   5.887   3.950 -0.9616 -0.9654  1.0732
 2780THY    CA669499   4.243   5.677   4.006  0.2484 -0.2272 -0.4600
 2780THY    HA669500   4.332   5.701   4.064  0.2027 -1.9455  0.3740
 2781THY      O69501   2.623   3.815   7.611  0.6129 -0.0864 -0.3962
 2781THY     HO69502   2.561   3.743   7.631  0.1227  0.8117  1.5959
 2781THY    CA169503   2.640   3.889   7.725 -0.3458 -0.6391 -0.7031
 2781THY    CA269504   2.734   3.994   7.730  0.7944 -0.3469 -0.1044
 2781THY    CP169505   2.824   4.027   7.609  0.1704 -0.3046  0.5031
 2781THY    HP169506   2.804   3.950   7.535 -1.3141  0.4194  0.1199
 2781THY    CP269507   2.810   4.172   7.557 -0.2181  0.2074  0.1976
 2781THY    HP269508   2.707   4.201   7.533  0.6994  2.4390 -1.3236
 2781THY    HP369509   2.858   4.241   7.627 -1.9497 -0.5525  2.2417
 2781THY    HP469510   2.865   4.185   7.463 -1.1759 -0.7721 -0.5270
 2781THY    CP369511   2.969   3.998   7.641  0.3576  0.0298  0.4230
 2781THY    HP569512   3.033   4.010   7.553 -2.3486  0.3615 -1.6423
 2781THY    HP669513   3.006   4.052   7.729 -3.7213 -0.6614  2.7836
 2781THY    HP769514   2.975   3.893   7.670  0.1181 -0.3389 -0.7838
 2781THY    CA369515   2.732   4.083   7.844  0.0590  0.1909  0.6064
 2781THY    HA369516   2.803   4.163   7.861  0.6473  0.0449 -1.0213
 2781THY    CA469517   2.642   4.060   7.950  0.2263 -0.0850 -0.0905
 2781THY    HA469518   2.645   4.126   8.036  0.6244  1.4631 -1.2434
 2781THY    CA569519   2.551   3.958   7.951  0.1505  0.5226  0.3739
 2781THY    CM169520   2.439   3.942   8.050 -0.6303  0.0267  0.4680
 2781THY    HM169521   2.402   4.044   8.068  1.5180  0.6438  1.7715
 2781THY    HM269522   2.350   3.893   8.010 -0.4186  2.0191 -2.8289
 2781THY    HM369523   2.479   3.896   8.141  1.9004  1.1879  0.0303
 2781THY    CA669524   2.548   3.873   7.834 -0.4504 -0.4528 -0.5111
 2781THY    HA669525   2.474   3.795   7.820  0.2002 -0.9476 -1.2625
 2782THY      O69526   9.052   8.415   6.289 -0.7685 -0.0628 -0.2051
 2782THY     HO69527   9.119   8.485   6.297  1.7218 -2.3826  0.3220
 2782THY    CA169528   9.066   8.334   6.398 -0.2559  0.0649 -0.3013
 2782THY    CA269529   9.028   8.199   6.384  0.9011 -0.5281  0.0268
 2782THY    CP169530   8.962   8.145   6.252  0.7617 -0.1406 -0.8574
 2782THY    HP169531   9.006   8.207   6.173 -0.7948  2.7415  0.3681
 2782THY    CP269532   8.971   7.993   6.223 -0.2485  0.0414  0.4385
 2782THY    HP269533   9.077   7.968   6.237 -0.4668 -1.0178  0.2975
 2782THY    HP369534   8.907   7.925   6.280  0.5840 -0.9985  0.1649
 2782THY    HP469535   8.942   7.972   6.119  1.5608 -1.4750  0.1709
 2782THY    CP369536   8.819   8.190   6.241 -0.2773 -0.1129  0.1142
 2782THY    HP569537   8.770   8.151   6.151 -1.9267 -0.5324  1.1574
 2782THY    HP669538   8.760   8.160   6.328 -0.0869 -0.6335  0.0716
 2782THY    HP769539   8.819   8.300   6.237  0.3289 -0.1310 -1.0175
 2782THY    CA369540   9.039   8.114   6.502 -0.5122 -1.1750 -0.1717
 2782THY    HA369541   9.015   8.009   6.490 -2.0782 -0.7343 -1.1994
 2782THY    CA469542   9.109   8.164   6.620 -0.4160 -0.6460 -0.0164
 2782THY    HA469543   9.129   8.105   6.708 -0.2975 -0.1758  0.2725
 2782THY    CA569544   9.143   8.299   6.621  0.2296  0.2897  0.2874
 2782THY    CM169545   9.189   8.373   6.747  0.5161  0.1565 -0.5830
 2782THY    HM169546   9.183   8.308   6.835  1.6751 -0.3585 -0.8557
 2782THY    HM269547   9.295   8.403   6.739  0.2944  0.5173 -2.9119
 2782THY    HM369548   9.118   8.454   6.763  0.4775 -0.0997  0.6568
 2782THY    CA669549   9.128   8.381   6.507 -0.1982  0.1162 -0.0276
 2782THY    HA669550   9.158   8.485   6.516  0.0993  0.2028 -1.7576
 2783THY      O69551   0.722   0.405   4.765 -0.1743 -0.2004 -0.3229
 2783THY     HO69552   0.806   0.355   4.761 -0.9754 -1.8623  1.5221
 2783THY    CA169553   0.747   0.535   4.726 -0.2352  0.2325  0.3793
 2783THY    CA269554   0.643   0.632   4.714 -0.0384  0.4288  0.4926
 2783THY    CP169555   0.504   0.601   4.751 -0.1580  0.2228 -0.2097
 2783THY    HP169556   0.492   0.492   4.758  0.3580  0.0416 -1.8339
 2783THY    CP269557   0.460   0.677   4.873 -0.8785  0.0300 -0.0144
 2783THY    HP269558   0.465   0.785   4.857 -0.7776 -0.1688 -1.4938
 2783THY    HP369559   0.361   0.638   4.902 -0.3532 -1.9302 -0.6667
 2783THY    HP469560   0.525   0.635   4.951 -0.9817 -1.6760 -0.7805
 2783THY    CP369561   0.401   0.650   4.642 -0.2040  0.2469  0.1802
 2783THY    HP569562   0.302   0.604   4.651 -0.3060  0.2919 -0.6302
 2783THY    HP669563   0.401   0.756   4.616  0.1379  0.0491 -0.6821
 2783THY    HP769564   0.434   0.605   4.547  2.1985  1.5868  0.3078
 2783THY    CA369565   0.682   0.765   4.679 -0.0479  0.0860 -0.0532
 2783THY    HA369566   0.606   0.841   4.687 -0.8874 -0.7825  0.4220
 2783THY    CA469567   0.818   0.798   4.651 -0.0854  0.1039 -0.7859
 2783THY    HA469568   0.852   0.895   4.616  0.8678 -0.2104 -0.7747
 2783THY    CA569569   0.916   0.702   4.666  0.7029 -0.1859 -1.0433
 2783THY    CM169570   1.056   0.735   4.645  0.3089 -0.0408  0.5161
 2783THY    HM169571   1.070   0.843   4.634 -1.0271  0.1213  0.3053
 2783THY    HM269572   1.127   0.698   4.720  0.5990 -0.7360 -0.0886
 2783THY    HM369573   1.089   0.700   4.547  2.6191 -0.4028  1.3634
 2783THY    CA669574   0.881   0.575   4.713 -0.0569  0.0561 -0.3989
 2783THY    HA669575   0.962   0.508   4.740 -0.0559 -0.0622 -0.6866
 2784THY      O69576   2.124   7.901   6.331  0.2558 -0.4566  0.1615
 2784THY     HO69577   2.214   7.887   6.297 -0.4543 -1.6896 -1.3597
 2784THY    CA169578   2.084   8.027   6.290 -0.7667  0.5172 -0.2670
 2784THY    CA269579   1.980   8.092   6.351 -0.0547 -0.2160  0.2558
 2784THY    CP169580   1.899   8.024   6.463 -0.5145  0.4693 -0.8498
 2784THY    HP169581   1.969   7.958   6.517  2.6503  2.2604 -2.4780
 2784THY    CP269582   1.822   8.109   6.561  0.1501 -0.2904 -0.4989
 2784THY    HP269583   1.731   8.156   6.523 -1.3849 -0.1490  3.0300
 2784THY    HP369584   1.788   8.048   6.645  0.6083 -0.3041 -0.3222
 2784THY    HP469585   1.890   8.181   6.608 -2.6147  0.6814  2.3575
 2784THY    CP369586   1.797   7.929   6.392  0.1519 -1.1710  0.3098
 2784THY    HP569587   1.725   7.987   6.332  1.1803  0.9779  1.0521
 2784THY    HP669588   1.843   7.859   6.320 -0.1243 -0.8334 -0.2007
 2784THY    HP769589   1.745   7.864   6.463  0.1425 -1.5645 -0.0538
 2784THY    CA369590   1.940   8.219   6.302 -0.9995  0.2517  0.2454
 2784THY    HA369591   1.852   8.270   6.342 -1.3247  0.9098 -1.2312
 2784THY    CA469592   2.011   8.276   6.193 -0.3299 -0.8148  0.1669
 2784THY    HA469593   1.985   8.372   6.147 -1.1757 -1.8542 -1.6478
 2784THY    CA569594   2.110   8.204   6.129 -0.4221  0.4434  0.2183
 2784THY    CM169595   2.171   8.261   6.005 -0.3651  0.1707  0.1357
 2784THY    HM169596   2.213   8.179   5.946 -1.6716  0.2823 -1.0138
 2784THY    HM269597   2.086   8.298   5.947 -0.8880 -1.8479 -0.4783
 2784THY    HM369598   2.251   8.332   6.028  0.0945  0.2263 -1.4741
 2784THY    CA669599   2.148   8.082   6.186 -0.5170  1.0036  0.2295
 2784THY    HA669600   2.240   8.038   6.149 -0.1827  2.3951 -0.6697
 2785THY      O69601   1.034   9.391   6.569  0.2336  0.9864  0.0631
 2785THY     HO69602   1.087   9.325   6.617  0.2376  1.5513  0.8630
 2785THY    CA169603   1.013   9.490   6.666  0.4394  0.1608  0.5413
 2785THY    CA269604   0.934   9.599   6.642  0.1250  0.0179  0.0347
 2785THY    CP169605   0.893   9.647   6.503  0.1384  0.9056 -0.2560
 2785THY    HP169606   0.937   9.585   6.424 -0.7041 -0.6889  0.4993
 2785THY    CP269607   0.743   9.638   6.478 -0.5774 -0.9922  0.4464
 2785THY    HP269608   0.718   9.678   6.379 -0.0994 -0.6845  0.4464
 2785THY    HP369609   0.711   9.533   6.480  1.5020 -1.6972 -0.5556
 2785THY    HP469610   0.692   9.702   6.551  0.5167  1.1708 -0.5715
 2785THY    CP369611   0.950   9.780   6.470 -0.0461  0.5154 -0.6457
 2785THY    HP569612   1.056   9.773   6.445  0.4533 -0.8977  1.5767
 2785THY    HP669613   0.902   9.819   6.380 -1.6711  0.8421  0.3224
 2785THY    HP769614   0.929   9.846   6.555 -0.7784 -0.4812 -0.0297
 2785THY    CA369615   0.894   9.686   6.750 -0.3948 -0.1182 -0.3390
 2785THY    HA369616   0.829   9.772   6.738  0.4985  0.5916 -0.1870
 2785THY    CA469617   0.945   9.656   6.878  0.1991 -0.8096  0.0409
 2785THY    HA469618   0.917   9.727   6.956  0.4068 -2.2661  1.5020
 2785THY    CA569619   1.022   9.542   6.900 -0.1322 -0.3104 -0.1733
 2785THY    CM169620   1.056   9.507   7.045  0.8225  0.3995  0.6942
 2785THY    HM169621   1.067   9.399   7.062  0.5969  0.1620 -0.5727
 2785THY    HM269622   1.142   9.568   7.073  0.6525  1.4506 -0.9267
 2785THY    HM369623   0.969   9.544   7.101  0.0453 -0.7027  0.2529
 2785THY    CA669624   1.051   9.460   6.796 -0.1324  0.3944 -0.3518
 2785THY    HA669625   1.084   9.359   6.822  0.7287  1.4555  3.3591
 2786THY      O69626   4.487   5.389   2.892 -0.1578 -0.6562 -0.2655
 2786THY     HO69627   4.402   5.433   2.876 -1.0640 -2.4140 -0.4838
 2786THY    CA169628   4.508   5.315   2.778 -0.0009  0.1032  0.1706
 2786THY    CA269629   4.627   5.302   2.711 -0.7000 -0.6393 -0.2259
 2786THY    CP169630   4.760   5.354   2.777 -0.1795  0.1290  0.0573
 2786THY    HP169631   4.731   5.385   2.878 -2.7518 -0.1628 -0.5483
 2786THY    CP269632   4.866   5.236   2.781 -0.0144 -0.1020  0.6007
 2786THY    HP269633   4.894   5.215   2.677 -2.0186  1.6442 -0.3865
 2786THY    HP369634   4.949   5.271   2.843  0.7963 -1.1939  0.1418
 2786THY    HP469635   4.810   5.154   2.826 -2.0958  1.9337  1.9907
 2786THY    CP369636   4.818   5.483   2.709  0.3133  0.0411 -0.8023
 2786THY    HP569637   4.841   5.459   2.605 -1.7108 -1.9658 -0.8596
 2786THY    HP669638   4.755   5.572   2.702 -1.2062 -0.8767  0.5677
 2786THY    HP769639   4.909   5.513   2.763 -1.4771  0.0118  2.4896
 2786THY    CA369640   4.626   5.243   2.580 -0.1468  0.1511 -0.6748
 2786THY    HA369641   4.715   5.217   2.523 -0.3414  1.8291 -1.8514
 2786THY    CA469642   4.509   5.197   2.524 -0.0636 -0.1295  0.5870
 2786THY    HA469643   4.502   5.133   2.436 -0.7602 -2.1667  2.0504
 2786THY    CA569644   4.391   5.212   2.595  0.1256  0.0285  0.9931
 2786THY    CM169645   4.259   5.159   2.547  0.2992 -0.5536  0.5481
 2786THY    HM169646   4.267   5.050   2.543  1.0913 -0.4866 -0.0424
 2786THY    HM269647   4.173   5.176   2.613  0.0348  0.7067 -0.0934
 2786THY    HM369648   4.242   5.197   2.446 -2.1482  0.2012  1.1783
 2786THY    CA669649   4.391   5.273   2.720  0.4906  0.1074 -0.5136
 2786THY    HA669650   4.294   5.294   2.765  0.6723  0.9112 -0.4786
 2787THY      O69651   0.633   5.318   3.959 -0.5185  0.4132 -0.6320
 2787THY     HO69652   0.571   5.243   3.964  1.9197 -1.7866 -1.1143
 2787THY    CA169653   0.669   5.326   3.823 -0.5376 -0.0622 -0.2787
 2787THY    CA269654   0.704   5.447   3.757 -0.4066 -1.0833 -0.0360
 2787THY    CP169655   0.731   5.573   3.842  0.1657  0.5317 -0.0448
 2787THY    HP169656   0.753   5.535   3.943  3.7015  0.3993 -0.7456
 2787THY    CP269657   0.849   5.651   3.791 -0.0496 -0.2977  0.5556
 2787THY    HP269658   0.815   5.717   3.710 -1.7335  0.4461  1.8019
 2787THY    HP369659   0.908   5.702   3.868 -0.3049  0.6387  0.1495
 2787THY    HP469660   0.923   5.578   3.756  1.9993  1.7714  0.3540
 2787THY    CP369661   0.612   5.667   3.856 -0.1787 -0.4161  0.0488
 2787THY    HP569662   0.546   5.633   3.936 -0.2620  0.3002  0.2897
 2787THY    HP669663   0.643   5.754   3.914  2.5071 -1.3042  0.1083
 2787THY    HP769664   0.559   5.697   3.765  0.0064  0.2805  0.1639
 2787THY    CA369665   0.723   5.456   3.617 -0.6660  0.3081 -0.3542
 2787THY    HA369666   0.745   5.549   3.565 -0.4116  0.3114 -0.2423
 2787THY    CA469667   0.726   5.335   3.540 -0.1988 -0.0987  0.0418
 2787THY    HA469668   0.756   5.341   3.435  0.5194 -1.3882  0.1543
 2787THY    CA569669   0.709   5.211   3.613 -0.1849 -0.8444  0.5899
 2787THY    CM169670   0.715   5.086   3.537  0.5543  0.6678  0.1106
 2787THY    HM169671   0.641   5.087   3.456  2.3006 -1.8365 -1.6676
 2787THY    HM269672   0.815   5.075   3.494  0.4508  0.7924 -0.1654
 2787THY    HM369673   0.687   5.003   3.604  1.5459 -1.6457 -2.1602
 2787THY    CA669674   0.674   5.211   3.747 -0.1300 -0.3458  0.1597
 2787THY    HA669675   0.652   5.115   3.794 -0.7618 -0.1359  0.3030
 2788THY      O69676   9.703   1.221   6.940 -0.1676  0.1808  0.2368
 2788THY     HO69677   9.669   1.310   6.920  0.1896  0.0863 -0.8481
 2788THY    CA169678   9.611   1.131   6.942 -0.0852  0.3954  0.3149
 2788THY    CA269679   9.634   1.007   6.993  0.6878  0.1249 -0.6073
 2788THY    CP169680   9.774   0.956   7.033 -0.3739  0.3661  0.8539
 2788THY    HP169681   9.852   1.027   7.001 -0.6700  0.8537  1.1966
 2788THY    CP269682   9.797   0.950   7.188  0.0099 -0.1422 -0.0822
 2788THY    HP269683   9.765   1.041   7.240  2.6105  0.0259  1.4363
 2788THY    HP369684   9.739   0.872   7.239  1.4072 -1.9869 -1.1686
 2788THY    HP469685   9.904   0.943   7.212  0.3611 -0.9039 -1.7401
 2788THY    CP369686   9.815   0.822   6.964  0.4354  0.4893 -0.0699
 2788THY    HP569687   9.921   0.817   6.935  0.1771 -3.2892 -0.9000
 2788THY    HP669688   9.793   0.741   7.035 -1.1798 -0.1370 -1.2136
 2788THY    HP769689   9.756   0.805   6.873  2.0713 -2.6904 -0.7187
 2788THY    CA369690   9.524   0.919   7.017  0.2811 -0.3256 -0.3250
 2788THY    HA369691   9.537   0.826   7.072 -0.0294 -0.6806 -0.8498
 2788THY    CA469692   9.393   0.947   6.988  0.5374 -0.1646 -0.5928
 2788THY    HA469693   9.311   0.879   7.006  0.8343 -0.1955  0.7222
 2788THY    CA569694   9.364   1.085   6.945 -0.1395  0.6231 -0.6891
 2788THY    CM169695   9.220   1.132   6.926  0.4499  0.1119  0.1619
 2788THY    HM169696   9.168   1.071   7.000  0.7214 -1.0950 -0.6209
 2788THY    HM269697   9.194   1.236   6.952 -3.0800 -1.0629  2.0116
 2788THY    HM369698   9.171   1.107   6.832  3.7657 -1.3609 -1.3404
 2788THY    CA669699   9.478   1.166   6.915 -0.2869 -0.1343 -0.6090
 2788THY    HA669700   9.452   1.265   6.878 -1.4677 -0.6444 -1.2199
 2789THY      O69701   3.340   4.114   6.678 -0.2057  0.6407 -0.1419
 2789THY     HO69702   3.335   4.025   6.716 -0.7621 -0.2036 -2.0993
 2789THY    CA169703   3.453   4.104   6.599 -0.2195  0.1475 -0.0082
 2789THY    CA269704   3.480   4.207   6.510  0.0710  0.1736 -0.7299
 2789THY    CP169705   3.392   4.332   6.509  0.4021  0.1623  0.3515
 2789THY    HP169706   3.354   4.344   6.611 -1.4232 -0.3375 -0.2320
 2789THY    CP269707   3.461   4.460   6.468 -0.0011 -0.2811  0.0527
 2789THY    HP269708   3.567   4.466   6.493  0.6451  0.2415 -2.5360
 2789THY    HP369709   3.469   4.457   6.358  0.5780 -0.7531  0.0976
 2789THY    HP469710   3.402   4.548   6.494 -0.6042 -0.6662  0.0234
 2789THY    CP369711   3.266   4.325   6.413  0.5220  0.6185 -0.0124
 2789THY    HP569712   3.302   4.306   6.311 -2.4124 -1.6398 -0.7745
 2789THY    HP669713   3.192   4.252   6.449 -0.0034  1.4057  0.5499
 2789THY    HP769714   3.213   4.420   6.413 -0.7006 -0.0075  1.6730
 2789THY    CA369715   3.575   4.187   6.415 -0.3776 -0.2983  0.0495
 2789THY    HA369716   3.584   4.266   6.341 -2.1237 -1.5302 -1.5559
 2789THY    CA469717   3.646   4.064   6.403  0.2540 -0.5508 -0.0499
 2789THY    HA469718   3.714   4.045   6.320  1.1330 -0.1555  0.5530
 2789THY    CA569719   3.612   3.963   6.488 -0.5475  0.4892  0.2305
 2789THY    CM169720   3.664   3.821   6.464  0.0534 -0.2131 -0.0119
 2789THY    HM169721   3.641   3.794   6.360  0.5828  3.4528 -1.2211
 2789THY    HM269722   3.771   3.810   6.484 -0.4972 -2.2463  2.2891
 2789THY    HM369723   3.621   3.740   6.523 -0.2396  0.4635  0.7188
 2789THY    CA669724   3.521   3.986   6.598  0.3498  0.1253  0.6105
 2789THY    HA669725   3.497   3.905   6.667  0.1317 -0.3604 -0.0200
 2790THY      O69726   2.152   6.908   6.471 -0.1239  0.4128 -0.4386
 2790THY     HO69727   2.146   6.812   6.464  1.6652  0.2547 -0.1685
 2790THY    CA169728   2.088   6.946   6.583 -0.0432 -0.3404 -0.4124
 2790THY    CA269729   2.112   7.071   6.644  0.7309 -0.5535  0.2766
 2790THY    CP169730   2.213   7.170   6.587  0.1828  0.6222 -0.4565
 2790THY    HP169731   2.237   7.138   6.485 -0.5493 -1.4703 -0.0194
 2790THY    CP269732   2.151   7.310   6.573 -0.1098 -0.0558 -0.1401
 2790THY    HP269733   2.073   7.294   6.498 -1.3877  1.4190  0.8226
 2790THY    HP369734   2.095   7.339   6.662  0.5731  0.1247  0.2376
 2790THY    HP469735   2.215   7.391   6.535 -0.4781  0.3119  0.0156
 2790THY    CP369736   2.345   7.166   6.661 -0.2157  0.2224 -0.0335
 2790THY    HP569737   2.380   7.063   6.676 -1.2023 -0.2139 -0.5821
 2790THY    HP669738   2.418   7.207   6.591  0.2857  1.6731  1.3160
 2790THY    HP769739   2.342   7.216   6.758  0.4591 -2.0258  1.2230
 2790THY    CA369740   2.056   7.094   6.770 -0.9463  0.1371 -0.1492
 2790THY    HA369741   2.071   7.184   6.828 -1.7304 -0.7026  1.3987
 2790THY    CA469742   1.976   6.986   6.830 -0.1310 -0.9464 -0.4233
 2790THY    HA469743   1.940   7.000   6.932  1.9239 -1.2272  0.3982
 2790THY    CA569744   1.955   6.862   6.765  0.1352 -0.2001 -0.0943
 2790THY    CM169745   1.869   6.759   6.820 -0.5837  0.2850 -0.5107
 2790THY    HM169746   1.868   6.780   6.928  0.3522  1.0525 -0.6451
 2790THY    HM269747   1.764   6.761   6.789 -2.0602 -1.2891  3.6723
 2790THY    HM369748   1.902   6.657   6.796  0.6332  0.7948 -1.0734
 2790THY    CA669749   2.010   6.848   6.645  0.3183  0.6395 -0.1963
 2790THY    HA669750   1.998   6.765   6.576  0.4484  1.7339 -1.5837
 2791THY      O69751   4.688   9.265   6.311  0.4738  0.3915  0.9026
 2791THY     HO69752   4.623   9.337   6.313  0.2315  0.2210 -0.2074
 2791THY    CA169753   4.635   9.167   6.387 -0.6811 -0.9982 -0.3100
 2791THY    CA269754   4.706   9.049   6.421 -0.3165 -0.3052 -0.1369
 2791THY    CP169755   4.858   9.037   6.387  0.3746 -0.3781  0.2051
 2791THY    HP169756   4.884   9.129   6.333  0.8445  0.7547  2.2289
 2791THY    CP269757   4.959   9.039   6.501  0.1217 -0.5601 -0.1906
 2791THY    HP269758   4.938   9.104   6.587  3.2160  0.3746 -0.0125
 2791THY    HP369759   4.966   8.936   6.539 -1.4053 -0.1498  1.3771
 2791THY    HP469760   5.054   9.080   6.466 -0.5825  0.0935 -1.3885
 2791THY    CP369761   4.872   8.912   6.301 -0.4028 -1.1266  0.1427
 2791THY    HP569762   4.881   8.817   6.354 -0.0528 -1.2289 -0.0939
 2791THY    HP669763   4.789   8.917   6.230 -0.7693 -0.1986  0.6159
 2791THY    HP769764   4.962   8.920   6.238 -0.8740  0.5694 -0.3884
 2791THY    CA369765   4.640   8.947   6.482  0.2943 -0.0767 -0.6548
 2791THY    HA369766   4.700   8.862   6.513 -1.1311 -0.5727  0.9216
 2791THY    CA469767   4.498   8.958   6.520 -0.1866 -0.4438  0.4815
 2791THY    HA469768   4.451   8.882   6.583 -1.3044  0.0896  0.3215
 2791THY    CA569769   4.432   9.079   6.490 -0.1209 -0.3524  0.3867
 2791THY    CM169770   4.288   9.093   6.526  0.2537 -0.0180 -0.3857
 2791THY    HM169771   4.239   8.996   6.518 -0.2370  0.2143 -0.2334
 2791THY    HM269772   4.283   9.120   6.633 -0.5637 -3.4630  0.5494
 2791THY    HM369773   4.244   9.166   6.457 -1.2822 -1.8813 -1.4472
 2791THY    CA669774   4.497   9.175   6.411 -0.2372 -0.0827  0.6676
 2791THY    HA669775   4.447   9.263   6.373 -0.1842 -1.4387 -2.9459
 2792THY      O69776   8.872   1.003   6.912  0.3693  0.1050 -0.0284
 2792THY     HO69777   8.865   0.935   6.842 -2.6302  1.8860 -1.6683
 2792THY    CA169778   8.926   0.959   7.027  0.0448  0.2000 -0.4753
 2792THY    CA269779   8.927   1.041   7.144 -0.3120 -0.3587 -0.9719
 2792THY    CP169780   8.870   1.181   7.155  0.7276  0.4977 -0.6424
 2792THY    HP169781   8.829   1.208   7.057 -0.9961  0.6625  0.0854
 2792THY    CP269782   8.742   1.174   7.244 -0.0960  0.2071  0.0045
 2792THY    HP269783   8.656   1.117   7.208  1.1237 -0.7420 -1.5550
 2792THY    HP369784   8.774   1.130   7.340  0.0606  0.1177 -0.0879
 2792THY    HP469785   8.710   1.274   7.274  0.4337  0.1117  0.9316
 2792THY    CP369786   8.976   1.290   7.197  0.4470  0.6224 -0.5578
 2792THY    HP569787   8.939   1.389   7.167 -2.3173 -0.3536 -0.6699
 2792THY    HP669788   9.001   1.285   7.304  0.5413  0.0951 -0.6002
 2792THY    HP769789   9.071   1.258   7.154  0.8282 -1.9307  1.8408
 2792THY    CA369790   8.992   0.977   7.259 -0.4748  0.3418  1.4509
 2792THY    HA369791   8.987   1.021   7.358  0.3461 -0.0759  1.6884
 2792THY    CA469792   9.064   0.861   7.247 -0.3802  0.4821  0.1791
 2792THY    HA469793   9.113   0.820   7.335  0.0637  1.1092  0.2317
 2792THY    CA569794   9.068   0.791   7.129  0.2070  0.5101  0.0052
 2792THY    CM169795   9.146   0.658   7.109  0.3427 -0.5241 -0.1557
 2792THY    HM169796   9.255   0.669   7.106  0.0636  3.4596 -1.0003
 2792THY    HM269797   9.130   0.593   7.196  2.3434 -0.2114  0.5098
 2792THY    HM369798   9.112   0.601   7.022  0.7340 -0.3765 -0.4077
 2792THY    CA669799   8.991   0.835   7.020 -0.2908 -0.1863  0.5291
 2792THY    HA669800   8.982   0.780   6.927 -2.0180  1.6424 -0.4565
 2793THY      O69801   3.192   0.928   7.070  0.3547 -0.3792 -0.8342
 2793THY     HO69802   3.277   0.898   7.034  1.2104  1.8449 -0.7953
 2793THY    CA169803   3.164   0.834   7.160 -0.6531  0.6816 -0.1613
 2793THY    CA269804   3.078   0.857   7.268 -0.3153  0.8845  0.0902
 2793THY    CP169805   3.017   0.992   7.295 -0.0310 -0.3960 -0.6898
 2793THY    HP169806   3.032   1.054   7.206  0.1229 -1.2355 -1.2620
 2793THY    CP269807   2.865   0.986   7.318  0.1555 -0.0297  0.2878
 2793THY    HP269808   2.833   1.090   7.306  1.1288  0.3504  0.8595
 2793THY    HP369809   2.810   0.922   7.248 -0.1886 -0.1452  0.6564
 2793THY    HP469810   2.846   0.965   7.424 -0.1826  1.2248  0.4908
 2793THY    CP369811   3.079   1.059   7.417 -0.0637  0.1353 -0.1281
 2793THY    HP569812   3.070   0.993   7.503 -0.9088 -1.6290 -1.5032
 2793THY    HP669813   3.185   1.078   7.395 -0.0464  1.3876  0.9437
 2793THY    HP769814   3.036   1.159   7.429 -1.4728 -0.6088  1.4469
 2793THY    CA369815   3.048   0.744   7.350  0.0709  0.0379  0.0112
 2793THY    HA369816   2.985   0.753   7.438  0.5948 -2.1736  0.6930
 2793THY    CA469817   3.119   0.623   7.324  0.4886  0.1864 -0.9071
 2793THY    HA469818   3.102   0.540   7.392  1.5146  0.2666 -0.5337
 2793THY    CA569819   3.205   0.607   7.217  0.2748  0.1237 -0.4123
 2793THY    CM169820   3.280   0.480   7.205 -0.1902 -0.3937 -0.0465
 2793THY    HM169821   3.268   0.409   7.288  0.8447  0.3968  0.8119
 2793THY    HM269822   3.251   0.438   7.109  0.0805  1.3254 -0.9165
 2793THY    HM369823   3.387   0.503   7.197  0.1735 -2.1127 -0.5152
 2793THY    CA669824   3.222   0.717   7.134 -0.2186  0.2754  0.8534
 2793THY    HA669825   3.294   0.711   7.052 -0.4666 -0.2875  0.6668
 2794THY      O69826   1.289   7.828   4.023  0.3479  0.0948  0.1418
 2794THY     HO69827   1.216   7.765   4.039  1.2240 -0.7927  0.7858
 2794THY    CA169828   1.265   7.930   4.108 -0.0556 -0.8706 -0.0597
 2794THY    CA269829   1.354   8.027   4.148 -0.1242  0.6585  0.0414
 2794THY    CP169830   1.499   8.015   4.104 -0.7565  0.1463 -0.1395
 2794THY    HP169831   1.514   7.924   4.044  2.5235  0.4821 -0.0462
 2794THY    CP269832   1.539   8.138   4.019 -0.1321  0.1723 -0.1602
 2794THY    HP269833   1.633   8.129   3.963  0.0286  0.7386  0.0071
 2794THY    HP369834   1.459   8.165   3.949  0.6252 -0.2387 -1.2175
 2794THY    HP469835   1.558   8.225   4.083  0.1434  1.4879 -1.9187
 2794THY    CP369836   1.592   8.002   4.227  0.3640  0.1326  0.0791
 2794THY    HP569837   1.562   7.907   4.273 -0.1507 -0.7556 -1.9812
 2794THY    HP669838   1.697   8.017   4.202  0.1078  0.6541 -0.7113
 2794THY    HP769839   1.575   8.082   4.301 -0.9736  0.2100 -0.2805
 2794THY    CA369840   1.313   8.138   4.228  0.6068  1.1910  0.3753
 2794THY    HA369841   1.380   8.216   4.265  2.0868 -0.3809  1.1612
 2794THY    CA469842   1.175   8.147   4.259 -0.3470 -0.0966  0.3943
 2794THY    HA469843   1.121   8.226   4.310 -3.5500  0.8630 -3.9152
 2794THY    CA569844   1.090   8.040   4.230 -0.1930  0.1270  0.3805
 2794THY    CM169845   0.954   8.042   4.291  0.2598  0.2102 -0.5324
 2794THY    HM169846   0.925   7.937   4.299  0.0639  0.1993 -1.3531
 2794THY    HM269847   0.952   8.087   4.391 -2.7625 -0.0395 -0.3900
 2794THY    HM369848   0.882   8.093   4.226 -0.2677 -0.1190 -0.2128
 2794THY    CA669849   1.136   7.935   4.158  0.3153  0.5108  0.3298
 2794THY    HA669850   1.068   7.854   4.132 -0.6679  1.4523 -0.1230
 2795THY      O69851   9.248   8.590   9.107  0.2640 -0.1797 -0.1143
 2795THY     HO69852   9.166   8.568   9.156  1.1803  1.2352  2.2488
 2795THY    CA169853   9.268   8.731   9.108 -0.0557  1.0292 -0.1250
 2795THY    CA269854   9.338   8.806   9.008 -0.7732  0.3613 -0.6334
 2795THY    CP169855   9.388   8.733   8.890  0.5621 -0.4128  0.2271
 2795THY    HP169856   9.394   8.626   8.913  1.3120 -0.2136  0.9762
 2795THY    CP269857   9.297   8.741   8.768 -0.4939  0.0618  0.1760
 2795THY    HP269858   9.339   8.674   8.692  2.7973  2.6622 -0.5632
 2795THY    HP369859   9.195   8.721   8.802 -0.4444  0.7883  0.7818
 2795THY    HP469860   9.306   8.841   8.722  1.7921 -0.4069 -0.5304
 2795THY    CP369861   9.535   8.776   8.859  0.3911 -0.1309  0.1391
 2795THY    HP569862   9.570   8.723   8.769 -0.6174  2.4632 -1.8897
 2795THY    HP669863   9.548   8.882   8.838 -1.2453  0.6955  2.8152
 2795THY    HP769864   9.599   8.739   8.941 -0.9320 -2.3817  0.2377
 2795THY    CA369865   9.346   8.943   9.026 -0.0150 -0.0297 -0.0948
 2795THY    HA369866   9.397   9.004   8.952  1.9211 -1.4032  0.0500
 2795THY    CA469867   9.283   9.005   9.136 -0.4539  0.5275 -1.7925
 2795THY    HA469868   9.290   9.113   9.149  0.2380  0.4624 -1.5721
 2795THY    CA569869   9.215   8.917   9.231 -0.4191 -0.2552  0.3503
 2795THY    CM169870   9.151   8.981   9.348  0.0031  0.1523  0.7674
 2795THY    HM169871   9.047   8.947   9.357  0.3043 -1.5240 -1.1997
 2795THY    HM269872   9.193   8.950   9.444  0.0810 -1.9436  0.1238
 2795THY    HM369873   9.172   9.088   9.340 -0.0467  0.0293 -2.8540
 2795THY    CA669874   9.201   8.786   9.213 -0.0602  0.5979  0.7024
 2795THY    HA669875   9.148   8.728   9.288  1.3460 -0.0684  1.2274
 2796THY      O69876   7.420   9.770   7.639 -0.2616  0.0123  0.1025
 2796THY     HO69877   7.329   9.806   7.634  0.0165  0.5855 -1.8205
 2796THY    CA169878   7.502   9.878   7.657  0.2381  0.2348 -0.1925
 2796THY    CA269879   7.640   9.857   7.645 -0.4778  0.4565  0.2060
 2796THY    CP169880   7.702   9.721   7.614  0.8233  0.1615 -0.2450
 2796THY    HP169881   7.646   9.636   7.656 -0.0157  0.0757 -1.4953
 2796THY    CP269882   7.703   9.703   7.464  0.2645  0.5180 -0.4188
 2796THY    HP269883   7.765   9.781   7.417  0.2259 -0.2602 -1.8100
 2796THY    HP369884   7.746   9.606   7.434  0.4597  0.7618 -0.9465
 2796THY    HP469885   7.604   9.705   7.419 -0.5463 -1.9652  1.0788
 2796THY    CP369886   7.838   9.712   7.680 -0.1374 -0.7244  0.2660
 2796THY    HP569887   7.890   9.619   7.652  0.1440 -0.6691  0.6000
 2796THY    HP669888   7.903   9.798   7.661 -3.4587  2.1061  0.7235
 2796THY    HP769889   7.826   9.714   7.789 -1.3888 -3.1393  0.2514
 2796THY    CA369890   7.727   9.973   7.660  0.2502 -0.2142  0.1229
 2796THY    HA369891   7.835   9.974   7.649  0.5606 -0.8009  2.6620
 2796THY    CA469892   7.665  10.090   7.702  0.1788 -0.1067 -0.1896
 2796THY    HA469893   7.729  10.178   7.713  0.9275 -0.7856  1.1589
 2796THY    CA569894   7.524  10.101   7.722  0.1171 -0.7522  0.4892
 2796THY    CM169895   7.448  10.233   7.756 -0.2523  1.0989  0.4223
 2796THY    HM169896   7.517  10.316   7.779  2.7373 -0.2681 -2.6965
 2796THY    HM269897   7.366  10.262   7.690 -0.2494  2.6882  1.0648
 2796THY    HM369898   7.402  10.211   7.853  1.4599 -0.4382  0.9507
 2796THY    CA669899   7.444   9.998   7.696 -0.2540  0.6065  0.3970
 2796THY    HA669900   7.338  10.012   7.713 -0.0993  1.1259  0.9494
 2797THY      O69901   9.501   7.012   2.738 -0.0218  0.5073  0.7138
 2797THY     HO69902   9.506   6.961   2.820  1.3231  0.1536  0.4238
 2797THY    CA169903   9.633   7.035   2.713 -0.0784 -0.3706 -0.5115
 2797THY    CA269904   9.683   7.062   2.590 -0.1688 -0.2655 -0.0995
 2797THY    CP169905   9.587   7.078   2.464  0.5566 -0.5303  0.2500
 2797THY    HP169906   9.485   7.059   2.500  0.0926 -0.6639 -1.0800
 2797THY    CP269907   9.590   7.223   2.401 -0.1813 -0.2089  0.2667
 2797THY    HP269908   9.693   7.233   2.366 -0.7073  0.4918 -1.1470
 2797THY    HP369909   9.508   7.218   2.328 -1.2078 -0.9177  1.4328
 2797THY    HP469910   9.571   7.290   2.486  0.6989  0.4919 -0.0838
 2797THY    CP369911   9.602   6.974   2.352  0.0014  1.3178 -0.2701
 2797THY    HP569912   9.687   6.999   2.288  0.2779  1.1258  0.0171
 2797THY    HP669913   9.595   6.868   2.381  2.4859  0.8086 -1.3039
 2797THY    HP769914   9.510   6.980   2.293 -0.2492  1.6152  0.1508
 2797THY    CA369915   9.820   7.082   2.578 -0.0285  1.0679 -0.1071
 2797THY    HA369916   9.866   7.108   2.483  1.2412 -0.7360 -0.0415
 2797THY    CA469917   9.908   7.070   2.690 -0.0324  0.0744 -0.2696
 2797THY    HA469918  10.015   7.078   2.674 -0.0632  0.5584 -0.2236
 2797THY    CA569919   9.858   7.051   2.809  0.3439 -0.3095 -0.3966
 2797THY    CM169920   9.945   7.042   2.925 -0.3356  0.1791 -0.5894
 2797THY    HM169921   9.891   7.010   3.015  0.1945  1.8323  0.3697
 2797THY    HM269922  10.040   6.994   2.899 -0.0719  1.1148 -1.4189
 2797THY    HM369923   9.977   7.146   2.941 -1.7616  0.9711 -2.5001
 2797THY    CA669924   9.724   7.024   2.822  0.1670 -0.1181 -1.0247
 2797THY    HA669925   9.685   7.002   2.920 -0.0318  1.7403 -0.6648
 2798THY      O69926   5.742   8.888   6.837 -0.1770 -0.0057  0.1078
 2798THY     HO69927   5.803   8.898   6.762 -0.6081  0.1989 -0.2200
 2798THY    CA169928   5.750   9.004   6.904 -0.2267 -0.3353  0.4436
 2798THY    CA269929   5.664   9.035   7.006  0.1181  0.3449 -0.0881
 2798THY    CP169930   5.555   8.935   7.038 -0.3897  0.1669 -0.7332
 2798THY    HP169931   5.516   8.886   6.948  0.3667 -3.4453  0.7369
 2798THY    CP269932   5.613   8.828   7.123 -0.1797  0.8644  0.2118
 2798THY    HP269933   5.687   8.777   7.061  0.3698  0.7504  0.9488
 2798THY    HP369934   5.665   8.858   7.215  0.0451 -2.1048  1.1473
 2798THY    HP469935   5.535   8.755   7.146  0.9922 -0.7579 -0.8085
 2798THY    CP369936   5.437   8.989   7.112  0.8494 -0.6476  0.3244
 2798THY    HP569937   5.454   9.009   7.218  1.1561  0.1985  0.1203
 2798THY    HP669938   5.405   9.080   7.060  0.5824 -0.7082  0.3837
 2798THY    HP769939   5.351   8.922   7.107  0.4247 -0.1783  1.1908
 2798THY    CA369940   5.665   9.168   7.066 -0.6213 -0.2061 -0.6253
 2798THY    HA369941   5.586   9.201   7.133 -0.5254 -1.0179 -0.0886
 2798THY    CA469942   5.775   9.249   7.037 -0.1378  0.2930  0.1339
 2798THY    HA469943   5.785   9.336   7.102  2.3544 -0.8499  1.3863
 2798THY    CA569944   5.867   9.219   6.948  0.1195  0.4012  0.1653
 2798THY    CM169945   5.980   9.308   6.922  0.1710 -0.2961  0.0040
 2798THY    HM169946   5.968   9.415   6.942 -1.7604 -0.9997  3.3703
 2798THY    HM269947   6.069   9.278   6.979 -0.0685 -1.8054 -0.3849
 2798THY    HM369948   6.012   9.287   6.820 -0.0360 -1.7274  0.2027
 2798THY    CA669949   5.856   9.093   6.875  0.3473  0.1320  0.3225
 2798THY    HA669950   5.937   9.067   6.807  2.0807  1.6330  1.6933
 2799THY      O69951   1.272   8.550   3.725  0.6007  0.1662  0.1113
 2799THY     HO69952   1.249   8.469   3.675 -1.3070 -0.2712  1.5925
 2799THY    CA169953   1.407   8.568   3.731 -0.2271  0.1318  0.2724
 2799THY    CA269954   1.463   8.687   3.701  0.2856 -0.5111  0.4242
 2799THY    CP169955   1.380   8.811   3.663  0.5844 -0.1370  0.2810
 2799THY    HP169956   1.279   8.791   3.623  0.2715  1.0799  0.4181
 2799THY    CP269957   1.361   8.899   3.788 -0.2623 -0.3529 -0.2387
 2799THY    HP269958   1.295   8.983   3.762  0.0975 -0.1291 -0.4301
 2799THY    HP369959   1.326   8.833   3.868  1.0274 -0.2186  0.4584
 2799THY    HP469960   1.458   8.933   3.825  0.5308 -3.5119  0.9460
 2799THY    CP369961   1.440   8.897   3.552 -0.1830 -0.4935 -0.0485
 2799THY    HP569962   1.494   8.981   3.596  0.2164 -1.4756  1.4272
 2799THY    HP669963   1.506   8.836   3.489 -0.6845 -2.1633  0.9737
 2799THY    HP769964   1.364   8.942   3.487  1.7265  0.1082 -1.9701
 2799THY    CA369965   1.608   8.702   3.702  0.1554 -0.2601 -0.1098
 2799THY    HA369966   1.656   8.797   3.682  1.1247  0.0004  2.9412
 2799THY    CA469967   1.689   8.587   3.719  0.1813  0.6940 -0.0328
 2799THY    HA469968   1.796   8.589   3.739  0.0893 -0.0662  0.6103
 2799THY    CA569969   1.620   8.465   3.742 -0.4331  0.2604  0.2329
 2799THY    CM169970   1.701   8.341   3.774 -0.4106 -0.8280  0.1563
 2799THY    HM169971   1.803   8.354   3.735 -0.7916  1.7988 -0.0884
 2799THY    HM269972   1.710   8.322   3.882 -1.2470 -0.8234  0.2331
 2799THY    HM369973   1.664   8.249   3.726  0.1160  0.4487 -2.9420
 2799THY    CA669974   1.481   8.451   3.740  0.3639  0.5513 -0.5350
 2799THY    HA669975   1.446   8.350   3.755 -0.6312  0.7777 -1.2415
 2800THY      O69976   1.941   5.978   4.470  0.5432  0.3579 -0.3608
 2800THY     HO69977   1.896   6.051   4.516  1.8272  0.5550  0.6385
 2800THY    CA169978   2.060   6.022   4.436 -0.1261  0.3876 -0.3929
 2800THY    CA269979   2.165   5.939   4.392  0.9921  0.1610  0.0522
 2800THY    CP169980   2.137   5.801   4.357 -0.6682  1.0096  0.5057
 2800THY    HP169981   2.043   5.758   4.396  0.2745 -2.1441 -0.3880
 2800THY    CP269982   2.133   5.784   4.200 -0.3098  0.5344 -0.6875
 2800THY    HP269983   2.224   5.823   4.153 -0.3190 -0.7300 -1.8148
 2800THY    HP369984   2.127   5.677   4.182 -0.2104  0.1559  1.2840
 2800THY    HP469985   2.048   5.845   4.166  1.3004  2.9544 -0.6223
 2800THY    CP369986   2.244   5.700   4.411  0.4673 -0.2743 -0.0805
 2800THY    HP569987   2.251   5.710   4.520 -0.0981 -2.6946  0.2278
 2800THY    HP669988   2.224   5.596   4.383 -1.3969  0.0513 -0.0742
 2800THY    HP769989   2.347   5.718   4.376  0.4356  2.6142  1.0348
 2800THY    CA369990   2.299   5.990   4.382 -0.1226  0.7932 -0.0063
 2800THY    HA369991   2.377   5.924   4.346  0.3941  0.8410  0.9978
 2800THY    CA469992   2.325   6.122   4.413 -0.1086  0.2515  0.2004
 2800THY    HA469993   2.425   6.164   4.407  0.3309 -0.5752  1.5176
 2800THY    CA569994   2.223   6.198   4.459  0.2935  0.8081  0.2270
 2800THY    CM169995   2.247   6.330   4.513 -0.1307 -0.4937 -0.0702
 2800THY    HM169996   2.156   6.389   4.529  0.7653  0.5237  1.5105
 2800THY    HM269997   2.304   6.322   4.606  2.6670  0.6593 -1.5384
 2800THY    HM369998   2.317   6.387   4.449 -0.1390  0.6423  0.9068
 2800THY    CA669999   2.089   6.151   4.459 -0.5070  0.1407 -0.1721
 2800THY    HA670000   2.016   6.215   4.507  1.4753  1.2846  1.4338
 2801THY      O70001   7.232   0.953   5.154  0.7035 -0.0324  0.1155
 2801THY     HO70002   7.255   0.989   5.242 -1.4379 -2.0656  1.6057
 2801THY    CA170003   7.209   0.825   5.169  0.9603 -0.5930 -0.2761
 2801THY    CA270004   7.132   0.754   5.073  0.1995  0.1941 -0.8694
 2801THY    CP170005   7.068   0.848   4.962 -0.1567  0.0990 -0.3650
 2801THY    HP170006   7.099   0.954   4.960  1.0399 -0.2375 -1.3978
 2801THY    CP270007   7.110   0.808   4.822 -0.8969  0.0500 -0.0289
 2801THY    HP270008   7.084   0.702   4.813  1.7069 -0.5944 -0.6482
 2801THY    HP370009   7.055   0.867   4.747 -1.3906  0.3000  0.5214
 2801THY    HP470010   7.217   0.818   4.804 -0.8428  4.8761  1.5254
 2801THY    CP370011   6.912   0.847   4.970 -0.2855  0.5434 -0.1303
 2801THY    HP570012   6.874   0.745   4.983 -1.8664  0.9657 -1.1105
 2801THY    HP670013   6.883   0.900   5.061 -1.0652  1.1899 -0.7361
 2801THY    HP770014   6.863   0.904   4.890 -0.6373  1.0391  0.4278
 2801THY    CA370015   7.099   0.621   5.094  0.2930 -0.6150  0.8114
 2801THY    HA370016   7.037   0.573   5.018  0.8592 -0.7997  0.4608
 2801THY    CA470017   7.147   0.558   5.211 -0.5965  0.5765  0.8828
 2801THY    HA470018   7.111   0.457   5.226 -1.4293  0.3546 -1.9753
 2801THY    CA570019   7.225   0.629   5.308  0.2180  0.5902  0.1879
 2801THY    CM170020   7.277   0.569   5.432  0.7440 -0.0274 -0.4124
 2801THY    HM170021   7.222   0.609   5.519 -0.5540  2.7669 -2.3467
 2801THY    HM270022   7.280   0.460   5.434  2.6762 -0.0434  2.8217
 2801THY    HM370023   7.382   0.599   5.448 -0.2217  4.8391 -1.4955
 2801THY    CA670024   7.253   0.765   5.289 -0.0826  0.5485  0.4561
 2801THY    HA670025   7.314   0.822   5.358 -0.5447  0.9941  0.5040
 2802THY      O70026   3.537   7.192   8.118 -0.2777  0.0410  0.8244
 2802THY     HO70027   3.609   7.138   8.083 -1.0209 -1.8690  2.0960
 2802THY    CA170028   3.552   7.325   8.090  0.0159 -0.1553  0.4109
 2802THY    CA270029   3.443   7.417   8.099 -0.5198  0.4614 -0.2776
 2802THY    CP170030   3.304   7.369   8.151 -0.6224  0.7692 -0.5581
 2802THY    HP170031   3.288   7.264   8.176 -0.6397  0.6836 -0.9306
 2802THY    CP270032   3.262   7.431   8.277  0.2987 -0.2684 -0.7935
 2802THY    HP270033   3.161   7.399   8.304  0.3926  0.7978  0.9537
 2802THY    HP370034   3.328   7.394   8.358  0.1875 -1.1457 -1.0889
 2802THY    HP470035   3.253   7.539   8.268 -1.2594 -0.3659 -0.6636
 2802THY    CP370036   3.205   7.391   8.041 -0.0077  0.1765 -0.2334
 2802THY    HP570037   3.245   7.329   7.960 -0.5022  0.9765 -1.1057
 2802THY    HP670038   3.116   7.337   8.074  1.3530 -2.6919 -0.9208
 2802THY    HP770039   3.194   7.495   8.007  0.0432  0.8870  1.7996
 2802THY    CA370040   3.454   7.549   8.056 -0.0272 -0.4453 -0.0479
 2802THY    HA370041   3.379   7.627   8.063 -0.3891 -0.8808  1.2574
 2802THY    CA470042   3.585   7.592   8.012  0.1259  0.8019 -0.6904
 2802THY    HA470043   3.614   7.695   7.995  0.4951  1.1293  1.6376
 2802THY    CA570044   3.694   7.504   8.019  0.3063  0.1037 -0.1058
 2802THY    CM170045   3.832   7.562   8.011 -0.1393 -0.0439 -0.4267
 2802THY    HM170046   3.905   7.481   7.997  0.7902  0.6806  0.1236
 2802THY    HM270047   3.838   7.626   7.922 -1.1177  3.3090  1.7469
 2802THY    HM370048   3.864   7.624   8.095  2.8289 -0.0010 -1.4839
 2802THY    CA670049   3.681   7.366   8.061  0.0840 -0.8336 -0.0757
 2802THY    HA670050   3.770   7.304   8.065  0.4333 -0.4616 -1.4854
 2803THY      O70051   0.635   6.038   0.662 -0.2242  0.6335 -0.4795
 2803THY     HO70052   0.570   5.991   0.607 -1.6301 -1.5297  2.7249
 2803THY    CA170053   0.715   5.933   0.713 -0.3445  0.3292 -0.5774
 2803THY    CA270054   0.849   5.956   0.739 -0.3861  0.2436 -0.2573
 2803THY    CP170055   0.908   6.096   0.722  0.3537  0.4276  0.1920
 2803THY    HP170056   0.827   6.170   0.722 -0.3189 -0.2544  2.3884
 2803THY    CP270057   1.010   6.145   0.835 -0.7615 -0.6286  0.1069
 2803THY    HP270058   1.086   6.068   0.854 -0.2644  0.1207  1.2258
 2803THY    HP370059   1.066   6.226   0.788 -0.0687 -1.8520 -1.2419
 2803THY    HP470060   0.954   6.182   0.922  0.4661 -0.4436  0.8376
 2803THY    CP370061   0.974   6.096   0.577  0.0560  0.7933  0.4339
 2803THY    HP570062   0.906   6.050   0.504  2.0149 -1.2895 -0.1967
 2803THY    HP670063   1.016   6.193   0.547  0.9630  0.2784  0.0145
 2803THY    HP770064   1.050   6.018   0.572 -0.5519  0.2311 -0.3989
 2803THY    CA370065   0.938   5.857   0.763  0.2951  0.3664 -0.4625
 2803THY    HA370066   1.042   5.879   0.784  0.0205  0.9495  0.3163
 2803THY    CA470067   0.885   5.730   0.779  0.1555  1.0214  0.2862
 2803THY    HA470068   0.945   5.645   0.810 -0.7723  0.9326  1.9572
 2803THY    CA570069   0.750   5.699   0.747 -0.9004  0.7477  0.0274
 2803THY    CM170070   0.700   5.554   0.741 -0.1131  0.1634  0.4996
 2803THY    HM170071   0.617   5.542   0.811  0.0123 -1.3815  0.4063
 2803THY    HM270072   0.655   5.536   0.642 -2.9146  1.2911  1.4506
 2803THY    HM370073   0.783   5.484   0.753 -0.6755 -0.8359 -1.1490
 2803THY    CA670074   0.666   5.803   0.711 -0.9558  0.7188 -0.3389
 2803THY    HA670075   0.563   5.777   0.687 -0.5114 -2.7243  0.8884
 2804THY      O70076   5.416   5.557   9.552  0.3364  0.4032 -0.4339
 2804THY     HO70077   5.475   5.558   9.630  0.1067 -2.2892 -0.1056
 2804THY    CA170078   5.444   5.444   9.487 -0.0374 -0.8656  0.9534
 2804THY    CA270079   5.388   5.416   9.360 -0.0001 -0.0562 -0.2385
 2804THY    CP170080   5.304   5.519   9.283 -0.1406 -0.1674  0.3111
 2804THY    HP170081   5.358   5.612   9.306  0.5864 -1.1320  2.8992
 2804THY    CP270082   5.292   5.501   9.127  0.3189 -0.2200 -0.9095
 2804THY    HP270083   5.391   5.520   9.084  1.6940 -0.8300  1.8044
 2804THY    HP370084   5.257   5.400   9.101  1.1115 -1.4348  2.2637
 2804THY    HP470085   5.225   5.574   9.080  1.4995  1.3352 -0.2729
 2804THY    CP370086   5.162   5.526   9.339 -0.0864  0.0506  0.4566
 2804THY    HP570087   5.090   5.569   9.269 -2.2738 -0.2482  2.4234
 2804THY    HP670088   5.119   5.427   9.361  0.3941 -0.5469 -1.1840
 2804THY    HP770089   5.168   5.578   9.435  0.6580 -2.1182  1.6610
 2804THY    CA370090   5.403   5.287   9.311  0.4454  0.3591 -0.7163
 2804THY    HA370091   5.371   5.260   9.211  1.5905 -1.9517 -0.5274
 2804THY    CA470092   5.483   5.196   9.380  0.0142  0.6158  0.7869
 2804THY    HA470093   5.494   5.096   9.341  3.0216  0.8400  0.7999
 2804THY    CA570094   5.529   5.229   9.505  0.0342  0.0450  0.2232
 2804THY    CM170095   5.586   5.123   9.592  0.1198 -1.2098  0.2208
 2804THY    HM170096   5.512   5.082   9.661  2.4790 -3.5944  1.4887
 2804THY    HM270097   5.639   5.052   9.528  1.2556  2.2305 -3.0549
 2804THY    HM370098   5.667   5.160   9.656 -0.1378 -0.2732  0.0312
 2804THY    CA670099   5.506   5.350   9.562  0.2941 -0.7262 -0.3578
 2804THY    HA670100   5.529   5.362   9.667  1.9348 -1.4944 -0.5903
 2805THY      O70101   0.463   9.924   6.505 -0.0995 -0.0756 -0.1135
 2805THY     HO70102   0.470   9.960   6.595 -0.4171 -1.1732  0.3655
 2805THY    CA170103   0.566   9.976   6.440  0.0017  0.2062  0.4029
 2805THY    CA270104   0.593   9.943   6.303  0.0119 -0.3923 -0.0298
 2805THY    CP170105   0.502   9.851   6.220  0.7494  0.2852 -0.8885
 2805THY    HP170106   0.474   9.774   6.294  1.7542 -0.6211 -1.4177
 2805THY    CP270107   0.376   9.930   6.160  0.0731  0.0623 -0.0614
 2805THY    HP270108   0.287   9.869   6.136 -0.3046  0.4905  0.2213
 2805THY    HP370109   0.344  10.009   6.230  0.1740  0.5281 -0.5387
 2805THY    HP470110   0.400   9.987   6.070  0.3638 -0.7118 -0.4789
 2805THY    CP370111   0.570   9.778   6.103 -0.1908  0.2464 -0.1986
 2805THY    HP570112   0.660   9.722   6.128 -1.0509 -1.6051 -1.0612
 2805THY    HP670113   0.500   9.705   6.061 -1.1836  2.4546 -2.7391
 2805THY    HP770114   0.606   9.842   6.022  1.3892  0.2071  0.4423
 2805THY    CA370115   0.701  10.011   6.239 -0.2159  0.7296 -0.1459
 2805THY    HA370116   0.725  10.002   6.134 -1.4196  3.7482 -0.7855
 2805THY    CA470117   0.789  10.097   6.308  0.5434 -0.7646 -0.5115
 2805THY    HA470118   0.874  10.140   6.255  0.0537  0.7103 -0.1417
 2805THY    CA570119   0.766  10.120   6.448  0.5527 -0.6617 -0.2104
 2805THY    CM170120   0.859  10.202   6.528  0.5917  0.1416 -0.3978
 2805THY    HM170121   0.930  10.257   6.465 -0.2052 -0.2568 -1.6867
 2805THY    HM270122   0.798  10.265   6.593 -0.5654 -1.6510  0.3083
 2805THY    HM370123   0.920  10.141   6.595 -1.7919 -0.3616  1.4405
 2805THY    CA670124   0.654  10.058   6.511 -0.9214 -0.7654 -1.1034
 2805THY    HA670125   0.648  10.060   6.619 -0.6059 -0.2952 -1.0918
 2806THY      O70126   3.856   0.448   3.264  0.5484 -0.0002 -0.1027
 2806THY     HO70127   3.873   0.393   3.342  1.2802 -1.6076 -1.3166
 2806THY    CA170128   3.740   0.400   3.211  0.0139 -0.5502  0.1303
 2806THY    CA270129   3.635   0.484   3.149  0.6799 -0.5272  0.6456
 2806THY    CP170130   3.657   0.638   3.145 -0.7362 -0.1372 -0.3526
 2806THY    HP170131   3.762   0.648   3.175 -0.1987 -3.2320 -0.8223
 2806THY    CP270132   3.642   0.697   3.005  0.1441  0.2920 -0.8718
 2806THY    HP270133   3.543   0.706   2.958 -1.1408  1.2134  1.7891
 2806THY    HP370134   3.698   0.791   2.999 -2.8428  2.4324  1.6092
 2806THY    HP470135   3.690   0.628   2.935  0.6075 -0.6864  0.3798
 2806THY    CP370136   3.569   0.709   3.258  0.0372 -0.1644 -0.0338
 2806THY    HP570137   3.594   0.677   3.360 -1.5545  2.8134  1.4223
 2806THY    HP670138   3.576   0.818   3.256 -0.4290 -0.0244 -4.5312
 2806THY    HP770139   3.466   0.681   3.233 -0.1555 -1.9711  2.4348
 2806THY    CA370140   3.520   0.425   3.097 -0.2834 -0.8157 -0.2735
 2806THY    HA370141   3.437   0.485   3.060 -1.7414 -0.5085  3.1281
 2806THY    CA470142   3.517   0.281   3.105  0.1688  0.2364  0.1132
 2806THY    HA470143   3.429   0.230   3.070 -0.0304 -0.3618  1.4188
 2806THY    CA570144   3.621   0.208   3.157 -0.1513  0.0151 -1.0417
 2806THY    CM170145   3.606   0.060   3.174  0.2119 -0.3608 -0.0867
 2806THY    HM170146   3.525   0.027   3.109  0.2279 -2.0709  0.7224
 2806THY    HM270147   3.702   0.014   3.147  0.1186 -1.5883  1.5423
 2806THY    HM370148   3.587   0.035   3.279 -2.9341 -2.2156 -0.9864
 2806THY    CA670149   3.729   0.262   3.219  0.2271  0.3335  0.1366
 2806THY    HA670150   3.801   0.197   3.268 -1.8931 -0.5523  2.2782
 2807THY      O70151   0.831   3.173   8.770 -0.1428 -0.3429 -0.2499
 2807THY     HO70152   0.881   3.091   8.781  1.4743  0.8184  1.8081
 2807THY    CA170153   0.855   3.200   8.636 -0.2375  0.2979 -0.0206
 2807THY    CA270154   0.814   3.113   8.540  0.1913  0.4530  0.5368
 2807THY    CP170155   0.732   2.982   8.573 -0.6570 -0.6060 -0.1089
 2807THY    HP170156   0.718   2.963   8.680  2.5215 -0.8164  0.3776
 2807THY    CP270157   0.583   2.991   8.532 -0.4815  0.6419 -0.0988
 2807THY    HP270158   0.549   3.092   8.559  1.7088  1.8851 -1.7002
 2807THY    HP370159   0.569   2.981   8.424 -0.4742 -0.4137 -0.0094
 2807THY    HP470160   0.532   2.920   8.597 -1.9392  1.7481  0.0244
 2807THY    CP370161   0.810   2.861   8.526 -0.4257 -0.3166  0.5593
 2807THY    HP570162   0.830   2.848   8.419  1.3841  0.7823  0.7189
 2807THY    HP670163   0.905   2.859   8.581 -1.1535 -0.5276  1.8458
 2807THY    HP770164   0.767   2.774   8.579  1.5201 -1.4875  0.3036
 2807THY    CA370165   0.845   3.139   8.401 -0.1894  0.4991  0.2147
 2807THY    HA370166   0.840   3.064   8.322  3.3092 -1.5089  1.6855
 2807THY    CA470167   0.913   3.256   8.371 -0.1363 -0.2749  0.1661
 2807THY    HA470168   0.947   3.270   8.269  0.7541 -0.3230  0.4420
 2807THY    CA570169   0.935   3.354   8.469 -0.1708 -0.4480  0.6853
 2807THY    CM170170   0.991   3.484   8.427 -0.6975  0.2904 -0.3694
 2807THY    HM170171   0.946   3.506   8.329  0.5309 -1.6801 -1.4370
 2807THY    HM270172   0.956   3.560   8.498 -0.3484 -0.1261  0.2574
 2807THY    HM370173   1.100   3.484   8.428 -0.7028  0.0713  0.4998
 2807THY    CA670174   0.910   3.323   8.601 -0.0502  0.4814  0.5586
 2807THY    HA670175   0.916   3.399   8.679 -0.9179 -0.1629  1.2731
 2808THY      O70176   2.622   0.701   2.289  0.1702  0.7695  0.2472
 2808THY     HO70177   2.666   0.615   2.283 -1.1534  0.1641 -3.7920
 2808THY    CA170178   2.645   0.761   2.408 -0.1693  0.2218 -0.5942
 2808THY    CA270179   2.610   0.889   2.433  0.4954  0.1764 -0.6546
 2808THY    CP170180   2.558   0.989   2.327  0.1513  0.0498 -0.3908
 2808THY    HP170181   2.566   0.940   2.229 -0.9757  1.8961 -1.4814
 2808THY    CP270182   2.411   1.020   2.349 -0.0442  0.2292  0.2208
 2808THY    HP270183   2.366   1.073   2.264 -0.8826  0.8389  1.0267
 2808THY    HP370184   2.346   0.934   2.372  1.3941 -0.4117  2.1366
 2808THY    HP470185   2.410   1.082   2.439  1.1141  0.7713 -0.1237
 2808THY    CP370186   2.641   1.110   2.307 -0.4136 -0.4812 -0.6522
 2808THY    HP570187   2.738   1.082   2.263  0.7594 -0.5246  1.8311
 2808THY    HP670188   2.584   1.178   2.242 -3.8285 -0.7126  1.8349
 2808THY    HP770189   2.662   1.159   2.403 -0.7115  0.4352 -1.0344
 2808THY    CA370190   2.628   0.939   2.564 -0.7397 -0.4810  0.4869
 2808THY    HA370191   2.610   1.041   2.596  1.8251  0.1229  0.2202
 2808THY    CA470192   2.679   0.856   2.669 -0.1870  0.9302 -0.0214
 2808THY    HA470193   2.701   0.895   2.768 -0.5218 -0.9678  0.8418
 2808THY    CA570194   2.717   0.730   2.637 -0.5193 -0.0016  0.0883
 2808THY    CM170195   2.781   0.642   2.735 -0.5927  0.0946  0.1554
 2808THY    HM170196   2.753   0.537   2.720  0.6536 -0.2845  0.4262
 2808THY    HM270197   2.890   0.648   2.723 -0.4449 -1.3269  0.6152
 2808THY    HM370198   2.761   0.677   2.837 -0.4206  0.9979 -0.1104
 2808THY    CA670199   2.698   0.681   2.511 -0.6842 -0.3326 -0.1448
 2808THY    HA670200   2.725   0.580   2.484  0.7298  0.3062 -1.2744
 2809THY      O70201   6.284   0.737   2.347  0.1010 -0.2443  0.3318
 2809THY     HO70202   6.220   0.701   2.411 -1.6737  1.5842 -0.3176
 2809THY    CA170203   6.216   0.849   2.310 -0.1435 -0.5779  0.1644
 2809THY    CA270204   6.284   0.971   2.265 -0.8497  0.4739  0.4228
 2809THY    CP170205   6.444   0.967   2.268 -0.5147  0.3681 -0.7427
 2809THY    HP170206   6.484   0.868   2.292 -0.0808  0.3847 -1.3864
 2809THY    CP270207   6.501   0.997   2.127 -0.5801 -0.0233  0.0914
 2809THY    HP270208   6.604   1.034   2.126  0.0245 -1.5921 -1.4563
 2809THY    HP370209   6.488   0.914   2.056  1.7790 -1.1391  0.8331
 2809THY    HP470210   6.452   1.082   2.080  3.0508  1.8676 -0.6411
 2809THY    CP370211   6.507   1.068   2.361 -0.6056 -0.4556 -0.1237
 2809THY    HP570212   6.476   1.169   2.331  1.2682 -0.7018 -3.2893
 2809THY    HP670213   6.490   1.046   2.467  0.7365 -1.6453 -0.1334
 2809THY    HP770214   6.614   1.049   2.354 -0.6317 -0.3559 -0.8638
 2809THY    CA370215   6.214   1.077   2.228 -0.3543 -0.1175 -1.1002
 2809THY    HA370216   6.262   1.169   2.197 -1.4801  1.4187  1.3917
 2809THY    CA470217   6.080   1.085   2.258 -0.2386  0.3668  0.1033
 2809THY    HA470218   6.030   1.181   2.249 -0.9737  0.2020  1.8713
 2809THY    CA570219   6.011   0.970   2.298  0.3656 -0.4724 -0.2823
 2809THY    CM170220   5.868   0.987   2.340  0.0045  0.3956  0.2503
 2809THY    HM170221   5.854   0.957   2.444 -4.1451  2.6982  0.5798
 2809THY    HM270222   5.844   1.094   2.334  0.5620  0.5955  1.3200
 2809THY    HM370223   5.794   0.932   2.282 -1.5440  2.9912 -0.4131
 2809THY    CA670224   6.076   0.848   2.314 -0.6704 -0.2283  0.0988
 2809THY    HA670225   6.031   0.756   2.348 -0.2072 -0.7171 -0.5924
 2810THY      O70226   3.074   5.291   2.477  0.0025  0.0687  0.5989
 2810THY     HO70227   3.066   5.199   2.508  1.3115 -0.2051  0.1777
 2810THY    CA170228   3.176   5.354   2.544 -0.3122  0.9416  0.5969
 2810THY    CA270229   3.203   5.492   2.541  0.1090 -0.6004  0.2633
 2810THY    CP170230   3.114   5.576   2.456  0.0232 -0.3697  0.4730
 2810THY    HP170231   3.018   5.527   2.478  0.7808 -2.7347 -1.1506
 2810THY    CP270232   3.104   5.728   2.494 -0.0658  0.4885 -0.2539
 2810THY    HP270233   3.026   5.769   2.428  1.6878  2.8675 -0.9943
 2810THY    HP370234   3.081   5.753   2.598  0.9115 -0.0201  0.0955
 2810THY    HP470235   3.197   5.780   2.467  0.5014  0.2283  1.1317
 2810THY    CP370236   3.134   5.569   2.305 -0.6771  0.6345  0.1658
 2810THY    HP570237   3.097   5.474   2.264 -1.2897  0.8332  0.2539
 2810THY    HP670238   3.104   5.660   2.252 -2.8514  0.0767  0.3347
 2810THY    HP770239   3.243   5.570   2.293 -0.7672 -0.9765 -1.1773
 2810THY    CA370240   3.309   5.545   2.617  0.0650  0.4889 -0.6959
 2810THY    HA370241   3.321   5.653   2.618 -2.8467  0.8953  0.8378
 2810THY    CA470242   3.394   5.459   2.687  0.4590 -0.3083 -0.1566
 2810THY    HA470243   3.478   5.500   2.742  0.3637  2.1220 -1.6383
 2810THY    CA570244   3.375   5.325   2.688  0.6545  0.2226  0.6150
 2810THY    CM170245   3.460   5.233   2.773 -0.5326 -0.4341  0.6947
 2810THY    HM170246   3.496   5.284   2.863 -0.7657  2.1813 -0.6149
 2810THY    HM270247   3.402   5.145   2.803 -0.5270 -2.3027 -3.8690
 2810THY    HM370248   3.546   5.195   2.717 -1.2358 -3.6471  1.5917
 2810THY    CA670249   3.259   5.274   2.621 -0.5976  0.6172 -0.0655
 2810THY    HA670250   3.234   5.168   2.627 -0.4742  0.5918 -0.0057
 2811THY      O70251   9.679   1.096   9.177  0.1805  0.6408 -0.2962
 2811THY     HO70252   9.683   1.189   9.149  2.0194  0.3020 -1.3534
 2811THY    CA170253   9.733   1.094   9.298  0.3779  0.3681 -0.0920
 2811THY    CA270254   9.727   0.982   9.385 -0.2807 -0.0024  1.0199
 2811THY    CP170255   9.660   0.857   9.341 -0.4891 -0.3574  0.4099
 2811THY    HP170256   9.586   0.882   9.264 -1.4915 -1.8610  0.8396
 2811THY    CP270257   9.766   0.762   9.276 -0.3723 -0.3987 -0.0456
 2811THY    HP270258   9.835   0.724   9.352  0.5935  0.2758 -0.5692
 2811THY    HP370259   9.714   0.673   9.239  0.5399 -0.6413 -0.7689
 2811THY    HP470260   9.807   0.799   9.181 -0.2647 -1.3980 -0.3982
 2811THY    CP370261   9.581   0.780   9.454  0.1749  0.4439 -0.6329
 2811THY    HP570262   9.640   0.724   9.527  0.1822  1.5972  0.2683
 2811THY    HP670263   9.512   0.844   9.511 -0.8949  0.3450 -1.7567
 2811THY    HP770264   9.518   0.715   9.391  0.2296  1.1289 -1.4128
 2811THY    CA370265   9.773   0.998   9.518  0.0412  0.7702 -0.1340
 2811THY    HA370266   9.769   0.912   9.585 -2.9650  0.2076 -0.8904
 2811THY    CA470267   9.826   1.113   9.557  0.0406 -0.3361 -0.9469
 2811THY    HA470268   9.873   1.118   9.655  0.3776 -2.3359 -0.9683
 2811THY    CA570269   9.832   1.227   9.471 -0.2932  0.5211 -0.2617
 2811THY    CM170270   9.880   1.363   9.535 -0.2923  0.4767  0.0926
 2811THY    HM170271   9.838   1.378   9.636  1.0026  0.5757  0.6334
 2811THY    HM270272   9.988   1.350   9.547 -0.4233 -0.8947 -0.0653
 2811THY    HM370273   9.854   1.450   9.474  0.4653  0.7918  0.2056
 2811THY    CA670274   9.772   1.218   9.348  0.0285  0.9591  0.1196
 2811THY    HA670275   9.779   1.302   9.280 -0.0296 -0.1484 -1.3058
 2812THY      O70276   8.903   5.615   1.734  0.2528  0.5864 -0.3659
 2812THY     HO70277   8.814   5.592   1.703 -0.3091  0.1430  1.4861
 2812THY    CA170278   8.908   5.559   1.851 -0.4460 -0.0526 -0.0882
 2812THY    CA270279   9.000   5.589   1.951 -0.3032 -1.5470  0.2642
 2812THY    CP170280   9.109   5.690   1.931  0.2219  0.8168 -0.6159
 2812THY    HP170281   9.125   5.702   1.823 -0.1246  1.9612 -0.5601
 2812THY    CP270282   9.073   5.826   1.983 -0.6554 -0.0677 -0.4155
 2812THY    HP270283   9.163   5.887   1.997 -1.5640  1.1757  0.1646
 2812THY    HP370284   9.009   5.884   1.915 -0.8338  2.3278  1.6672
 2812THY    HP470285   9.038   5.821   2.086 -0.2763 -0.7061 -0.3124
 2812THY    CP370286   9.237   5.635   2.000 -0.1315  0.0991  0.2577
 2812THY    HP570287   9.270   5.689   2.090 -1.0770  1.1012  0.0281
 2812THY    HP670288   9.240   5.527   2.015  0.9064 -0.0181 -0.6554
 2812THY    HP770289   9.310   5.654   1.920  0.1538 -2.8117 -0.2781
 2812THY    CA370290   8.981   5.527   2.075  0.3876  0.0969 -0.1661
 2812THY    HA370291   9.035   5.557   2.165  0.1485  0.8053 -0.2553
 2812THY    CA470292   8.890   5.421   2.092 -0.2741 -0.1869 -0.2471
 2812THY    HA470293   8.878   5.382   2.193 -0.3296 -1.2970 -0.6728
 2812THY    CA570294   8.811   5.381   1.985  0.3938 -0.4419 -0.5281
 2812THY    CM170295   8.692   5.281   1.998 -0.4094  0.4563 -0.7632
 2812THY    HM170296   8.644   5.322   2.088  1.5472  0.2451  0.4468
 2812THY    HM270297   8.616   5.286   1.919 -1.7870  0.5201  0.5112
 2812THY    HM370298   8.709   5.176   2.022  0.3589  0.8872  0.7186
 2812THY    CA670299   8.824   5.450   1.865 -0.1347 -0.0577  0.5837
 2812THY    HA670300   8.755   5.422   1.786 -0.0635 -1.0152  0.8408
 2813THY      O70301   1.496   7.650   5.776 -0.5522  0.5309  0.2834
 2813THY     HO70302   1.460   7.608   5.696  0.1294  2.2794 -1.0232
 2813THY    CA170303   1.412   7.747   5.802  0.5466 -0.9623  0.2227
 2813THY    CA270304   1.429   7.821   5.918 -0.5405  0.1831 -0.2853
 2813THY    CP170305   1.542   7.787   6.009  0.0742 -0.6138 -0.3551
 2813THY    HP170306   1.625   7.766   5.941 -0.0989  0.4573 -0.9138
 2813THY    CP270307   1.603   7.903   6.088  0.5069 -0.3331 -0.4028
 2813THY    HP270308   1.546   7.932   6.177  1.4005 -0.3001  0.1722
 2813THY    HP370309   1.705   7.892   6.128  0.8728  1.8196 -0.6025
 2813THY    HP470310   1.607   7.987   6.017  0.2589 -0.6389 -0.7843
 2813THY    CP370311   1.502   7.684   6.109 -0.2948 -0.1954 -0.1834
 2813THY    HP570312   1.583   7.661   6.178  1.0380  0.8233 -1.3532
 2813THY    HP670313   1.420   7.726   6.169  2.7170  1.2893  3.2087
 2813THY    HP770314   1.474   7.589   6.061  0.4194  0.5679 -2.2307
 2813THY    CA370315   1.330   7.914   5.943 -0.0315 -0.7978 -0.2997
 2813THY    HA370316   1.336   7.985   6.026 -0.5952  0.6945 -1.4816
 2813THY    CA470317   1.224   7.943   5.852  1.0500  0.4400 -0.6927
 2813THY    HA470318   1.166   8.033   5.868 -0.5304 -0.8274  1.1827
 2813THY    CA570319   1.221   7.878   5.733  0.2081  0.0522 -0.1026
 2813THY    CM170320   1.102   7.901   5.650 -1.1452 -0.4435  0.2246
 2813THY    HM170321   1.077   8.007   5.666 -0.5661 -0.1694 -0.6406
 2813THY    HM270322   1.119   7.877   5.545  2.0172 -1.6621  0.8995
 2813THY    HM370323   1.020   7.842   5.692 -2.9210  1.2598 -0.7245
 2813THY    CA670324   1.303   7.767   5.714 -0.0569 -0.0809 -0.2664
 2813THY    HA670325   1.300   7.725   5.614  0.9933 -1.0990  0.1075
 2814THY      O70326   5.206   7.643   3.268  0.2480  0.2269 -0.0683
 2814THY     HO70327   5.279   7.593   3.307  0.3651  1.1322  0.9224
 2814THY    CA170328   5.174   7.572   3.161 -0.1274  0.5269 -0.0320
 2814THY    CA270329   5.043   7.597   3.102 -0.2800  0.3355 -0.0001
 2814THY    CP170330   4.947   7.710   3.143 -0.7415 -0.4457  0.6411
 2814THY    HP170331   4.998   7.782   3.208  0.3047 -1.4518  0.9754
 2814THY    CP270332   4.907   7.798   3.027  0.2833  0.4696 -0.5249
 2814THY    HP270333   4.840   7.879   3.062 -0.2364 -0.2992  0.3171
 2814THY    HP370334   5.000   7.828   2.979  1.2498  0.2077  1.1291
 2814THY    HP470335   4.851   7.738   2.955 -0.2754  2.4009 -1.8028
 2814THY    CP370336   4.831   7.646   3.219 -0.5639  0.2743  0.2088
 2814THY    HP570337   4.787   7.557   3.172 -2.2996 -0.0415  2.2488
 2814THY    HP670338   4.867   7.621   3.320  0.8034  0.7493 -0.1328
 2814THY    HP770339   4.747   7.715   3.231 -1.2554 -0.7211  1.4547
 2814THY    CA370340   5.006   7.502   3.005  0.1145  0.1047 -0.2000
 2814THY    HA370341   4.911   7.509   2.951  0.2596 -0.8140 -0.5924
 2814THY    CA470342   5.085   7.395   2.961 -0.6126  0.5707 -0.4077
 2814THY    HA470343   5.047   7.329   2.883 -0.5430  0.7431 -0.5875
 2814THY    CA570344   5.211   7.380   3.017 -0.7291  0.0579 -0.6340
 2814THY    CM170345   5.298   7.259   3.000 -0.2173  0.0914 -0.2180
 2814THY    HM170346   5.390   7.285   2.946  1.9525 -1.6973  2.3204
 2814THY    HM270347   5.335   7.230   3.099  1.1895 -0.5221 -0.8935
 2814THY    HM370348   5.247   7.176   2.949  0.3613 -0.1001 -0.4941
 2814THY    CA670349   5.254   7.467   3.114  0.1071  0.2201 -0.2758
 2814THY    HA670350   5.352   7.442   3.154  1.5066 -0.3283 -3.6664
 2815THY      O70351   4.245   3.961   1.027 -0.1551 -0.1276  0.5679
 2815THY     HO70352   4.249   3.864   1.036 -0.6707 -0.2352 -0.2614
 2815THY    CA170353   4.107   3.978   1.053  0.1090  0.0254 -0.4951
 2815THY    CA270354   4.038   4.101   1.026 -0.4218  0.8049  0.5168
 2815THY    CP170355   4.115   4.203   0.951  0.2100  0.0252 -0.4435
 2815THY    HP170356   4.220   4.173   0.947 -0.6002 -3.1465 -0.3292
 2815THY    CP270357   4.075   4.206   0.807  0.3296  0.7787  0.3752
 2815THY    HP270358   4.152   4.255   0.745 -0.5938  0.6168 -0.9446
 2815THY    HP370359   4.070   4.102   0.772  2.6409  1.0354 -0.9662
 2815THY    HP470360   3.983   4.260   0.782  0.6121  0.7029 -0.9180
 2815THY    CP370361   4.104   4.343   1.004  0.3128  0.2058  0.1368
 2815THY    HP570362   4.152   4.422   0.944  0.4591  0.5749  0.7304
 2815THY    HP670363   3.999   4.374   1.011  0.3615  1.3693 -2.8867
 2815THY    HP770364   4.155   4.344   1.101  1.9298 -1.9436 -0.6166
 2815THY    CA370365   3.915   4.116   1.078  0.5245  0.2866 -0.5401
 2815THY    HA370366   3.861   4.210   1.069  1.5054  0.9696  0.4723
 2815THY    CA470367   3.855   4.007   1.133  0.4844 -0.4950 -0.4570
 2815THY    HA470368   3.755   4.016   1.175  0.2917  0.2156 -1.0429
 2815THY    CA570369   3.912   3.882   1.147  0.1392  0.0481 -0.7581
 2815THY    CM170370   3.845   3.773   1.223  0.2997  0.3502  0.4091
 2815THY    HM170371   3.843   3.679   1.166 -0.1307  0.2858  0.5304
 2815THY    HM270372   3.896   3.739   1.314 -0.8786  0.8759  1.2930
 2815THY    HM370373   3.744   3.803   1.253  0.4083  2.0333 -0.7415
 2815THY    CA670374   4.050   3.872   1.116  0.9820  0.0699  0.7187
 2815THY    HA670375   4.110   3.783   1.137  1.0749 -0.3656 -1.1893
 2816THY      O70376   0.676   9.903   8.414 -0.1081  0.0310  0.0803
 2816THY     HO70377   0.586   9.883   8.383 -0.2441  2.1467 -1.1065
 2816THY    CA170378   0.754   9.828   8.334  1.0482 -0.7149  0.7482
 2816THY    CA270379   0.885   9.807   8.374 -0.8967  0.2042  0.5031
 2816THY    CP170380   0.944   9.886   8.497 -0.8373 -0.4071  0.6814
 2816THY    HP170381   0.873   9.962   8.532 -2.7432 -0.6027 -2.3414
 2816THY    CP270382   0.986   9.793   8.608 -0.7484 -0.7584 -0.7652
 2816THY    HP270383   0.903   9.723   8.627  0.4402 -2.1902 -0.6598
 2816THY    HP370384   1.069   9.726   8.586 -0.0701  0.4055 -1.8470
 2816THY    HP470385   0.991   9.852   8.700 -0.2056  0.0353 -1.2971
 2816THY    CP370386   1.076   9.967   8.451  0.1225  0.0703 -0.2294
 2816THY    HP570387   1.143   9.894   8.403 -1.5248 -0.0717 -2.4765
 2816THY    HP670388   1.038  10.031   8.370 -1.6724  1.5235  1.6603
 2816THY    HP770389   1.119  10.029   8.531  1.9399 -1.6882  0.2383
 2816THY    CA370390   0.965   9.713   8.302 -0.4839 -0.3498  0.1478
 2816THY    HA370391   1.070   9.696   8.322  0.1097  1.2197 -1.3498
 2816THY    CA470392   0.905   9.638   8.194 -0.3002 -1.1428  0.2351
 2816THY    HA470393   0.967   9.567   8.140 -0.0090 -0.1082 -0.8275
 2816THY    CA570394   0.771   9.658   8.159  0.2595  0.1719 -0.6056
 2816THY    CM170395   0.700   9.575   8.056 -0.0028 -0.0402  0.3508
 2816THY    HM170396   0.751   9.597   7.962  0.3396  0.9453  0.7534
 2816THY    HM270397   0.706   9.468   8.080  2.3031  0.4629  2.4660
 2816THY    HM370398   0.592   9.590   8.044 -0.1054 -0.6531  0.4280
 2816THY    CA670399   0.697   9.760   8.223 -0.5638  0.1302 -0.8189
 2816THY    HA670400   0.593   9.789   8.212 -0.6257  1.2952  2.0117
 2817THY      O70401   7.555   2.799   8.735 -0.1359 -0.0382 -0.1829
 2817THY     HO70402   7.637   2.817   8.784 -1.1184  1.5400  1.0034
 2817THY    CA170403   7.564   2.674   8.702 -0.1595  0.1592 -0.0312
 2817THY    CA270404   7.501   2.626   8.586 -0.2466 -0.4403  0.3433
 2817THY    CP170405   7.432   2.727   8.488  0.3830 -0.4247  0.3047
 2817THY    HP170406   7.410   2.827   8.527  0.7104 -0.0720 -0.3780
 2817THY    CP270407   7.528   2.758   8.378 -0.1955 -0.1618  0.4680
 2817THY    HP270408   7.489   2.844   8.323 -0.1323  0.3385  1.1870
 2817THY    HP370409   7.630   2.777   8.414  0.3536 -1.1311 -0.5276
 2817THY    HP470410   7.533   2.676   8.306 -0.9291 -0.6895  1.0034
 2817THY    CP370411   7.293   2.697   8.451  0.4262  0.5460  0.2842
 2817THY    HP570412   7.278   2.588   8.447 -0.2638  0.6402  0.1151
 2817THY    HP670413   7.225   2.725   8.533  1.4444  0.4937  1.1644
 2817THY    HP770414   7.259   2.754   8.364  0.6394  2.3418  1.3203
 2817THY    CA370415   7.516   2.492   8.549 -0.7052 -0.3828  0.5911
 2817THY    HA370416   7.466   2.458   8.459 -1.8087  1.9723  0.2443
 2817THY    CA470417   7.596   2.406   8.630 -0.2042 -0.3097 -0.1584
 2817THY    HA470418   7.610   2.304   8.596 -1.3447 -0.2531 -0.8277
 2817THY    CA570419   7.657   2.453   8.750  0.1045 -0.4728  0.4996
 2817THY    CM170420   7.745   2.360   8.830  0.0770 -0.3994 -0.4079
 2817THY    HM170421   7.691   2.317   8.915  2.8730 -1.3727  0.9911
 2817THY    HM270422   7.779   2.278   8.765 -0.0638 -1.7904  1.1903
 2817THY    HM370423   7.830   2.415   8.870 -0.0550  0.4587 -1.2658
 2817THY    CA670424   7.643   2.589   8.784 -0.5530  0.3951 -0.4750
 2817THY    HA670425   7.677   2.621   8.882 -0.1739  0.1844 -0.5385
 2818THY      O70426   8.335   7.183   2.637 -0.6870 -0.0746 -0.5074
 2818THY     HO70427   8.255   7.128   2.634 -1.4039  0.9605 -2.4855
 2818THY    CA170428   8.400   7.161   2.765  0.4536 -0.2588  0.4345
 2818THY    CA270429   8.543   7.154   2.774 -0.0830  0.5498 -0.4054
 2818THY    CP170430   8.647   7.167   2.666 -0.1590 -0.7417  0.4623
 2818THY    HP170431   8.606   7.230   2.586 -0.6257  0.5032  1.6323
 2818THY    CP270432   8.784   7.231   2.706 -0.1555  0.8960 -0.4366
 2818THY    HP270433   8.849   7.153   2.746  0.8668  0.9147 -1.9961
 2818THY    HP370434   8.836   7.265   2.616  1.2092 -3.2544 -1.4288
 2818THY    HP470435   8.770   7.301   2.790 -0.8410 -0.9327  1.0452
 2818THY    CP370436   8.662   7.030   2.603 -0.5608 -0.6060  0.0621
 2818THY    HP570437   8.679   6.952   2.679  2.0752  3.0756  3.7159
 2818THY    HP670438   8.567   7.013   2.552  0.1435 -0.9473 -1.1875
 2818THY    HP770439   8.749   7.018   2.538 -0.8533 -0.8277 -0.2925
 2818THY    CA370440   8.593   7.115   2.908  0.0744  0.2448  0.0575
 2818THY    HA370441   8.698   7.093   2.924  0.1325 -2.2649 -2.8862
 2818THY    CA470442   8.511   7.114   3.014  0.7016  0.0681  0.3111
 2818THY    HA470443   8.553   7.093   3.113 -0.5916  1.2655  1.1483
 2818THY    CA570444   8.368   7.143   3.003  0.4162 -0.0699 -0.3781
 2818THY    CM170445   8.276   7.150   3.112 -0.1855 -0.5198  0.4768
 2818THY    HM170446   8.218   7.243   3.102 -0.9516 -0.9915  0.4417
 2818THY    HM270447   8.203   7.069   3.117 -0.8267  0.0850  1.3742
 2818THY    HM370448   8.320   7.147   3.212 -0.4188 -0.0832  0.5960
 2818THY    CA670449   8.316   7.159   2.876  0.2589 -0.0572 -0.0235
 2818THY    HA670450   8.210   7.161   2.856 -0.2552  1.6058  2.4598
 2819THY      O70451   8.184   1.482   7.796  0.0467  0.4409  0.2911
 2819THY     HO70452   8.149   1.566   7.829 -0.1784  0.1681  0.7492
 2819THY    CA170453   8.218   1.520   7.669 -0.0210  0.1894 -1.0630
 2819THY    CA270454   8.261   1.436   7.568  0.0034  0.8414  0.2297
 2819THY    CP170455   8.291   1.283   7.600  0.3604 -0.6477 -0.4206
 2819THY    HP170456   8.285   1.267   7.708  3.4131 -0.0105 -0.0525
 2819THY    CP270457   8.185   1.194   7.526  0.3115  0.1498  0.2973
 2819THY    HP270458   8.204   1.088   7.549  0.1845  0.1632  0.4673
 2819THY    HP370459   8.086   1.215   7.568 -0.1662  0.2117 -0.8373
 2819THY    HP470460   8.174   1.211   7.419 -0.4675  2.3779  0.6879
 2819THY    CP370461   8.435   1.245   7.560  0.3940 -0.2262  0.5904
 2819THY    HP570462   8.447   1.137   7.547  0.3650 -0.1847  0.2140
 2819THY    HP670463   8.470   1.292   7.468  1.9742  1.8406  2.1365
 2819THY    HP770464   8.496   1.286   7.641 -1.1702  1.9602  0.7474
 2819THY    CA370465   8.287   1.490   7.448 -0.0479 -0.8099  0.3470
 2819THY    HA370466   8.334   1.432   7.370  1.0427  1.7409 -1.0173
 2819THY    CA470467   8.277   1.635   7.428  0.6298  0.1663 -0.0720
 2819THY    HA470468   8.301   1.682   7.334  0.5601  0.7731  0.2110
 2819THY    CA570469   8.246   1.719   7.537 -0.2950  0.3938  0.1338
 2819THY    CM170470   8.253   1.857   7.514 -0.7740 -0.1415 -0.1179
 2819THY    HM170471   8.360   1.884   7.506 -1.1809  0.9149 -2.9653
 2819THY    HM270472   8.216   1.884   7.415  2.5639  0.7018 -1.3001
 2819THY    HM370473   8.207   1.923   7.589  0.4369  2.4313 -1.4827
 2819THY    CA670474   8.207   1.658   7.653 -0.2935 -0.4953  0.1417
 2819THY    HA670475   8.167   1.719   7.733  1.8696  0.0574  0.8915
 2820THY      O70476   7.349   7.271   2.649 -0.0362 -0.5864  0.3309
 2820THY     HO70477   7.353   7.192   2.592 -1.7581  0.3232 -1.1715
 2820THY    CA170478   7.384   7.217   2.773 -0.3662 -0.2208 -0.1248
 2820THY    CA270479   7.438   7.301   2.875  0.4222  0.0479 -0.3288
 2820THY    CP170480   7.455   7.454   2.844 -0.2339  0.2394  0.0570
 2820THY    HP170481   7.369   7.492   2.787 -1.5702  0.3400  2.0200
 2820THY    CP270482   7.435   7.524   2.981 -0.5371 -0.7298  0.6396
 2820THY    HP270483   7.402   7.627   2.964  0.7407 -0.3155  0.5426
 2820THY    HP370484   7.357   7.483   3.045 -1.9883 -1.6525 -1.6161
 2820THY    HP470485   7.534   7.536   3.027  1.3242  0.4250 -3.2331
 2820THY    CP370486   7.592   7.493   2.780  0.4685 -1.0783  0.0398
 2820THY    HP570487   7.625   7.591   2.816  1.5929 -2.0224  1.6515
 2820THY    HP670488   7.661   7.411   2.801 -0.6996 -1.7921  1.2596
 2820THY    HP770489   7.565   7.491   2.673  1.6680 -2.4455 -0.2624
 2820THY    CA370490   7.476   7.241   2.999  1.0129  0.2655 -0.8974
 2820THY    HA370491   7.538   7.289   3.074 -0.6949 -0.8815  1.4026
 2820THY    CA470492   7.449   7.107   3.026  0.6734  0.0615 -0.0620
 2820THY    HA470493   7.464   7.059   3.122 -1.4968 -0.4586  0.0845
 2820THY    CA570494   7.393   7.030   2.927 -0.2831 -0.4076 -0.1342
 2820THY    CM170495   7.365   6.889   2.951 -0.1949  0.1737 -0.3148
 2820THY    HM170496   7.290   6.885   3.032 -1.1587  0.8462 -1.1433
 2820THY    HM270497   7.319   6.843   2.863 -1.2480  2.9296 -1.3120
 2820THY    HM370498   7.461   6.839   2.964  0.9772  2.2375 -0.6449
 2820THY    CA670499   7.364   7.086   2.803  0.2761 -0.1891 -0.0392
 2820THY    HA670500   7.319   7.029   2.721  1.8293 -2.5269  0.6265
 2821THY      O70501   8.539   8.100   1.711 -0.1053 -1.0216 -0.2924
 2821THY     HO70502   8.599   8.074   1.638  0.7905  1.4507 -0.5289
 2821THY    CA170503   8.421   8.045   1.692 -0.1517 -0.5164 -0.9242
 2821THY    CA270504   8.310   8.090   1.765 -0.5097  0.5752 -0.5503
 2821THY    CP170505   8.319   8.214   1.847 -0.3153  0.0304  0.1356
 2821THY    HP170506   8.421   8.253   1.857 -0.6436  0.5743  1.6414
 2821THY    CP270507   8.232   8.321   1.778 -0.5927  0.0018 -0.4642
 2821THY    HP270508   8.261   8.414   1.827  2.7253 -2.6466  3.2731
 2821THY    HP370509   8.261   8.314   1.673 -3.0822 -2.1085 -1.1257
 2821THY    HP470510   8.123   8.311   1.776 -0.4622 -2.1692 -2.8845
 2821THY    CP370511   8.264   8.185   1.992 -0.3923 -0.1577  0.0092
 2821THY    HP570512   8.308   8.094   2.034  0.0971 -0.2301 -0.6518
 2821THY    HP670513   8.277   8.271   2.059 -0.6492 -0.4236  0.4061
 2821THY    HP770514   8.155   8.168   1.990 -0.8061  1.0708  3.4327
 2821THY    CA370515   8.184   8.040   1.733  0.0449  0.4553  0.9537
 2821THY    HA370516   8.091   8.059   1.786 -0.0738  2.0392  0.2141
 2821THY    CA470517   8.175   7.935   1.637 -0.1540 -0.0364 -0.5111
 2821THY    HA470518   8.079   7.895   1.606  0.2126 -2.2597  1.0301
 2821THY    CA570519   8.288   7.896   1.566  0.5620 -0.0414  0.2369
 2821THY    CM170520   8.274   7.801   1.456 -0.4699  0.1243  0.8166
 2821THY    HM170521   8.189   7.732   1.458 -0.6288  0.2106 -1.1390
 2821THY    HM270522   8.258   7.856   1.363  0.1300  0.3172  0.8211
 2821THY    HM370523   8.359   7.734   1.439 -1.8025 -1.0721 -1.7015
 2821THY    CA670524   8.413   7.953   1.596  0.8393 -0.0136  1.4277
 2821THY    HA670525   8.500   7.922   1.539 -0.5109 -0.9726 -0.2554
 2822THY      O70526   1.605   8.392   8.135  0.0935 -0.2687 -0.1995
 2822THY     HO70527   1.687   8.401   8.084  1.1157 -0.2347  1.3840
 2822THY    CA170528   1.525   8.306   8.065 -0.3859  0.1901  0.0396
 2822THY    CA270529   1.383   8.303   8.072 -0.1148 -0.5421  0.1147
 2822THY    CP170530   1.304   8.396   8.164  0.6207  0.4616  0.0091
 2822THY    HP170531   1.377   8.454   8.221  0.0331  0.9071  0.3133
 2822THY    CP270532   1.227   8.493   8.084  0.3257 -0.2062  0.1915
 2822THY    HP270533   1.299   8.550   8.025 -1.6351  1.9439 -0.2967
 2822THY    HP370534   1.150   8.446   8.020 -0.6685 -0.5062  1.5601
 2822THY    HP470535   1.165   8.563   8.142 -1.4791 -0.7769 -0.9508
 2822THY    CP370536   1.207   8.327   8.260  0.2477  0.2769  0.1743
 2822THY    HP570537   1.257   8.253   8.323  0.4238  0.0534 -0.2209
 2822THY    HP670538   1.159   8.405   8.319 -1.0640  1.8901 -2.8173
 2822THY    HP770539   1.131   8.271   8.204  2.9283 -2.0208 -1.4269
 2822THY    CA370540   1.312   8.213   7.993 -0.8682 -0.0094  0.2897
 2822THY    HA370541   1.204   8.202   8.000 -0.9219  0.2176 -0.1433
 2822THY    CA470542   1.374   8.128   7.905 -0.3773 -0.1324 -0.0344
 2822THY    HA470543   1.316   8.056   7.848 -0.3241 -0.0619 -0.1776
 2822THY    CA570544   1.513   8.140   7.893  0.6729 -0.0450 -0.0157
 2822THY    CM170545   1.589   8.036   7.819 -0.0989 -0.2159 -0.3045
 2822THY    HM170546   1.645   8.086   7.739  1.2148  1.8695  1.7871
 2822THY    HM270547   1.652   7.972   7.881 -0.3186 -2.6485 -2.4276
 2822THY    HM370548   1.524   7.959   7.775  0.0505 -2.0508  2.4346
 2822THY    CA670549   1.589   8.226   7.972 -0.0112 -0.6797 -0.4877
 2822THY    HA670550   1.697   8.232   7.964  0.2034  1.4196  2.4129
 2823THY      O70551   1.601   2.698   4.167  0.0121  0.1017  0.5562
 2823THY     HO70552   1.542   2.756   4.216 -1.5209 -1.5561  0.7858
 2823THY    CA170553   1.511   2.614   4.105  0.0977  0.4886 -0.2709
 2823THY    CA270554   1.545   2.542   3.987  0.0951 -0.7076 -0.0648
 2823THY    CP170555   1.689   2.550   3.935  0.2638 -0.3104  0.0565
 2823THY    HP170556   1.746   2.615   4.002  0.5605 -1.1654  0.6454
 2823THY    CP270557   1.767   2.421   3.941  0.1597  0.1041  0.6072
 2823THY    HP270558   1.784   2.395   4.046 -0.6347 -1.2399  0.4316
 2823THY    HP370559   1.709   2.346   3.886 -0.2422  1.9804 -1.6996
 2823THY    HP470560   1.867   2.428   3.895  0.0736 -2.6564 -0.1915
 2823THY    CP370561   1.696   2.604   3.785  0.1134  0.6211  0.6286
 2823THY    HP570562   1.788   2.657   3.758  0.0748  0.2542 -0.2549
 2823THY    HP670563   1.683   2.522   3.714 -3.3087  0.7160  0.9705
 2823THY    HP770564   1.612   2.670   3.760 -0.9883 -1.6680 -2.3288
 2823THY    CA370565   1.446   2.470   3.918 -0.0760 -0.3543 -0.2401
 2823THY    HA370566   1.462   2.416   3.825 -2.0350 -1.4884  0.0151
 2823THY    CA470567   1.312   2.472   3.965 -0.4705  1.1300 -0.3786
 2823THY    HA470568   1.232   2.422   3.911  1.3799 -0.9863 -1.2810
 2823THY    CA570569   1.279   2.546   4.077  0.0531  0.1567  0.3796
 2823THY    CM170570   1.135   2.562   4.125  1.0041  0.1389 -0.4621
 2823THY    HM170571   1.095   2.664   4.118 -0.1528 -0.1653  1.0293
 2823THY    HM270572   1.068   2.490   4.077  0.8330 -0.4626  0.6430
 2823THY    HM370573   1.142   2.537   4.231  1.4650  0.6965 -0.3544
 2823THY    CA670574   1.379   2.616   4.148  0.7590 -0.8675 -0.5811
 2823THY    HA670575   1.344   2.680   4.229  4.9557 -0.9017  1.5088
 2824THY      O70576   3.526   5.386   3.861  0.3151 -0.7382  0.5171
 2824THY     HO70577   3.516   5.298   3.821  1.7794 -0.7833  0.2063
 2824THY    CA170578   3.477   5.491   3.788  0.2371 -0.4337  0.1482
 2824THY    CA270579   3.395   5.596   3.847  0.8075 -0.0583  0.0486
 2824THY    CP170580   3.366   5.587   4.000  0.3062 -0.2722  0.2579
 2824THY    HP170581   3.395   5.490   4.041 -0.9307 -1.1059 -0.7637
 2824THY    CP270582   3.445   5.692   4.072  0.2892  0.4589  0.5557
 2824THY    HP270583   3.544   5.644   4.070 -0.6628 -1.6309 -2.2036
 2824THY    HP370584   3.445   5.793   4.030 -0.6799  0.1952 -0.1023
 2824THY    HP470585   3.410   5.706   4.175  0.0317  2.0221  0.2735
 2824THY    CP370586   3.220   5.602   4.023 -0.2061  0.4561 -0.2837
 2824THY    HP570587   3.190   5.707   4.010 -0.2205  0.1764 -2.9198
 2824THY    HP670588   3.160   5.537   3.958  0.0161  0.9273 -0.9657
 2824THY    HP770589   3.196   5.583   4.129 -1.1746  2.2776 -0.1267
 2824THY    CA370590   3.348   5.696   3.761  0.1221 -0.0878  0.3208
 2824THY    HA370591   3.283   5.770   3.806  0.7423  0.7287 -0.1079
 2824THY    CA470592   3.388   5.699   3.625 -0.6740 -0.3883 -0.0997
 2824THY    HA470593   3.358   5.783   3.563  0.4325  0.6724  0.7661
 2824THY    CA570594   3.458   5.593   3.570  0.4146 -0.4536 -0.2557
 2824THY    CM170595   3.491   5.591   3.430 -0.1240 -0.3797 -0.3760
 2824THY    HM170596   3.557   5.674   3.406 -1.8127  0.2689 -3.2021
 2824THY    HM270597   3.550   5.501   3.409 -1.8783 -2.0657  1.3557
 2824THY    HM370598   3.403   5.586   3.365 -0.0869 -1.3819 -0.3701
 2824THY    CA670599   3.508   5.491   3.652 -0.6650 -0.0795  0.1633
 2824THY    HA670600   3.570   5.409   3.617 -0.6460  0.1903 -0.4507
 2825THY      O70601   9.707   2.327   0.121 -0.3458  0.0730 -0.2297
 2825THY     HO70602   9.690   2.395   0.189  0.2002 -1.6292  1.7172
 2825THY    CA170603   9.642   2.223   0.165  0.1337  0.5581 -0.2715
 2825THY    CA270604   9.615   2.106   0.094 -0.5956  0.3897  0.7713
 2825THY    CP170605   9.656   2.098  -0.055 -0.2338  1.0593 -0.9904
 2825THY    HP170606   9.669   2.196  -0.101  0.3204  1.1388 -0.6679
 2825THY    CP270607   9.800   2.035  -0.072 -0.1410  0.1703 -0.5739
 2825THY    HP270608   9.875   2.115  -0.063 -0.7139  0.9683 -2.3850
 2825THY    HP370609   9.800   1.954   0.002 -2.6387  2.3834  2.1435
 2825THY    HP470610   9.799   2.002  -0.176 -1.2106 -0.4875 -0.3748
 2825THY    CP370611   9.552   2.019  -0.147  0.5752  0.0812 -0.4433
 2825THY    HP570612   9.449   2.057  -0.143 -0.0399 -1.1029 -3.0176
 2825THY    HP670613   9.575   2.033  -0.253  0.0411  0.8622 -0.4693
 2825THY    HP770614   9.545   1.915  -0.113  0.5144  0.6125  1.2851
 2825THY    CA370615   9.525   2.013   0.149 -0.5305  0.3348  0.0871
 2825THY    HA370616   9.481   1.932   0.091 -0.3798  0.7023 -0.5513
 2825THY    CA470617   9.482   2.031   0.285  0.2555 -0.0492  0.2745
 2825THY    HA470618   9.411   1.961   0.327 -0.5891  0.1965 -0.7149
 2825THY    CA570619   9.510   2.146   0.355 -0.5235  0.0737  0.3090
 2825THY    CM170620   9.457   2.160   0.501 -0.5495 -0.0036  0.2058
 2825THY    HM170621   9.455   2.265   0.531  0.9473 -0.0386  0.4701
 2825THY    HM270622   9.354   2.123   0.509 -0.3453 -0.3965  1.1633
 2825THY    HM370623   9.527   2.102   0.561  0.0118  0.0312 -0.4080
 2825THY    CA670624   9.586   2.243   0.292  0.1153 -0.5420  0.1136
 2825THY    HA670625   9.607   2.337   0.341  0.2406 -0.7021  0.3687
 2826THY      O70626   9.204   7.328   9.452  0.2238  0.1633  0.1101
 2826THY     HO70627   9.224   7.247   9.502  0.9592 -0.3904 -1.0317
 2826THY    CA170628   9.233   7.315   9.318 -0.1432 -0.3494 -0.4901
 2826THY    CA270629   9.197   7.415   9.220 -0.4310 -0.5586  0.2144
 2826THY    CP170630   9.145   7.551   9.268 -0.0952  0.1779  0.5749
 2826THY    HP170631   9.144   7.557   9.377 -1.2408 -0.2719  0.6070
 2826THY    CP270632   9.223   7.673   9.205 -0.4733  0.1722 -0.0976
 2826THY    HP270633   9.327   7.663   9.237 -0.5174  0.1874  0.0506
 2826THY    HP370634   9.203   7.673   9.097 -1.5918 -0.5207  0.0927
 2826THY    HP470635   9.179   7.770   9.233 -0.7135  0.2005 -0.5674
 2826THY    CP370636   8.998   7.566   9.230  0.5973  0.2650 -0.2298
 2826THY    HP570637   8.986   7.539   9.125  1.9619 -2.4627  0.2283
 2826THY    HP670638   8.937   7.502   9.295 -0.6795  1.1283 -0.5268
 2826THY    HP770639   8.958   7.667   9.247 -0.1371 -0.3663  2.2143
 2826THY    CA370640   9.228   7.397   9.082  0.2074  0.1481  0.0244
 2826THY    HA370641   9.212   7.475   9.009 -1.0811 -0.3099 -0.2158
 2826THY    CA470642   9.284   7.277   9.046 -0.7455  0.1177 -0.1816
 2826THY    HA470643   9.320   7.258   8.945 -0.7742  0.9682 -0.3574
 2826THY    CA570644   9.303   7.175   9.132 -0.4823 -0.2645  0.5009
 2826THY    CM170645   9.381   7.051   9.091 -0.4605 -0.7201 -0.4219
 2826THY    HM170646   9.399   6.976   9.169  1.2563  1.2906  1.2362
 2826THY    HM270647   9.353   6.997   8.999 -3.0344 -1.0960  0.4786
 2826THY    HM370648   9.484   7.083   9.076 -0.7636  0.7247  0.3814
 2826THY    CA670649   9.287   7.192   9.275  0.7102 -0.4391 -0.5358
 2826THY    HA670650   9.326   7.115   9.340  0.7742  2.1729  2.8068
 2827THY      O70651   9.578   1.213   4.550 -0.3262  0.1901 -0.0062
 2827THY     HO70652   9.653   1.164   4.512 -0.6385  1.6137 -2.7139
 2827THY    CA170653   9.471   1.131   4.546  0.2459  0.0971 -0.1065
 2827THY    CA270654   9.354   1.166   4.616 -0.4710 -0.0419  0.3144
 2827THY    CP170655   9.364   1.299   4.697 -0.0838 -0.7642  0.1336
 2827THY    HP170656   9.463   1.317   4.739  0.9333  1.1673 -2.7483
 2827THY    CP270657   9.316   1.411   4.603  0.3117 -0.5703  0.0359
 2827THY    HP270658   9.368   1.421   4.507  0.0359  2.2218  0.1136
 2827THY    HP370659   9.207   1.419   4.592  0.4228  0.2574 -0.5392
 2827THY    HP470660   9.344   1.499   4.662 -0.1772 -1.6424  1.9663
 2827THY    CP370661   9.265   1.308   4.822 -0.3927  0.0788  0.2366
 2827THY    HP570662   9.273   1.221   4.889 -3.9984  0.2625  1.0986
 2827THY    HP670663   9.297   1.391   4.886 -1.3018  0.3377  0.3733
 2827THY    HP770664   9.161   1.312   4.788 -0.9204  2.5820  1.8615
 2827THY    CA370665   9.235   1.096   4.600  0.2006  0.9006 -0.4738
 2827THY    HA370666   9.148   1.139   4.649 -0.3467 -1.9727  1.2792
 2827THY    CA470667   9.230   0.994   4.505 -0.6694  0.0262 -0.3339
 2827THY    HA470668   9.136   0.943   4.489 -0.6605 -0.2105  0.3391
 2827THY    CA570669   9.349   0.955   4.434  0.8449  0.8275 -0.2574
 2827THY    CM170670   9.348   0.844   4.340  0.8170  0.1624  0.5392
 2827THY    HM170671   9.448   0.822   4.299  0.6610 -3.3623  1.6945
 2827THY    HM270672   9.312   0.758   4.398  0.9062  1.1886  2.1954
 2827THY    HM370673   9.282   0.873   4.258 -1.1179  0.3830  2.1019
 2827THY    CA670674   9.463   1.027   4.456  0.3404 -0.2265 -0.1269
 2827THY    HA670675   9.558   0.994   4.416  1.4249  1.6764  0.7961
 2828THY      O70676   7.199   0.411   4.183  0.5798 -0.3861 -0.0813
 2828THY     HO70677   7.277   0.354   4.176  0.3606 -0.5478 -1.3312
 2828THY    CA170678   7.228   0.493   4.288  0.5356  0.9135  0.1714
 2828THY    CA270679   7.124   0.563   4.356  0.3798 -0.7906 -0.1273
 2828THY    CP170680   6.981   0.575   4.294  0.0255 -0.2235  0.3712
 2828THY    HP170681   6.968   0.502   4.213  0.2698 -1.0212  1.0392
 2828THY    CP270682   6.885   0.542   4.403  0.4951 -0.3372 -0.8646
 2828THY    HP270683   6.884   0.627   4.472  1.2956 -1.3617  0.4523
 2828THY    HP370684   6.782   0.532   4.367  0.6050 -0.5914 -1.1125
 2828THY    HP470685   6.901   0.455   4.468 -2.1227  0.4191  0.9779
 2828THY    CP370686   6.958   0.722   4.238 -0.3539  0.0215 -0.1130
 2828THY    HP570687   7.008   0.720   4.141 -1.1821  1.2306 -0.5878
 2828THY    HP670688   6.852   0.742   4.220 -0.4234 -0.5745 -0.3725
 2828THY    HP770689   7.009   0.797   4.300  1.0054 -0.6259 -0.4146
 2828THY    CA370690   7.163   0.631   4.470  0.1422  0.6258 -0.2171
 2828THY    HA370691   7.089   0.677   4.535  0.3283 -0.7956  1.0393
 2828THY    CA470692   7.291   0.626   4.527  0.6348  0.2082  0.5521
 2828THY    HA470693   7.311   0.677   4.621 -1.8657 -0.9946  1.8301
 2828THY    CA570694   7.391   0.564   4.451  0.6786 -0.0395 -0.0568
 2828THY    CM170695   7.521   0.541   4.513 -0.8179  0.7274 -0.2501
 2828THY    HM170696   7.541   0.599   4.604  0.3667  2.2920 -1.4345
 2828THY    HM270697   7.557   0.440   4.533  3.9405  2.2472  0.0069
 2828THY    HM370698   7.601   0.582   4.450  1.7959  0.7168  2.8094
 2828THY    CA670699   7.356   0.490   4.344 -1.1494 -0.3994 -0.7323
 2828THY    HA670700   7.432   0.426   4.300  1.0869  2.1063 -0.7819
 2829THY      O70701   6.980   8.190   3.270 -0.5797  0.0941  0.3987
 2829THY     HO70702   6.932   8.126   3.326 -1.9611  1.3809  0.7422
 2829THY    CA170703   6.894   8.294   3.261 -0.2221 -0.6563  0.3669
 2829THY    CA270704   6.945   8.414   3.210 -0.6781 -0.2844  0.6926
 2829THY    CP170705   7.099   8.433   3.176 -0.6091  0.1729 -0.2034
 2829THY    HP170706   7.145   8.335   3.190  0.5505  0.6650 -0.4645
 2829THY    CP270707   7.114   8.476   3.027 -0.2626 -0.3993 -0.2883
 2829THY    HP270708   7.109   8.584   3.008  0.4938 -0.3894 -0.4458
 2829THY    HP370709   7.216   8.449   2.997 -1.1582 -1.5120 -2.5392
 2829THY    HP470710   7.039   8.417   2.975  1.4673 -2.0912 -0.9810
 2829THY    CP370711   7.161   8.526   3.278  0.6021  0.1093  0.1870
 2829THY    HP570712   7.256   8.556   3.233  0.5640  0.5205  0.3714
 2829THY    HP670713   7.100   8.616   3.293  0.3800  0.2476 -1.4145
 2829THY    HP770714   7.173   8.477   3.375 -0.7279 -1.2435 -0.3000
 2829THY    CA370715   6.852   8.530   3.203  0.3013  0.5397  0.9789
 2829THY    HA370716   6.896   8.625   3.175 -1.5525  1.3235  0.5759
 2829THY    CA470717   6.717   8.506   3.226  0.2300  0.6501  0.2004
 2829THY    HA470718   6.645   8.585   3.207 -0.9867 -0.2418  0.9322
 2829THY    CA570719   6.669   8.377   3.270 -1.1112  0.5092  0.4174
 2829THY    CM170720   6.528   8.362   3.320  0.2181  0.2438  0.0182
 2829THY    HM170721   6.469   8.450   3.291 -0.8969 -0.3676  0.3786
 2829THY    HM270722   6.484   8.269   3.284 -0.8260  0.5856  0.3830
 2829THY    HM370723   6.529   8.351   3.429  1.2401 -1.7583 -0.1572
 2829THY    CA670724   6.757   8.276   3.294  0.0312  0.0680 -1.0920
 2829THY    HA670725   6.722   8.184   3.341 -0.0513  0.4927 -0.3192
 2830THY      O70726   7.379   0.672   6.183  0.5265 -0.2404 -0.4273
 2830THY     HO70727   7.309   0.740   6.177  0.6862 -0.1696 -1.8255
 2830THY    CA170728   7.359   0.595   6.295 -0.0455  0.1368  0.3369
 2830THY    CA270729   7.463   0.518   6.353  0.1303  0.3331  0.3086
 2830THY    CP170730   7.598   0.528   6.295  0.1316  0.1352  0.3204
 2830THY    HP170731   7.603   0.605   6.217 -0.2074  1.2758  1.4055
 2830THY    CP270732   7.706   0.565   6.400 -0.4454  0.0073 -0.2943
 2830THY    HP270733   7.729   0.483   6.468 -0.6373  0.1521 -0.0516
 2830THY    HP370734   7.792   0.613   6.352 -2.7935  1.9315 -2.9631
 2830THY    HP470735   7.671   0.648   6.462 -1.6680 -1.3516  0.9094
 2830THY    CP370736   7.643   0.393   6.232 -0.0171  0.1683 -0.5495
 2830THY    HP570737   7.567   0.358   6.161  1.0893  0.7519 -2.0669
 2830THY    HP670738   7.738   0.393   6.177  0.5862  2.5781  0.3735
 2830THY    HP770739   7.662   0.322   6.313 -0.6346  0.1648 -0.4059
 2830THY    CA370740   7.434   0.430   6.462  0.2409  0.5964 -0.2839
 2830THY    HA370741   7.520   0.382   6.507  2.1398  0.2208 -3.9690
 2830THY    CA470742   7.301   0.421   6.517 -0.0470 -0.0545 -0.4449
 2830THY    HA470743   7.282   0.350   6.598  2.7784  1.8004  2.0287
 2830THY    CA570744   7.207   0.506   6.466  0.0525  0.3178 -0.0389
 2830THY    CM170745   7.063   0.489   6.510 -0.6338 -0.3155 -0.1719
 2830THY    HM170746   7.069   0.449   6.612 -0.0661  2.8630  1.1857
 2830THY    HM270747   7.018   0.589   6.516 -1.0543 -0.5764  1.8404
 2830THY    HM370748   6.996   0.437   6.440 -1.7527  0.0227  0.6181
 2830THY    CA670749   7.233   0.590   6.351 -0.2783  0.1215  0.3307
 2830THY    HA670750   7.142   0.634   6.310  0.0975 -1.2057 -2.1443
 2831THY      O70751   8.254   8.906   1.542 -0.3685  0.2973 -0.3464
 2831THY     HO70752   8.263   8.810   1.549  0.7686  0.5157  3.5494
 2831THY    CA170753   8.128   8.930   1.494 -0.0655 -0.5188  0.2148
 2831THY    CA270754   8.039   9.021   1.551 -0.2211 -0.4160  0.3173
 2831THY    CP170755   8.064   9.096   1.683 -0.4059  0.1208  0.3567
 2831THY    HP170756   8.164   9.070   1.720 -0.0475 -0.8242 -1.1881
 2831THY    CP270757   8.062   9.246   1.680  0.3229 -0.0158 -1.0304
 2831THY    HP270758   8.142   9.283   1.616 -0.2079  1.8327 -0.6795
 2831THY    HP370759   7.974   9.293   1.635 -0.4042  0.2806  0.6044
 2831THY    HP470760   8.076   9.278   1.784  1.7573 -3.5010 -0.0093
 2831THY    CP370761   7.974   9.036   1.787  0.2627 -0.5498  0.4573
 2831THY    HP570762   7.998   8.930   1.800 -0.4938 -1.2518 -2.8937
 2831THY    HP670763   7.977   9.092   1.881 -2.5866 -1.3232  1.1116
 2831THY    HP770764   7.871   9.044   1.750 -0.1188  1.1260  1.7166
 2831THY    CA370765   7.921   9.049   1.474  0.5826 -0.2641 -0.1210
 2831THY    HA370766   7.852   9.126   1.507 -1.1362 -1.0870 -1.6202
 2831THY    CA470767   7.878   8.967   1.369 -0.3716  0.4592  0.0392
 2831THY    HA470768   7.778   8.989   1.335 -0.8781 -1.7658 -0.0427
 2831THY    CA570769   7.973   8.878   1.317  0.3532  0.4644  0.2977
 2831THY    CM170770   7.942   8.797   1.193  0.0622 -0.7499 -0.3290
 2831THY    HM170771   7.899   8.857   1.113 -2.3455  1.0130  2.0808
 2831THY    HM270772   8.028   8.741   1.155  0.3284 -0.8643  0.4256
 2831THY    HM370773   7.861   8.731   1.228  1.1478 -0.7992  2.3095
 2831THY    CA670774   8.100   8.857   1.381  0.6557 -0.0987  0.1819
 2831THY    HA670775   8.172   8.792   1.332 -0.8232 -0.2345 -2.0003
 2832THY      O70776   5.936   3.649   9.754 -0.3685 -0.6036  0.3884
 2832THY     HO70777   5.971   3.707   9.824 -3.2612  1.8645 -0.0198
 2832THY    CA170778   6.040   3.601   9.691 -0.0440 -0.5058 -0.2301
 2832THY    CA270779   6.032   3.489   9.607 -0.6151 -0.9112  0.0033
 2832THY    CP170780   5.906   3.420   9.570  0.4110 -0.0516  0.0703
 2832THY    HP170781   5.816   3.480   9.586 -0.1084 -1.0161  0.8984
 2832THY    CP270782   5.892   3.381   9.422  0.0992 -0.4012 -0.4268
 2832THY    HP270783   5.967   3.307   9.394 -1.3541 -1.2377 -2.2974
 2832THY    HP370784   5.789   3.346   9.406 -0.8931  0.6813  2.8637
 2832THY    HP470785   5.902   3.467   9.354 -0.7926 -0.0407 -0.1259
 2832THY    CP370786   5.899   3.295   9.647 -0.3344 -0.7523 -0.0582
 2832THY    HP570787   5.990   3.234   9.636  2.2301  2.6427  0.6224
 2832THY    HP670788   5.895   3.325   9.752  2.6472  0.9498 -0.2961
 2832THY    HP770789   5.809   3.239   9.621 -1.4771  0.6016  0.8075
 2832THY    CA370790   6.151   3.452   9.550 -0.1436  0.1243 -0.3105
 2832THY    HA370791   6.155   3.364   9.486  0.8572 -0.2448  0.2341
 2832THY    CA470792   6.270   3.520   9.571 -0.7349  0.4900  0.6926
 2832THY    HA470793   6.364   3.499   9.521 -1.4413 -1.3529  0.0619
 2832THY    CA570794   6.278   3.625   9.654 -0.2801  0.1747  0.3413
 2832THY    CM170795   6.398   3.701   9.683  0.4346 -1.2552  0.0264
 2832THY    HM170796   6.469   3.635   9.734  0.9123 -1.2774 -0.6428
 2832THY    HM270797   6.445   3.734   9.589  2.4988 -0.8336  1.1536
 2832THY    HM370798   6.378   3.789   9.745 -1.6070 -1.9897  0.4974
 2832THY    CA670799   6.161   3.666   9.715  0.0659  0.1710  0.3720
 2832THY    HA670800   6.162   3.757   9.775  1.1161  0.5268 -0.1598
 2833THY      O70801   6.790   7.494   4.655  0.8578 -0.1170  0.4262
 2833THY     HO70802   6.834   7.431   4.596 -0.4710 -0.7907  0.1038
 2833THY    CA170803   6.655   7.465   4.641 -0.2656  0.5584 -0.2418
 2833THY    CA270804   6.560   7.563   4.655 -0.2316  0.1446 -0.5611
 2833THY    CP170805   6.602   7.708   4.670  0.4700 -0.1372  0.7276
 2833THY    HP170806   6.707   7.710   4.703  0.7526 -3.0491  0.2741
 2833THY    CP270807   6.601   7.783   4.533  0.7368 -0.0315  0.0865
 2833THY    HP270808   6.676   7.736   4.468 -0.7540 -1.2354 -0.8614
 2833THY    HP370809   6.503   7.784   4.483  0.4248  1.3458  0.6897
 2833THY    HP470810   6.630   7.887   4.548 -0.3908 -0.0882  3.5545
 2833THY    CP370811   6.511   7.790   4.759  0.7603  0.0359 -1.1053
 2833THY    HP570812   6.561   7.883   4.789  3.4894 -1.4952 -0.5991
 2833THY    HP670813   6.420   7.826   4.709  1.8167  0.6335 -2.6897
 2833THY    HP770814   6.469   7.727   4.838  0.5833  1.4173 -0.0533
 2833THY    CA370815   6.422   7.524   4.649 -0.5065  0.5872 -0.7256
 2833THY    HA370816   6.347   7.599   4.670 -0.5346  0.6005 -0.8750
 2833THY    CA470817   6.387   7.391   4.641  0.6218  0.0016 -0.1591
 2833THY    HA470818   6.284   7.363   4.620 -0.5810  2.6559  1.6758
 2833THY    CA570819   6.484   7.295   4.624 -1.6919  0.4982  1.1951
 2833THY    CM170820   6.439   7.154   4.591 -0.1896  0.0701  0.3197
 2833THY    HM170821   6.411   7.097   4.681  2.7162 -0.9431  0.6852
 2833THY    HM270822   6.358   7.168   4.518 -2.1458  1.2396  2.5838
 2833THY    HM370823   6.515   7.094   4.540 -1.6779 -2.0733  0.4722
 2833THY    CA670824   6.619   7.329   4.617 -0.1792  0.4642 -0.4530
 2833THY    HA670825   6.689   7.250   4.592 -0.2128 -0.1869  1.3443
 2834THY      O70826   5.465   4.899   9.087 -0.4917 -0.0640  0.0013
 2834THY     HO70827   5.541   4.858   9.131 -0.6644  1.3326  1.7415
 2834THY    CA170828   5.370   4.815   9.120 -0.3692 -0.2972 -0.1152
 2834THY    CA270829   5.231   4.849   9.141 -0.1132 -0.3991 -0.5332
 2834THY    CP170830   5.190   5.001   9.137  0.4396 -0.3722  0.4787
 2834THY    HP170831   5.273   5.071   9.122 -0.5492  0.6603 -0.4170
 2834THY    CP270832   5.103   5.008   9.012  0.1981 -0.6466  0.3450
 2834THY    HP270833   5.050   5.103   8.999 -1.3183 -1.1818  2.2277
 2834THY    HP370834   5.161   4.991   8.921 -1.4202  1.6396 -1.2346
 2834THY    HP470835   5.032   4.924   9.005  1.2401 -1.4942 -0.4639
 2834THY    CP370836   5.109   5.052   9.255  0.2449 -0.0480 -0.2915
 2834THY    HP570837   5.010   5.004   9.255 -0.1055  0.6457 -1.3224
 2834THY    HP670838   5.164   5.026   9.346 -2.4112  1.6857  1.9914
 2834THY    HP770839   5.098   5.160   9.245  2.4911  0.2308 -0.2736
 2834THY    CA370840   5.142   4.748   9.168 -0.8898  0.3090  0.0608
 2834THY    HA370841   5.037   4.769   9.187 -0.5274  2.4465 -0.0667
 2834THY    CA470842   5.196   4.614   9.176  0.3015 -0.7350  0.0102
 2834THY    HA470843   5.135   4.528   9.203  0.1530 -0.6507 -0.0541
 2834THY    CA570844   5.330   4.587   9.155  0.1855  0.2819 -0.9220
 2834THY    CM170845   5.383   4.451   9.172 -0.0196  0.1731 -0.2178
 2834THY    HM170846   5.491   4.439   9.166  0.0140 -0.8180  1.5991
 2834THY    HM270847   5.355   4.406   9.268  2.2047  2.0269  1.4189
 2834THY    HM370848   5.332   4.392   9.095  0.3202 -0.0358 -0.2818
 2834THY    CA670849   5.414   4.690   9.126  0.4098 -0.1839 -0.0091
 2834THY    HA670850   5.514   4.658   9.098  0.2431 -3.5015  2.5795
 2835THY      O70851   7.471   5.315   3.484 -0.4416 -0.2296 -0.7785
 2835THY     HO70852   7.394   5.366   3.514 -0.6745 -0.9144 -0.1953
 2835THY    CA170853   7.414   5.223   3.402 -0.0460  0.3487  0.0242
 2835THY    CA270854   7.475   5.097   3.379  0.5228 -0.0605  0.5675
 2835THY    CP170855   7.605   5.064   3.451 -0.4212 -0.8319 -0.2361
 2835THY    HP170856   7.671   5.152   3.456 -0.2416 -0.9832  0.0670
 2835THY    CP270857   7.568   5.012   3.588 -0.1195  0.0639 -0.4582
 2835THY    HP270858   7.479   4.950   3.598  0.1256 -0.0563  1.2445
 2835THY    HP370859   7.653   4.963   3.636  0.0213  0.5894 -0.1579
 2835THY    HP470860   7.551   5.095   3.657  1.5766 -0.2553  0.3849
 2835THY    CP370861   7.686   4.958   3.374 -0.6217  0.5388 -0.7624
 2835THY    HP570862   7.694   4.973   3.266  1.6572  1.7781 -0.4842
 2835THY    HP670863   7.791   4.963   3.406 -0.4670  0.5083 -1.2707
 2835THY    HP770864   7.653   4.858   3.403 -2.3752  1.4499  0.5426
 2835THY    CA370865   7.399   5.001   3.310  0.2553 -0.2526  0.3759
 2835THY    HA370866   7.441   4.901   3.307  1.5232  0.2747 -0.0911
 2835THY    CA470867   7.266   5.032   3.258 -0.2220 -0.1621 -0.2840
 2835THY    HA470868   7.211   4.955   3.204  2.8435 -1.6125 -1.6024
 2835THY    CA570869   7.217   5.162   3.278  0.3327  0.2838 -0.6874
 2835THY    CM170870   7.089   5.201   3.207  1.1107  0.0144  0.3967
 2835THY    HM170871   7.110   5.272   3.126 -0.6188  1.1589  0.9021
 2835THY    HM270872   7.021   5.128   3.161 -0.0197  0.0429  1.9326
 2835THY    HM370873   7.026   5.255   3.278 -0.1416  0.4370 -0.9703
 2835THY    CA670874   7.284   5.248   3.359  0.5298 -0.1661 -0.7277
 2835THY    HA670875   7.245   5.348   3.367  0.1401 -0.4593  1.5276
 2836THY      O70876   6.488   7.842   6.724  0.2737  0.1033  0.4677
 2836THY     HO70877   6.459   7.804   6.639 -1.1689  0.2018  0.8882
 2836THY    CA170878   6.607   7.887   6.687 -0.0424  0.1599  0.2338
 2836THY    CA270879   6.699   7.940   6.781 -0.2844 -0.5807  0.1021
 2836THY    CP170880   6.664   7.961   6.929  0.1057 -0.2858  0.7197
 2836THY    HP170881   6.557   7.941   6.945 -0.1982 -0.2551 -1.0708
 2836THY    CP270882   6.738   7.856   7.011 -0.2364  1.2803  0.3399
 2836THY    HP270883   6.840   7.835   6.979 -0.3691  1.2844 -0.0881
 2836THY    HP370884   6.738   7.878   7.119 -0.8963  0.4349  0.5269
 2836THY    HP470885   6.692   7.757   7.002  0.5897  0.7452  1.6363
 2836THY    CP370886   6.704   8.100   6.979 -0.3845 -0.7776 -0.3502
 2836THY    HP570887   6.811   8.119   6.972 -0.4301 -0.4272 -0.1076
 2836THY    HP670888   6.641   8.171   6.923  2.4154  2.3822  0.2157
 2836THY    HP770889   6.680   8.106   7.085 -3.6280  0.6940 -1.0403
 2836THY    CA370890   6.832   7.965   6.741  0.2500 -0.2462  0.2587
 2836THY    HA370891   6.908   7.995   6.813  0.1566 -0.0312  0.2678
 2836THY    CA470892   6.868   7.951   6.611 -0.1137  0.1331  0.1293
 2836THY    HA470893   6.972   7.956   6.580 -0.3535 -0.0458 -0.7096
 2836THY    CA570894   6.765   7.913   6.512 -0.4366 -0.1041 -0.5588
 2836THY    CM170895   6.802   7.920   6.368  0.2669  0.6145 -0.7682
 2836THY    HM170896   6.824   8.024   6.344 -0.5247  1.2925  1.2263
 2836THY    HM270897   6.891   7.856   6.366 -0.9469 -1.4156  2.3077
 2836THY    HM370898   6.737   7.861   6.303  2.0051 -2.3223 -0.0338
 2836THY    CA670899   6.638   7.884   6.552 -0.1640  0.2186 -0.4141
 2836THY    HA670900   6.569   7.847   6.477  0.7476 -2.3479 -0.0944
 2837THY      O70901   6.343   1.460   8.870 -0.4968 -0.1193  0.4935
 2837THY     HO70902   6.312   1.542   8.913 -1.4876 -0.4787  0.5072
 2837THY    CA170903   6.440   1.493   8.793  0.9368  0.3953 -1.2777
 2837THY    CA270904   6.505   1.389   8.724 -0.3115 -0.7011  0.3102
 2837THY    CP170905   6.460   1.246   8.740  0.9141  0.3804  0.7135
 2837THY    HP170906   6.410   1.235   8.837 -0.1836 -0.7539  0.0416
 2837THY    CP270907   6.355   1.204   8.630  0.0663 -0.1864  0.5266
 2837THY    HP270908   6.261   1.260   8.635  0.1192  0.0054 -0.5306
 2837THY    HP370909   6.403   1.201   8.532  1.4206 -3.2454  1.1614
 2837THY    HP470910   6.330   1.099   8.647  0.9225 -0.4256  0.3513
 2837THY    CP370911   6.581   1.162   8.743 -0.9299  0.3875 -0.5825
 2837THY    HP570912   6.618   1.135   8.644  0.2547 -1.2924  0.2777
 2837THY    HP670913   6.661   1.199   8.809 -0.2919 -1.4502 -0.2742
 2837THY    HP770914   6.559   1.063   8.784  0.2038  0.0575 -0.7352
 2837THY    CA370915   6.605   1.426   8.636 -0.2478  0.3618  0.4573
 2837THY    HA370916   6.649   1.354   8.568 -1.2891  0.3578 -0.2343
 2837THY    CA470917   6.642   1.562   8.621  0.3064 -0.4752 -1.2683
 2837THY    HA470918   6.720   1.594   8.552  0.9126  0.6700 -0.1058
 2837THY    CA570919   6.581   1.657   8.697  1.0238 -0.3495  0.2712
 2837THY    CM170920   6.614   1.800   8.682 -0.4254 -1.0557 -0.4230
 2837THY    HM170921   6.582   1.845   8.587 -0.5764  1.1725  0.6090
 2837THY    HM270922   6.575   1.850   8.772  0.1232 -1.1095 -0.1547
 2837THY    HM370923   6.722   1.817   8.680 -0.7765  1.6544 -0.6925
 2837THY    CA670924   6.480   1.625   8.786  0.8390 -0.0798 -0.3418
 2837THY    HA670925   6.440   1.697   8.857  0.6379 -2.3977  2.0824
 2838THY      O70926   5.993   6.507   1.010  0.5587  0.0199  0.3819
 2838THY     HO70927   5.987   6.411   0.996  0.1655  0.1282 -0.2824
 2838THY    CA170928   5.929   6.539   1.127 -0.2946  0.0777 -0.0251
 2838THY    CA270929   5.942   6.669   1.185 -0.5564  0.1107  0.6492
 2838THY    CP170930   6.033   6.781   1.129 -0.4918  0.8016  0.4804
 2838THY    HP170931   6.078   6.752   1.033  3.0424  0.2640  2.1351
 2838THY    CP270932   5.956   6.903   1.101  0.0372 -0.3880 -0.6572
 2838THY    HP270933   5.894   6.940   1.183  0.8261  0.1816 -0.3005
 2838THY    HP370934   6.022   6.986   1.072  0.7624 -0.8027 -0.2229
 2838THY    HP470935   5.885   6.881   1.021  0.5393 -0.3733 -1.1138
 2838THY    CP370936   6.145   6.819   1.220  0.4327 -0.0975  0.1336
 2838THY    HP570937   6.110   6.857   1.317 -2.0457  0.0508 -0.7539
 2838THY    HP670938   6.210   6.732   1.239 -2.4968 -2.3336  0.6281
 2838THY    HP770939   6.206   6.897   1.174  0.7804 -0.7254 -0.4897
 2838THY    CA370940   5.872   6.702   1.302  0.1749  0.5618 -0.2823
 2838THY    HA370941   5.901   6.798   1.345  0.0321  0.2310  0.5837
 2838THY    CA470942   5.783   6.606   1.360 -0.9854 -1.2362 -0.4373
 2838THY    HA470943   5.728   6.625   1.451 -0.2008  0.5935 -0.3129
 2838THY    CA570944   5.776   6.478   1.300  0.3813  0.2378  0.1760
 2838THY    CM170945   5.683   6.372   1.359 -0.2150 -0.1897  0.6164
 2838THY    HM170946   5.681   6.371   1.469  0.5169 -1.8662  0.6525
 2838THY    HM270947   5.583   6.400   1.323  0.2763  0.5863 -0.1801
 2838THY    HM370948   5.698   6.267   1.329 -0.3477  0.6037 -2.6045
 2838THY    CA670949   5.852   6.443   1.187  0.2489  0.2556 -0.9264
 2838THY    HA670950   5.838   6.346   1.140 -3.3066  1.5914 -3.0758
 2839THY      O70951   4.936   0.991   4.108 -0.3944 -0.1181  0.1398
 2839THY     HO70952   4.979   0.961   4.026 -0.1987  1.5775 -0.4166
 2839THY    CA170953   4.847   1.085   4.073  0.6082 -0.1767  0.2315
 2839THY    CA270954   4.750   1.143   4.157 -0.1637  0.2962 -0.1316
 2839THY    CP170955   4.738   1.089   4.303  0.1767  0.6485 -0.5816
 2839THY    HP170956   4.822   1.025   4.333  0.0567  1.4435  1.6081
 2839THY    CP270957   4.735   1.208   4.396  0.3882  0.4358  1.1481
 2839THY    HP270958   4.820   1.267   4.360  0.1745 -1.6950 -3.5415
 2839THY    HP370959   4.642   1.266   4.386  1.0646  1.2752 -0.8253
 2839THY    HP470960   4.741   1.163   4.496  0.4418  1.7771  1.7784
 2839THY    CP370961   4.609   0.999   4.317 -0.1329 -0.1212 -0.2082
 2839THY    HP570962   4.526   1.063   4.350  1.3759  1.2315  1.1445
 2839THY    HP670963   4.595   0.953   4.219  1.6893  0.5487 -0.8233
 2839THY    HP770964   4.609   0.913   4.385 -0.3257  1.3487  1.7494
 2839THY    CA370965   4.667   1.245   4.111  0.0072  0.7493 -0.7151
 2839THY    HA370966   4.588   1.279   4.178 -1.0680 -3.3173  0.3416
 2839THY    CA470967   4.681   1.283   3.975  0.8715 -0.3537 -0.3158
 2839THY    HA470968   4.615   1.362   3.941  1.4580  0.2028 -0.1969
 2839THY    CA570969   4.777   1.230   3.892  0.2828  0.1262  0.4128
 2839THY    CM170970   4.793   1.286   3.750  0.0489  0.7546 -0.9616
 2839THY    HM170971   4.757   1.208   3.682  0.9025  0.1711 -0.7608
 2839THY    HM270972   4.741   1.381   3.737  1.0446  1.6122  0.9388
 2839THY    HM370973   4.896   1.312   3.723 -0.5763  3.5940 -0.8400
 2839THY    CA670974   4.858   1.138   3.941  0.7809  0.4100  0.9609
 2839THY    HA670975   4.930   1.099   3.870 -2.3348 -0.3811 -2.0309
 2840THY      O70976   7.561   5.702   0.406  0.0901  0.0562  0.3106
 2840THY     HO70977   7.497   5.728   0.338 -0.3260 -0.3696  0.5422
 2840THY    CA170978   7.494   5.640   0.506 -0.6184  0.0365 -0.7177
 2840THY    CA270979   7.507   5.685   0.643 -0.1507 -0.0637 -0.7799
 2840THY    CP170980   7.623   5.780   0.677 -0.2001 -0.2429  0.1294
 2840THY    HP170981   7.628   5.859   0.602 -2.2357 -0.8208 -0.6884
 2840THY    CP270982   7.602   5.856   0.807  0.6415  0.4007 -0.3499
 2840THY    HP270983   7.502   5.899   0.822 -0.7236 -1.9993 -1.9690
 2840THY    HP370984   7.608   5.784   0.889 -1.2934 -0.6183 -1.0463
 2840THY    HP470985   7.677   5.935   0.821  0.6432  0.2060  0.8235
 2840THY    CP370986   7.757   5.707   0.668 -0.7537 -0.2816 -0.1775
 2840THY    HP570987   7.836   5.775   0.705 -3.4249  1.7753  2.2026
 2840THY    HP670988   7.749   5.620   0.734 -4.3856  0.7104  0.8992
 2840THY    HP770989   7.775   5.670   0.566  0.5425  1.6293 -0.7022
 2840THY    CA370990   7.425   5.616   0.740 -0.1228  0.0223  0.6083
 2840THY    HA370991   7.430   5.639   0.846  0.7336  0.2465  0.5264
 2840THY    CA470992   7.356   5.503   0.702 -0.0393  0.3672  0.6572
 2840THY    HA470993   7.316   5.437   0.779 -2.4679  2.8693  1.7349
 2840THY    CA570994   7.354   5.453   0.570  0.8074  0.6500  0.5277
 2840THY    CM170995   7.277   5.325   0.543  0.2289 -0.9686 -0.3957
 2840THY    HM170996   7.339   5.238   0.518 -0.6072 -1.5699 -0.4331
 2840THY    HM270997   7.208   5.302   0.626 -1.2604  0.5230 -1.1457
 2840THY    HM370998   7.208   5.339   0.459  1.9752  1.6806 -1.5152
 2840THY    CA670999   7.420   5.524   0.472 -0.0598 -1.1255 -0.5846
 2840THY    HA671000   7.407   5.493   0.369  1.1212 -0.6888 -0.8811
 2841THY      O71001   2.496   4.606   6.265  0.3994  0.6865  0.0515
 2841THY     HO71002   2.516   4.657   6.185  0.3444 -2.0426 -1.8668
 2841THY    CA171003   2.513   4.478   6.215 -0.0674 -0.1479  0.0495
 2841THY    CA271004   2.560   4.373   6.299  0.0209 -0.2906 -0.2501
 2841THY    CP171005   2.569   4.388   6.449 -0.7007  1.1450 -0.6261
 2841THY    HP171006   2.512   4.477   6.477 -2.9192 -0.1500 -0.8156
 2841THY    CP271007   2.494   4.280   6.520 -0.0340 -0.0664 -0.4845
 2841THY    HP271008   2.493   4.318   6.623  0.9812 -1.1507 -0.0541
 2841THY    HP371009   2.397   4.262   6.473 -0.2206 -0.9006  0.1851
 2841THY    HP471010   2.544   4.183   6.515 -0.5450 -0.2744 -1.7767
 2841THY    CP371011   2.708   4.394   6.509 -0.0136 -0.5170 -0.2714
 2841THY    HP571012   2.711   4.388   6.618 -2.5783 -0.0086 -0.1073
 2841THY    HP671013   2.760   4.306   6.470  0.2852  0.3235 -1.8571
 2841THY    HP771014   2.762   4.487   6.487  3.0398 -1.7508  1.4722
 2841THY    CA371015   2.593   4.250   6.235  0.3952  0.1479 -0.5567
 2841THY    HA371016   2.644   4.172   6.291  0.6658  0.1628 -0.7810
 2841THY    CA471017   2.600   4.238   6.097  0.8896  0.3899 -0.5339
 2841THY    HA471018   2.653   4.159   6.044 -0.2960 -0.9966  0.3043
 2841THY    CA571019   2.547   4.340   6.018  0.3553  0.0312 -0.8044
 2841THY    CM171020   2.555   4.332   5.869  0.6932 -0.3850 -0.6429
 2841THY    HM171021   2.613   4.243   5.841 -0.7252 -1.5579  0.0280
 2841THY    HM271022   2.456   4.330   5.821  0.2368  1.0202  0.1719
 2841THY    HM371023   2.609   4.417   5.825 -2.5537  3.0060  1.3836
 2841THY    CA671024   2.502   4.458   6.078 -0.2545 -0.2593  0.6841
 2841THY    HA671025   2.468   4.537   6.011 -0.6790  0.5243  1.7927
 2842THY      O71026   6.664   6.508   4.712  0.4911 -0.1723  0.1851
 2842THY     HO71027   6.752   6.468   4.706  1.0270  0.8122  1.0309
 2842THY    CA171028   6.638   6.563   4.592  0.1819 -0.1470 -0.1789
 2842THY    CA271029   6.554   6.672   4.578 -0.6150 -0.5877  0.0579
 2842THY    CP171030   6.468   6.708   4.702 -0.2704 -0.7872  0.1814
 2842THY    HP171031   6.432   6.622   4.759 -0.2531  0.3336  1.9675
 2842THY    CP271032   6.538   6.806   4.794 -0.4792  0.8991 -0.4500
 2842THY    HP271033   6.554   6.900   4.739  0.4986  0.2562 -1.3121
 2842THY    HP371034   6.477   6.803   4.885  0.8926 -1.7500  0.5048
 2842THY    HP471035   6.639   6.770   4.817 -0.2320  1.0377 -1.2807
 2842THY    CP371036   6.338   6.774   4.658  0.2311 -0.6037 -0.3151
 2842THY    HP571037   6.271   6.794   4.742  0.4608 -1.0097 -0.0261
 2842THY    HP671038   6.353   6.868   4.605  0.0208 -0.6071 -0.3823
 2842THY    HP771039   6.291   6.699   4.593  3.5879 -2.4182 -0.9157
 2842THY    CA371040   6.539   6.739   4.450 -0.4843 -0.5326  0.1673
 2842THY    HA371041   6.471   6.822   4.433 -0.3996 -0.7582 -1.3213
 2842THY    CA471042   6.622   6.695   4.350 -0.3324 -1.0424 -0.2548
 2842THY    HA471043   6.610   6.746   4.254  0.0707 -0.8339 -0.1977
 2842THY    CA571044   6.703   6.584   4.363  0.1139  0.6335  0.8602
 2842THY    CM171045   6.795   6.545   4.250 -0.0733 -0.5504  0.4593
 2842THY    HM171046   6.741   6.530   4.156  0.7477  0.9895 -0.2937
 2842THY    HM271047   6.876   6.617   4.235 -0.5991 -0.0700 -0.1032
 2842THY    HM371048   6.845   6.449   4.266 -0.0047 -1.1425 -2.7399
 2842THY    CA671049   6.715   6.518   4.488  0.0712 -0.2974  0.7069
 2842THY    HA671050   6.785   6.436   4.500  1.1895  0.6766  1.0270
 2843THY      O71051   5.602   2.343   9.532  0.6202  0.0988  0.6773
 2843THY     HO71052   5.510   2.317   9.551  0.5870 -1.9545 -1.7716
 2843THY    CA171053   5.667   2.333   9.648 -0.0884 -0.3429  0.0643
 2843THY    CA271054   5.792   2.392   9.658  0.0544 -0.1483 -0.5288
 2843THY    CP171055   5.850   2.479   9.542 -0.4911  0.2976 -0.3925
 2843THY    HP171056   5.770   2.507   9.473  1.6386  1.5645 -2.5219
 2843THY    CP271057   5.916   2.607   9.591  0.3422  0.1755 -0.2612
 2843THY    HP271058   5.861   2.650   9.676  2.2697  0.7456  0.7515
 2843THY    HP371059   6.018   2.598   9.629  0.4712  1.1947 -0.3233
 2843THY    HP471060   5.913   2.685   9.514  0.8189  0.9877  0.5288
 2843THY    CP371061   5.942   2.389   9.452 -0.0590  0.0580 -0.2422
 2843THY    HP571062   5.997   2.462   9.392 -0.3189 -0.0326 -0.5968
 2843THY    HP671063   6.003   2.327   9.519 -2.9374 -2.0014  0.7039
 2843THY    HP771064   5.890   2.318   9.386  3.1619 -1.2431 -1.6127
 2843THY    CA371065   5.857   2.380   9.780 -0.3409 -0.6143  0.1238
 2843THY    HA371066   5.950   2.434   9.795 -0.8248  0.2660  0.0151
 2843THY    CA471067   5.809   2.295   9.882  0.6669 -0.2207 -0.0376
 2843THY    HA471068   5.873   2.280   9.969  2.3413 -2.1396 -1.5072
 2843THY    CA571069   5.675   2.236   9.864 -0.6196  0.5837  0.7248
 2843THY    CM171070   5.626   2.124   9.967  0.1885  0.1436  0.7284
 2843THY    HM171071   5.630   2.023   9.924  0.9818  0.7344 -0.6386
 2843THY    HM271072   5.681   2.134  10.061 -0.2175  3.0045  0.7460
 2843THY    HM371073   5.522   2.151   9.985  0.3950  1.8850 -0.4559
 2843THY    CA671074   5.610   2.253   9.742 -0.7876 -1.0944 -0.0829
 2843THY    HA671075   5.530   2.183   9.717  0.0949 -2.1126 -0.1272
 2844THY      O71076   5.306   2.043   0.678  0.5886  0.2611 -1.0680
 2844THY     HO71077   5.263   1.976   0.623  1.0243  0.3814 -1.5560
 2844THY    CA171078   5.209   2.091   0.767 -0.5298  0.6638 -0.3629
 2844THY    CA271079   5.223   2.075   0.914  0.4693 -0.0479 -0.7322
 2844THY    CP171080   5.344   2.021   0.990  0.0287  0.5290  0.3016
 2844THY    HP171081   5.428   2.056   0.929  0.6512 -0.8177  0.3508
 2844THY    CP271082   5.368   2.074   1.134  0.1111 -0.3048 -0.0058
 2844THY    HP271083   5.363   2.183   1.142 -0.5336 -0.3762  0.7786
 2844THY    HP371084   5.296   2.031   1.205 -1.5471  0.7373 -0.9700
 2844THY    HP471085   5.467   2.044   1.170 -0.0797 -1.2648 -0.2494
 2844THY    CP371086   5.349   1.871   0.981  0.0427 -0.0472 -0.8556
 2844THY    HP571087   5.317   1.837   0.882 -0.9004 -2.2404  0.1302
 2844THY    HP671088   5.450   1.836   1.008  0.2817  0.8051 -0.6096
 2844THY    HP771089   5.288   1.832   1.064 -0.5518  0.0444 -1.2438
 2844THY    CA371090   5.114   2.121   0.992  0.4180  0.6571  0.5716
 2844THY    HA371091   5.121   2.116   1.100  3.1026 -0.4285  0.4392
 2844THY    CA471092   5.002   2.176   0.932  0.4828 -0.0623  0.7218
 2844THY    HA471093   4.909   2.201   0.982 -3.4355 -1.0971 -5.0569
 2844THY    CA571094   4.997   2.195   0.789 -0.6130  0.3628  0.0688
 2844THY    CM171095   4.872   2.247   0.730  0.5272 -0.1396  0.3884
 2844THY    HM171096   4.866   2.188   0.638  0.5655 -1.3644  1.1411
 2844THY    HM271097   4.780   2.220   0.783  0.9458 -3.8134 -0.4760
 2844THY    HM371098   4.880   2.348   0.689 -2.0880 -0.1490 -0.3171
 2844THY    CA671099   5.101   2.148   0.704 -0.3603  1.1810 -0.8992
 2844THY    HA671100   5.102   2.159   0.596  1.5349 -3.5233 -1.6043
 2845THY      O71101   9.554   5.871   6.736 -0.4674 -0.1620 -0.3513
 2845THY     HO71102   9.466   5.855   6.775  0.1343  2.0085  2.2088
 2845THY    CA171103   9.601   5.749   6.692 -0.3231  0.8097 -0.4107
 2845THY    CA271104   9.669   5.725   6.570 -0.1384 -0.8969  0.3876
 2845THY    CP171105   9.731   5.843   6.489  0.2343 -0.3860  0.4531
 2845THY    HP171106   9.697   5.937   6.534  0.0261 -0.0375 -0.3996
 2845THY    CP271107   9.880   5.841   6.492 -1.2721 -0.2114 -0.0024
 2845THY    HP271108   9.925   5.920   6.430 -1.4401  0.4665  0.7206
 2845THY    HP371109   9.922   5.847   6.593  3.3672 -1.6115 -1.5993
 2845THY    HP471110   9.914   5.744   6.454 -1.2126  0.2647 -1.2102
 2845THY    CP371111   9.671   5.858   6.357 -0.4774  0.7674  0.1475
 2845THY    HP571112   9.714   5.785   6.288 -2.2235  0.8106 -1.0575
 2845THY    HP671113   9.562   5.843   6.357 -0.4271  0.1705 -1.8626
 2845THY    HP771114   9.701   5.956   6.317 -1.1667  1.7160  1.8101
 2845THY    CA371115   9.692   5.591   6.541 -0.1735  0.0205  0.0651
 2845THY    HA371116   9.739   5.557   6.449  0.5129  1.2065 -0.0443
 2845THY    CA471117   9.655   5.485   6.628 -0.5692  0.0071  0.3741
 2845THY    HA471118   9.679   5.382   6.604 -2.0527 -0.5534  1.1901
 2845THY    CA571119   9.585   5.512   6.750  0.1984 -0.2120  0.3817
 2845THY    CM171120   9.553   5.395   6.837  0.0346 -0.2768 -0.8037
 2845THY    HM171121   9.551   5.416   6.945  0.2756  0.3361 -0.9145
 2845THY    HM271122   9.451   5.358   6.822 -0.3796 -0.7121  2.3257
 2845THY    HM371123   9.628   5.317   6.822  0.4079 -0.2976  0.9196
 2845THY    CA671124   9.565   5.645   6.782 -0.1387  0.2309 -1.1222
 2845THY    HA671125   9.515   5.673   6.874 -0.7670 -0.7919 -1.1334
 2846THY      O71126   6.423   9.411   2.778  0.9068 -0.0314  0.1135
 2846THY     HO71127   6.453   9.319   2.766  0.8675  0.0585 -0.7678
 2846THY    CA171128   6.427   9.447   2.910 -0.6572 -0.6084  0.4907
 2846THY    CA271129   6.471   9.570   2.956  0.7408 -0.2614 -0.0575
 2846THY    CP171130   6.533   9.664   2.863  0.2669 -0.6807 -0.6570
 2846THY    HP171131   6.534   9.639   2.756 -0.5843 -1.3559 -0.5186
 2846THY    CP271132   6.466   9.801   2.875 -0.2227  0.5965  0.3389
 2846THY    HP271133   6.512   9.870   2.947  0.6107  0.0853  0.3063
 2846THY    HP371134   6.479   9.860   2.783  0.0721  1.4100  0.8860
 2846THY    HP471135   6.360   9.793   2.903 -0.2165  2.9720  1.2909
 2846THY    CP371136   6.679   9.672   2.898 -0.4033 -0.2819  0.0797
 2846THY    HP571137   6.715   9.569   2.895 -0.6461 -0.3693  0.1267
 2846THY    HP671138   6.743   9.739   2.840  1.6731 -0.4810  2.0105
 2846THY    HP771139   6.704   9.704   3.000  0.8953  3.8625 -1.3180
 2846THY    CA371140   6.468   9.599   3.098  0.3448  0.0475 -0.7372
 2846THY    HA371141   6.489   9.696   3.142 -0.8584 -0.2122  0.4636
 2846THY    CA471142   6.435   9.497   3.192  0.3893 -0.7122  0.2188
 2846THY    HA471143   6.426   9.517   3.298 -1.2507  2.5806 -0.3963
 2846THY    CA571144   6.392   9.375   3.145  0.3329  0.2353  0.1146
 2846THY    CM171145   6.346   9.267   3.245  0.1865  0.5013 -0.9274
 2846THY    HM171146   6.277   9.313   3.317 -1.3829  1.9955 -3.2357
 2846THY    HM271147   6.307   9.175   3.200  0.3193 -0.2148  0.3760
 2846THY    HM371148   6.439   9.239   3.296 -0.6172 -0.3376  0.1114
 2846THY    CA671149   6.388   9.354   3.006  0.5409  0.9491 -0.2101
 2846THY    HA671150   6.363   9.257   2.965 -1.1630  0.2789  2.1830
 2847THY      O71151   2.257   8.289   2.825 -0.1836 -0.0547  0.0291
 2847THY     HO71152   2.214   8.238   2.897 -1.5352  0.9093 -0.0682
 2847THY    CA171153   2.156   8.351   2.762 -0.3840 -0.6728  0.5367
 2847THY    CA271154   2.186   8.477   2.707 -0.6782 -0.3020  0.5862
 2847THY    CP171155   2.330   8.521   2.699  0.1819 -0.7054  0.8076
 2847THY    HP171156   2.392   8.432   2.682 -1.2332 -1.3437 -1.4583
 2847THY    CP271157   2.351   8.609   2.578 -0.1281  0.4780  0.2902
 2847THY    HP271158   2.292   8.700   2.561  0.7550  1.4035  1.9858
 2847THY    HP371159   2.456   8.640   2.578  0.0949 -0.2591 -0.1792
 2847THY    HP471160   2.347   8.539   2.494 -0.0385  1.1833 -0.3124
 2847THY    CP371161   2.365   8.613   2.819 -0.2292 -0.4530  0.6185
 2847THY    HP571162   2.473   8.628   2.820 -0.2599  0.2150 -1.7903
 2847THY    HP671163   2.319   8.712   2.807 -1.3427 -0.7914  1.8567
 2847THY    HP771164   2.338   8.576   2.919  1.7862 -2.3400  0.5222
 2847THY    CA371165   2.077   8.548   2.646  0.0618 -0.0721 -0.2686
 2847THY    HA371166   2.087   8.651   2.615  2.1376  0.4691  1.9564
 2847THY    CA471167   1.947   8.495   2.653  0.6465  0.3783 -0.3736
 2847THY    HA471168   1.866   8.547   2.602 -0.8820 -0.2038  1.3632
 2847THY    CA571169   1.921   8.368   2.701  0.2491 -0.2795  0.5988
 2847THY    CM171170   1.776   8.309   2.690  0.2990  0.0048 -0.0495
 2847THY    HM171171   1.768   8.222   2.756 -0.7917  0.3552  0.3065
 2847THY    HM271172   1.700   8.377   2.731 -0.9922 -0.4420 -1.6232
 2847THY    HM371173   1.748   8.283   2.587  0.1147 -0.6732  0.1681
 2847THY    CA671174   2.029   8.297   2.756 -0.0363 -0.7605 -0.2831
 2847THY    HA671175   2.022   8.199   2.802  1.3621 -0.7242  0.0328
 2848THY      O71176   5.245   4.041   8.760 -0.0078 -0.0833  0.0013
 2848THY     HO71177   5.188   4.023   8.683 -0.7881  1.1115  0.2697
 2848THY    CA171178   5.162   3.992   8.862  0.2147  0.9677 -1.0095
 2848THY    CA271179   5.214   3.981   8.995 -0.5166 -0.2607  0.2035
 2848THY    CP171180   5.363   4.006   9.022 -0.5542  0.4477 -0.2503
 2848THY    HP171181   5.403   4.067   8.940  3.1293  0.9519  1.7124
 2848THY    CP271182   5.386   4.082   9.154  0.9089 -0.3199  0.6473
 2848THY    HP271183   5.325   4.173   9.152  0.6997 -0.4378  1.4639
 2848THY    HP371184   5.351   4.019   9.236  0.9277 -2.0786 -0.6232
 2848THY    HP471185   5.491   4.105   9.173  0.2851  2.0201  1.5530
 2848THY    CP371186   5.442   3.871   9.026  0.2579 -1.0798 -0.4273
 2848THY    HP571187   5.426   3.828   9.125  0.3369 -4.0201 -1.5888
 2848THY    HP671188   5.414   3.798   8.950  0.7488 -0.4911 -1.1890
 2848THY    HP771189   5.551   3.882   9.016  0.1698 -0.7207 -1.0491
 2848THY    CA371190   5.124   3.945   9.097  0.7229  0.4482 -0.0330
 2848THY    HA371191   5.158   3.919   9.197 -1.1974  0.4689  0.6786
 2848THY    CA471192   4.989   3.910   9.066  0.3751  0.4048  0.1476
 2848THY    HA471193   4.915   3.880   9.139 -0.4437  0.6098 -0.5908
 2848THY    CA571194   4.946   3.925   8.936 -0.2321 -0.7915  0.1421
 2848THY    CM171195   4.813   3.891   8.899  0.3264  0.1041 -0.1511
 2848THY    HM171196   4.744   3.892   8.984  1.7858  0.8858  1.0856
 2848THY    HM271197   4.775   3.970   8.832  3.8312  0.0520 -2.4956
 2848THY    HM371198   4.818   3.793   8.851  0.9206 -0.4641  1.0434
 2848THY    CA671199   5.033   3.962   8.831  0.0324 -0.1520  0.0995
 2848THY    HA671200   4.988   3.967   8.732  0.6368 -0.4160 -0.1976
 2849THY      O71201   0.216   7.801   2.310  0.1505  0.1723  0.3016
 2849THY     HO71202   0.135   7.804   2.364 -1.0774  0.9110 -1.4961
 2849THY    CA171203   0.283   7.917   2.329 -0.5506 -0.0847 -0.9368
 2849THY    CA271204   0.420   7.921   2.334 -0.0660 -0.2366 -0.4400
 2849THY    CP171205   0.507   7.790   2.330 -0.1390  0.4492 -0.5885
 2849THY    HP171206   0.461   7.708   2.272  1.0556 -1.0143  0.4348
 2849THY    CP271207   0.643   7.821   2.265 -0.6288  0.7094 -0.6962
 2849THY    HP271208   0.707   7.880   2.332 -1.2813 -0.2207  0.7903
 2849THY    HP371209   0.697   7.733   2.227 -1.0762 -0.2570  0.8227
 2849THY    HP471210   0.620   7.875   2.173  2.0410  1.7079 -0.8802
 2849THY    CP371211   0.531   7.737   2.479 -0.3268  0.1923  0.2718
 2849THY    HP571212   0.587   7.815   2.533 -1.3186  0.8687  0.3468
 2849THY    HP671213   0.437   7.727   2.534 -0.8791 -1.1845 -0.8656
 2849THY    HP771214   0.582   7.641   2.477 -0.5072  0.0983 -1.1548
 2849THY    CA371215   0.478   8.050   2.369  0.3837  0.4751 -0.0239
 2849THY    HA371216   0.587   8.048   2.375  0.3267 -1.0564  1.2857
 2849THY    CA471217   0.406   8.169   2.372  0.5421  0.3394  0.0229
 2849THY    HA471218   0.456   8.265   2.377  1.6898 -0.0630 -2.0252
 2849THY    CA571219   0.268   8.156   2.361  0.2319  0.4705  0.8191
 2849THY    CM171220   0.190   8.284   2.379 -0.0195 -0.4054  0.0763
 2849THY    HM171221   0.195   8.346   2.289  1.9502  0.8925  1.0082
 2849THY    HM271222   0.085   8.258   2.397  0.0023 -0.3460  0.2978
 2849THY    HM371223   0.222   8.332   2.472  0.7277  0.4209 -0.5925
 2849THY    CA671224   0.207   8.032   2.346  0.0020  0.2726  0.0992
 2849THY    HA671225   0.098   8.031   2.344 -0.0519 -1.8985 -2.6511
 2850THY      O71226   1.357   4.733   9.451 -0.2048 -0.0602  0.0535
 2850THY     HO71227   1.442   4.692   9.474 -0.8347 -0.6791  1.3149
 2850THY    CA171228   1.361   4.754   9.315  0.5324 -0.4022  0.7983
 2850THY    CA271229   1.269   4.834   9.240  0.3585 -0.4049 -0.3541
 2850THY    CP171230   1.149   4.899   9.312 -0.1976 -0.6388 -0.2966
 2850THY    HP171231   1.118   4.835   9.395 -0.3163 -0.8509 -0.5021
 2850THY    CP271232   1.202   5.033   9.364  0.1439 -0.3262  1.2083
 2850THY    HP271233   1.136   5.072   9.442 -2.1438  0.9578 -1.1894
 2850THY    HP371234   1.300   5.027   9.413  0.4151  0.5033  0.7832
 2850THY    HP471235   1.206   5.103   9.280 -0.5908 -0.6342  0.9076
 2850THY    CP371236   1.014   4.921   9.236 -0.7070 -0.5140  0.4298
 2850THY    HP571237   1.012   4.986   9.148  0.5671 -1.0151  0.0180
 2850THY    HP671238   0.976   4.825   9.198 -0.5601 -0.2357 -0.4365
 2850THY    HP771239   0.936   4.964   9.300 -0.5441  3.8930 -1.9725
 2850THY    CA371240   1.295   4.855   9.102  0.6186  0.4181  0.6995
 2850THY    HA371241   1.238   4.925   9.042 -0.3169 -0.1267  0.9343
 2850THY    CA471242   1.403   4.789   9.040  0.5633  0.0673 -0.1626
 2850THY    HA471243   1.434   4.817   8.940  2.3296  0.8440  0.5655
 2850THY    CA571244   1.495   4.712   9.117 -0.1068  0.0016  0.9205
 2850THY    CM171245   1.608   4.646   9.045  0.3790  0.0704  0.6701
 2850THY    HM171246   1.605   4.633   8.936  1.0902 -0.0883  0.6647
 2850THY    HM271247   1.707   4.692   9.054 -0.2812  3.2243 -4.0469
 2850THY    HM371248   1.603   4.540   9.072  0.9321 -0.0940  0.1615
 2850THY    CA671249   1.470   4.686   9.251  0.2670  0.0891 -0.1909
 2850THY    HA671250   1.535   4.622   9.310 -0.6338  0.4034  1.1745
 2851THY      O71251   9.871   7.534   0.750 -0.0800  0.4518  0.4747
 2851THY     HO71252   9.904   7.560   0.662  2.0772 -2.9048  0.1286
 2851THY    CA171253   9.798   7.632   0.797  0.1715  0.0142  0.8719
 2851THY    CA271254   9.792   7.670   0.933  0.3593  0.3292  0.4213
 2851THY    CP171255   9.866   7.602   1.044  0.3077 -0.1839  0.0588
 2851THY    HP171256   9.879   7.497   1.013  1.4785 -0.6495  1.9441
 2851THY    CP271257  10.005   7.659   1.067  0.0436 -0.0364  0.8130
 2851THY    HP271258   9.996   7.755   1.120  0.8677  0.9355 -0.7325
 2851THY    HP371259  10.059   7.585   1.127 -0.4836  0.3700  1.8206
 2851THY    HP471260  10.062   7.660   0.974 -0.0764 -0.8224  0.7303
 2851THY    CP371261   9.789   7.583   1.177  0.8639 -0.3293 -0.0401
 2851THY    HP571262   9.682   7.566   1.161  0.9613 -0.8707 -0.1140
 2851THY    HP671263   9.827   7.501   1.238 -1.2610 -0.4160  1.2845
 2851THY    HP771264   9.783   7.677   1.233  0.5356 -1.7142  2.3601
 2851THY    CA371265   9.703   7.783   0.963  0.1120  0.3261 -1.0551
 2851THY    HA371266   9.689   7.805   1.069  1.2203 -2.4017 -0.2594
 2851THY    CA471267   9.625   7.846   0.863  0.2602  0.7308 -0.3700
 2851THY    HA471268   9.542   7.910   0.890 -1.3926 -1.3325 -0.2889
 2851THY    CA571269   9.628   7.797   0.734  0.3963 -0.2773 -0.1996
 2851THY    CM171270   9.534   7.860   0.629  0.5052  0.4595  0.1710
 2851THY    HM171271   9.468   7.781   0.591  2.8935 -0.8570 -1.5493
 2851THY    HM271272   9.477   7.933   0.687  1.5016  0.1201  1.6425
 2851THY    HM371273   9.586   7.908   0.545  0.0356 -0.0314 -0.4104
 2851THY    CA671274   9.711   7.695   0.702  0.2188  0.0981  0.7591
 2851THY    HA671275   9.720   7.672   0.596 -0.1929  1.1623  0.4819
 2852THY      O71276   9.738   9.179   3.961  0.7801  0.3628 -0.0435
 2852THY     HO71277   9.814   9.170   4.021 -0.4028 -0.4012  1.4193
 2852THY    CA171278   9.628   9.106   4.007  0.3074  0.0911 -0.1955
 2852THY    CA271279   9.583   8.995   3.928  0.3540  0.1132 -0.3595
 2852THY    CP171280   9.663   8.941   3.813  0.0099 -0.2825  0.3276
 2852THY    HP171281   9.767   8.973   3.802 -0.4566  1.6637  1.0856
 2852THY    CP271282   9.695   8.787   3.822  0.3055 -0.9551 -0.2912
 2852THY    HP271283   9.770   8.769   3.901 -0.0692 -0.1170  0.2807
 2852THY    HP371284   9.604   8.727   3.833 -0.3772 -0.4498 -2.6444
 2852THY    HP471285   9.748   8.756   3.732  1.6740  3.0036 -1.0690
 2852THY    CP371286   9.584   8.974   3.685 -0.4027 -0.1284  0.1134
 2852THY    HP571287   9.582   9.083   3.673 -0.2877 -0.2330 -0.9498
 2852THY    HP671288   9.658   8.942   3.611 -0.4858  2.5552 -1.2586
 2852THY    HP771289   9.484   8.928   3.678 -2.2727  3.6848 -1.0311
 2852THY    CA371290   9.471   8.922   3.979 -0.3233  0.2388  0.4680
 2852THY    HA371291   9.433   8.831   3.934  0.8558 -0.3382  0.5874
 2852THY    CA471292   9.405   8.968   4.091  0.5213 -0.1144  0.5351
 2852THY    HA471293   9.307   8.925   4.108  1.0242 -2.2851 -1.5399
 2852THY    CA571294   9.452   9.079   4.167  0.5066  0.0773 -0.1781
 2852THY    CM171295   9.398   9.132   4.292 -0.3023 -0.7930 -0.8424
 2852THY    HM171296   9.459   9.094   4.375  1.7342  0.8072 -1.5224
 2852THY    HM271297   9.404   9.242   4.292 -1.0948 -0.6645  1.7446
 2852THY    HM371298   9.291   9.108   4.301 -0.1777 -0.8948  0.7079
 2852THY    CA671299   9.574   9.140   4.128 -0.1900  0.1535 -0.3125
 2852THY    HA671300   9.619   9.221   4.185  1.2498 -0.6995 -0.1907
 2853THY      O71301   3.043   7.256   9.850  0.2330 -0.0538  0.3618
 2853THY     HO71302   3.015   7.269   9.943 -0.1709  0.5211  0.1684
 2853THY    CA171303   3.168   7.304   9.847  0.8967  0.4036  0.5851
 2853THY    CA271304   3.253   7.307   9.731 -0.2797  0.3519 -0.9786
 2853THY    CP171305   3.214   7.249   9.596  0.0353  0.7157 -0.2288
 2853THY    HP171306   3.110   7.216   9.608  0.2130  0.4159  0.4976
 2853THY    CP271307   3.217   7.351   9.476 -0.1612  0.1603  0.4601
 2853THY    HP271308   3.188   7.451   9.510  0.8809  0.0215  1.8194
 2853THY    HP371309   3.313   7.372   9.428 -0.4858  1.1204  0.2056
 2853THY    HP471310   3.137   7.327   9.404 -1.9471  2.5509  1.4996
 2853THY    CP371311   3.305   7.130   9.570 -0.2570  0.1908  0.0688
 2853THY    HP571312   3.303   7.059   9.653 -0.3910  0.9086  0.6853
 2853THY    HP671313   3.269   7.084   9.477  0.3011 -0.8674  0.3579
 2853THY    HP771314   3.411   7.153   9.554 -0.0627 -0.5048  0.3188
 2853THY    CA371315   3.382   7.364   9.747  0.0094  0.3719 -0.4898
 2853THY    HA371316   3.445   7.359   9.658 -1.3446  1.4549 -1.5710
 2853THY    CA471317   3.438   7.404   9.869  0.0817  0.1953  0.1424
 2853THY    HA471318   3.542   7.428   9.892 -0.1216  1.7028 -0.3725
 2853THY    CA571319   3.350   7.398   9.980  0.0620  0.1425  0.7717
 2853THY    CM171320   3.393   7.419  10.122  0.2103  0.4319 -0.5032
 2853THY    HM171321   3.371   7.338  10.192  2.5199  0.7678  0.6989
 2853THY    HM271322   3.501   7.439  10.128  0.3569 -0.2234 -0.8299
 2853THY    HM371323   3.338   7.505  10.159  1.6561  0.6853  1.1822
 2853THY    CA671324   3.214   7.366   9.962 -0.7460  0.5187 -0.4977
 2853THY    HA671325   3.143   7.369  10.044  1.1555  0.5187  1.2152
 2854THY      O71326   7.878   3.075   2.412  0.1999 -0.1385  0.1116
 2854THY     HO71327   7.815   3.128   2.360  1.2181 -0.4547 -1.5190
 2854THY    CA171328   7.815   3.046   2.536 -0.4056 -0.3815 -0.8788
 2854THY    CA271329   7.846   2.929   2.611 -0.1062 -0.2327 -0.2299
 2854THY    CP171330   7.954   2.826   2.564  0.2640  0.3534 -0.2781
 2854THY    HP171331   8.039   2.886   2.529 -0.2062  1.4048  0.3445
 2854THY    CP271332   8.014   2.746   2.678  0.8822  0.5525  0.2659
 2854THY    HP271333   8.107   2.707   2.636  0.8684 -0.0484  0.7920
 2854THY    HP371334   8.022   2.803   2.771 -0.1874  2.3110 -0.6479
 2854THY    HP471335   7.945   2.664   2.700  1.6689  0.1854  1.4243
 2854THY    CP371336   7.908   2.747   2.442  0.1298  0.1501  0.6646
 2854THY    HP571337   7.809   2.701   2.455  0.0883  0.1381  0.3028
 2854THY    HP671338   7.894   2.818   2.360 -0.2253  1.8041  2.0859
 2854THY    HP771339   7.988   2.675   2.421  1.1794  0.4948  3.0509
 2854THY    CA371340   7.776   2.901   2.728 -0.1582 -1.3344 -0.2379
 2854THY    HA371341   7.783   2.810   2.787  1.8085 -0.3431  1.2060
 2854THY    CA471342   7.668   2.989   2.763 -0.3628 -0.0766 -0.1533
 2854THY    HA471343   7.621   2.955   2.855  2.1122 -1.8728  0.5767
 2854THY    CA571344   7.647   3.115   2.697  0.4285  0.3438  1.0410
 2854THY    CM171345   7.542   3.203   2.737  0.0662  0.3026  0.2342
 2854THY    HM171346   7.486   3.229   2.646  0.0741  1.4648  0.5469
 2854THY    HM271347   7.471   3.155   2.805 -1.0160  1.5594  0.0440
 2854THY    HM371348   7.575   3.300   2.776  0.4384  0.4117 -0.3387
 2854THY    CA671349   7.721   3.139   2.577  0.2908 -0.1088 -0.4351
 2854THY    HA671350   7.693   3.220   2.511  0.0776  0.2968  0.1395
 2855THY      O71351   6.276   1.767   3.065 -0.2016 -0.6789  0.5697
 2855THY     HO71352   6.187   1.799   3.082  1.0047  3.2122  0.3997
 2855THY    CA171353   6.270   1.687   2.949 -0.2478 -0.6734 -0.3494
 2855THY    CA271354   6.380   1.666   2.858  0.1919 -0.0103 -1.0997
 2855THY    CP171355   6.523   1.722   2.889  0.3078  0.3655  0.4598
 2855THY    HP171356   6.527   1.755   2.993  0.0660  1.5241  0.1088
 2855THY    CP271357   6.631   1.617   2.870  0.3968 -0.3046 -0.0208
 2855THY    HP271358   6.602   1.524   2.921 -1.2389 -0.7709 -1.6729
 2855THY    HP371359   6.641   1.592   2.764 -1.6149 -3.0124  0.3067
 2855THY    HP471360   6.727   1.661   2.900 -0.7663  1.6833  0.9585
 2855THY    CP371361   6.574   1.849   2.819 -0.1249  0.5472  0.4407
 2855THY    HP571362   6.620   1.824   2.722  1.7227  1.8678  0.9191
 2855THY    HP671363   6.490   1.919   2.810 -0.5028 -0.0333 -0.9389
 2855THY    HP771364   6.660   1.888   2.874  1.1795  0.2720 -1.3196
 2855THY    CA371365   6.359   1.603   2.734 -0.1541  0.0079  0.3750
 2855THY    HA371366   6.442   1.593   2.664 -0.5467 -0.7537  0.0091
 2855THY    CA471367   6.234   1.537   2.704  0.5012 -0.3957 -0.2924
 2855THY    HA471368   6.228   1.471   2.618  1.1138 -0.1205 -0.5551
 2855THY    CA571369   6.129   1.556   2.798 -0.0602  0.7842 -0.4683
 2855THY    CM171370   5.993   1.501   2.767 -0.6202  0.1638 -0.2786
 2855THY    HM171371   5.956   1.452   2.858  1.9523 -0.3805  0.5735
 2855THY    HM271372   5.916   1.567   2.727 -1.6999 -0.0307  1.3727
 2855THY    HM371373   6.002   1.420   2.694  0.0632  0.0923 -0.1274
 2855THY    CA671374   6.148   1.635   2.912  0.2759 -0.0753  0.0198
 2855THY    HA671375   6.065   1.647   2.980  1.2269  2.9116  0.7761
 2856THY      O71376   8.052   7.168   1.857 -0.2548 -0.4733 -0.0354
 2856THY     HO71377   8.144   7.151   1.883 -0.1423  0.6250  0.3704
 2856THY    CA171378   8.029   7.289   1.903 -0.9081  0.0850 -0.6338
 2856THY    CA271379   7.896   7.328   1.943 -0.6902 -0.1521  0.2467
 2856THY    CP171380   7.777   7.230   1.919 -0.8468 -0.1456 -0.2388
 2856THY    HP171381   7.784   7.163   1.833 -0.7796  1.7344 -1.7490
 2856THY    CP271382   7.768   7.131   2.032 -0.2835 -0.8113  0.1140
 2856THY    HP271383   7.858   7.069   2.044  1.8217  1.7025 -1.5034
 2856THY    HP371384   7.767   7.190   2.124 -0.6083  1.0225 -1.0143
 2856THY    HP471385   7.681   7.067   2.016 -0.9048  0.3984 -1.6548
 2856THY    CP371386   7.644   7.304   1.897 -0.2498 -0.4436 -0.2296
 2856THY    HP571387   7.622   7.367   1.984  0.5187 -0.4734 -0.0077
 2856THY    HP671388   7.653   7.363   1.805  0.0159 -2.8126 -1.8032
 2856THY    HP771389   7.562   7.232   1.885  0.6305 -1.8840  1.8857
 2856THY    CA371390   7.886   7.461   1.991 -0.4953 -0.6371  0.0075
 2856THY    HA371391   7.788   7.504   2.010 -1.0719 -1.7946 -0.2906
 2856THY    CA471392   8.000   7.544   2.003 -0.4429 -0.1320  0.0376
 2856THY    HA471393   7.990   7.645   2.042 -0.0351  0.4333 -1.2704
 2856THY    CA571394   8.125   7.496   1.970  0.2659  0.1417 -0.5264
 2856THY    CM171395   8.250   7.584   1.963  0.1952 -0.1609  0.3733
 2856THY    HM171396   8.268   7.601   1.856 -2.6232 -0.0574 -0.1726
 2856THY    HM271397   8.242   7.682   2.013  0.5144  0.4584 -0.7529
 2856THY    HM371398   8.331   7.521   1.999 -0.3875  0.5499  3.2294
 2856THY    CA671399   8.136   7.366   1.922 -0.1897  0.0717 -0.2422
 2856THY    HA671400   8.237   7.335   1.900  0.7453  3.8274 -1.8700
 2857THY      O71401   5.823   8.409   0.737 -0.5811 -0.0440 -0.3691
 2857THY     HO71402   5.792   8.454   0.818  2.5281  0.6189  0.5645
 2857THY    CA171403   5.756   8.295   0.735  0.3786 -0.6047  0.0197
 2857THY    CA271404   5.761   8.195   0.632 -0.0941 -0.4248 -0.6494
 2857THY    CP171405   5.833   8.225   0.499 -0.3991 -0.1920 -0.4046
 2857THY    HP171406   5.860   8.331   0.494 -1.3401  0.1689  1.4103
 2857THY    CP271407   5.976   8.160   0.485  0.1646  0.2386  0.6566
 2857THY    HP271408   6.043   8.202   0.561  0.0303  3.0359 -0.6506
 2857THY    HP371409   5.975   8.050   0.495  1.7313  0.0842 -0.6518
 2857THY    HP471410   6.025   8.183   0.390 -1.7974 -3.5248 -1.5322
 2857THY    CP371411   5.754   8.184   0.370  0.4862  0.0176  0.6861
 2857THY    HP571412   5.758   8.075   0.357  0.8990  0.2951 -2.1508
 2857THY    HP671413   5.649   8.213   0.370  0.4754 -0.0150  0.5062
 2857THY    HP771414   5.805   8.231   0.285 -0.0087 -0.4888  0.0993
 2857THY    CA371415   5.681   8.083   0.649 -0.7194  0.0738  0.4042
 2857THY    HA371416   5.694   8.000   0.580 -0.6705  1.6605 -1.5812
 2857THY    CA471417   5.610   8.067   0.761 -0.0788  0.2695  0.0682
 2857THY    HA471418   5.569   7.966   0.769  2.0932 -0.5251  2.4232
 2857THY    CA571419   5.602   8.157   0.869 -0.9017  0.5821 -0.2729
 2857THY    CM171420   5.542   8.115   0.999 -0.5503  0.4328  0.7433
 2857THY    HM171421   5.529   8.205   1.060 -0.5107  0.8657  0.1241
 2857THY    HM271422   5.443   8.068   0.988 -0.2343 -0.4824  1.6961
 2857THY    HM371423   5.607   8.035   1.037  0.9830  0.5415 -1.4116
 2857THY    CA671424   5.680   8.276   0.856  0.2373 -0.2519 -0.1106
 2857THY    HA671425   5.693   8.339   0.943  0.8441 -0.5959  0.0566
 2858THY      O71426   9.124   4.160   7.254  0.5273  0.3794  0.3377
 2858THY     HO71427   9.055   4.160   7.322 -0.5376 -1.5744 -0.6323
 2858THY    CA171428   9.217   4.075   7.284  0.3417  0.3084 -0.1140
 2858THY    CA271429   9.323   4.042   7.199  0.4095 -0.2339  0.4660
 2858THY    CP171430   9.339   4.113   7.061  0.2724 -0.2257  0.3409
 2858THY    HP171431   9.295   4.213   7.075  0.3138 -0.1922  0.2358
 2858THY    CP271432   9.477   4.146   7.001  0.4166  0.5660 -0.5597
 2858THY    HP271433   9.545   4.177   7.082 -0.4122  2.2404 -0.4666
 2858THY    HP371434   9.526   4.053   6.970 -0.8443 -1.3806  2.7137
 2858THY    HP471435   9.471   4.227   6.928  0.2019  0.7035 -0.3913
 2858THY    CP371436   9.256   4.045   6.946 -0.6119  0.1712 -0.9153
 2858THY    HP571437   9.291   3.950   6.904  1.6327  0.0372  1.0339
 2858THY    HP671438   9.155   4.032   6.986 -0.1152 -1.0970  0.0092
 2858THY    HP771439   9.241   4.119   6.867 -0.4531  0.8649 -0.3180
 2858THY    CA371440   9.418   3.952   7.246 -0.8764 -0.3492 -0.5354
 2858THY    HA371441   9.511   3.926   7.196  0.1780 -2.0343  2.0502
 2858THY    CA471442   9.418   3.905   7.378 -0.1984 -0.2284 -0.2311
 2858THY    HA471443   9.496   3.839   7.414 -0.3386  0.9960  2.6108
 2858THY    CA571444   9.315   3.947   7.466 -0.2863  0.1518  0.7925
 2858THY    CM171445   9.333   3.912   7.614  0.3262 -0.1587  0.1014
 2858THY    HM171446   9.433   3.930   7.657  0.3820 -1.5710  0.5970
 2858THY    HM271447   9.263   3.968   7.678 -2.4228 -1.9422 -1.1718
 2858THY    HM371448   9.311   3.810   7.645  0.0700 -0.0168  0.3968
 2858THY    CA671449   9.215   4.026   7.417 -0.0143 -0.5421  0.0796
 2858THY    HA671450   9.128   4.052   7.476 -0.4882  1.1128 -1.2643
 2859THY      O71451   5.804   8.412   2.538 -0.1622  0.0452  0.2728
 2859THY     HO71452   5.742   8.461   2.482 -1.4875  0.2473  1.8196
 2859THY    CA171453   5.821   8.485   2.648  1.1428 -0.3877 -0.2364
 2859THY    CA271454   5.946   8.535   2.697  1.0533  0.2100  0.4957
 2859THY    CP171455   6.068   8.492   2.616  0.3815  0.2218  0.2789
 2859THY    HP171456   6.032   8.483   2.513 -0.8948 -1.2770  0.8149
 2859THY    CP271457   6.173   8.596   2.600  0.2582 -0.3027 -0.1660
 2859THY    HP271458   6.257   8.553   2.544 -0.1851 -3.8278  1.5625
 2859THY    HP371459   6.139   8.683   2.543  0.4504 -0.1227 -0.0095
 2859THY    HP471460   6.217   8.637   2.692  2.5217 -0.1012 -1.2598
 2859THY    CP371461   6.131   8.342   2.644  0.3865 -0.1732  0.2548
 2859THY    HP571462   6.047   8.272   2.635 -0.2358  0.2885  2.0678
 2859THY    HP671463   6.211   8.310   2.576  0.6274 -1.0369  0.9412
 2859THY    HP771464   6.156   8.328   2.749  1.8849  1.2635  0.1270
 2859THY    CA371465   5.941   8.629   2.805 -0.1908  0.1972  0.0854
 2859THY    HA371466   6.028   8.677   2.850  1.1214 -1.0362 -1.0085
 2859THY    CA471467   5.817   8.648   2.866  0.2973 -0.4524  0.0613
 2859THY    HA471468   5.808   8.719   2.948  1.5703 -1.2510  0.9182
 2859THY    CA571469   5.696   8.598   2.823 -0.4904 -0.8840  0.0412
 2859THY    CM171470   5.568   8.643   2.895 -0.6404  0.2021 -0.0157
 2859THY    HM171471   5.563   8.569   2.975  0.4381  2.0743  1.8767
 2859THY    HM271472   5.564   8.737   2.950 -0.0113 -0.6856  1.6258
 2859THY    HM371473   5.481   8.631   2.829 -0.3539  1.0222 -0.5520
 2859THY    CA671474   5.698   8.515   2.713 -0.3983 -0.7424 -0.2758
 2859THY    HA671475   5.598   8.480   2.691 -0.3748 -0.7502 -0.3740
 2860THY      O71476   8.832   2.110   4.365 -0.5669  0.2489  0.3937
 2860THY     HO71477   8.796   2.143   4.281 -0.3400  0.8719  0.5364
 2860THY    CA171478   8.960   2.090   4.348 -0.2211 -0.1239  0.2985
 2860THY    CA271479   9.048   2.042   4.447  0.6585 -1.0042  0.1634
 2860THY    CP171480   8.989   2.002   4.589  0.1370 -0.2643  0.3956
 2860THY    HP171481   8.886   2.039   4.599  0.1256 -0.1907  0.0015
 2860THY    CP271482   8.996   1.848   4.605 -1.3299 -0.6183  0.3907
 2860THY    HP271483   9.097   1.810   4.624 -0.2082  1.1036 -1.6918
 2860THY    HP371484   8.933   1.817   4.689 -1.1140 -0.0840  0.7546
 2860THY    HP471485   8.972   1.811   4.504 -0.1675 -0.8991  0.2060
 2860THY    CP371486   9.064   2.058   4.703 -0.0214 -0.1456 -0.1318
 2860THY    HP571487   9.086   2.165   4.695  3.6809 -0.7849 -0.2293
 2860THY    HP671488   9.015   2.033   4.799 -0.0150 -1.2136 -0.3914
 2860THY    HP771489   9.161   2.008   4.706 -0.4949 -1.0652  0.5870
 2860THY    CA371490   9.186   2.041   4.426 -0.0202 -0.0284 -0.0851
 2860THY    HA371491   9.247   2.020   4.512 -2.1627  0.2024  1.5714
 2860THY    CA471492   9.227   2.087   4.301  0.4711 -0.0886  0.1544
 2860THY    HA471493   9.334   2.079   4.283  0.5343  1.7586 -0.5573
 2860THY    CA571494   9.141   2.109   4.190  0.0481 -0.9900 -0.3274
 2860THY    CM171495   9.199   2.153   4.059  0.7252  0.3258 -0.2159
 2860THY    HM171496   9.114   2.152   3.991 -0.9224  1.4298  1.6989
 2860THY    HM271497   9.242   2.254   4.057  0.3558  0.5005  0.3594
 2860THY    HM371498   9.274   2.079   4.026  0.1786 -1.0264  1.4143
 2860THY    CA671499   9.008   2.114   4.219  0.0334  1.1920  0.4503
 2860THY    HA671500   8.936   2.147   4.144 -0.0430 -1.3847 -0.6878
 2861THY      O71501   3.231   0.319   4.608 -0.2430  0.1893  0.2270
 2861THY     HO71502   3.239   0.415   4.602 -0.1803  0.2306  0.8803
 2861THY    CA171503   3.127   0.289   4.528  0.0454 -0.8255 -0.2216
 2861THY    CA271504   3.049   0.170   4.542 -1.1063 -0.5801  0.8401
 2861THY    CP171505   3.068   0.073   4.661  0.3027  0.0801  0.3752
 2861THY    HP171506   3.147   0.120   4.721  1.0441 -0.2383 -0.3420
 2861THY    CP271507   2.939   0.062   4.750 -0.6083  0.1562 -0.6472
 2861THY    HP271508   2.894   0.162   4.757 -1.1483 -0.0405 -1.1811
 2861THY    HP371509   2.858   0.010   4.698  0.8358 -2.4721 -0.4228
 2861THY    HP471510   2.963   0.034   4.853  0.4566 -0.9776 -1.1684
 2861THY    CP371511   3.132  -0.066   4.632  0.2502  1.1108 -0.4472
 2861THY    HP571512   3.223  -0.052   4.574 -1.1439  0.2578 -3.0110
 2861THY    HP671513   3.152  -0.116   4.728  0.2825  2.8976  0.5133
 2861THY    HP771514   3.063  -0.127   4.572  0.1184  0.3209  0.4875
 2861THY    CA371515   2.951   0.137   4.444  0.0988  0.0456 -0.4737
 2861THY    HA371516   2.889   0.049   4.455 -0.2046  0.1846 -1.0234
 2861THY    CA471517   2.936   0.231   4.339  0.6281 -0.1249  0.2761
 2861THY    HA471518   2.864   0.213   4.261 -0.4253 -1.3086  1.4693
 2861THY    CA571519   3.017   0.348   4.325  0.6763 -1.0313  0.2225
 2861THY    CM171520   2.996   0.437   4.199  0.3747  0.2955 -0.4670
 2861THY    HM171521   3.016   0.543   4.217  1.8161  0.2016 -1.3622
 2861THY    HM271522   3.068   0.408   4.121  0.0062 -0.4622 -0.5363
 2861THY    HM371523   2.896   0.423   4.158 -0.5820 -2.0477  2.3486
 2861THY    CA671524   3.113   0.377   4.424 -0.4406 -0.6406 -0.0657
 2861THY    HA671525   3.187   0.454   4.404 -0.2766 -0.8905 -0.4435
 2862THY      O71526   9.475   6.943   3.044  0.0078  0.6503  0.2774
 2862THY     HO71527   9.406   7.010   3.057 -0.1077  0.5902 -0.0296
 2862THY    CA171528   9.465   6.861   3.151  0.2905  0.3026 -0.4884
 2862THY    CA271529   9.525   6.736   3.140  0.2090 -0.0756 -0.1619
 2862THY    CP171530   9.615   6.705   3.015  0.0477 -0.5907  0.5948
 2862THY    HP171531   9.571   6.748   2.924 -0.1282 -1.7064  0.1352
 2862THY    CP271532   9.763   6.743   3.046 -0.1278  0.4246  0.7112
 2862THY    HP271533   9.801   6.670   3.119 -0.3876 -0.2239  0.2009
 2862THY    HP371534   9.830   6.727   2.961  1.2847  3.3619  1.1411
 2862THY    HP471535   9.774   6.845   3.086 -1.7908  1.4986 -1.4165
 2862THY    CP371536   9.609   6.552   2.973 -0.0115 -0.6511 -0.1749
 2862THY    HP571537   9.662   6.489   3.045 -1.6445 -2.1650 -0.2482
 2862THY    HP671538   9.505   6.522   2.955 -0.3823 -0.0384  0.8652
 2862THY    HP771539   9.676   6.536   2.888 -2.9185  1.5016 -3.1184
 2862THY    CA371540   9.517   6.655   3.253  0.4144  0.4077  0.0046
 2862THY    HA371541   9.564   6.558   3.244 -0.6155  0.0948 -4.5626
 2862THY    CA471542   9.432   6.691   3.362 -0.0149 -0.3488 -0.0207
 2862THY    HA471543   9.414   6.615   3.438  0.3771 -2.8425 -2.2793
 2862THY    CA571544   9.362   6.821   3.363 -0.3754 -0.0486  0.5594
 2862THY    CM171545   9.272   6.855   3.477 -0.5020  0.0269 -0.3903
 2862THY    HM171546   9.170   6.822   3.453 -1.1138  0.6615  1.2652
 2862THY    HM271547   9.305   6.813   3.572  0.9326 -0.0916 -0.9066
 2862THY    HM371548   9.274   6.961   3.502 -1.6637  0.0444 -0.3537
 2862THY    CA671549   9.385   6.905   3.255 -0.0987  0.3684 -0.3152
 2862THY    HA671550   9.340   7.004   3.251 -0.1759  0.3412 -0.1289
 2863THY      O71551   0.467   0.708   9.544  0.0447  0.4180 -0.5175
 2863THY     HO71552   0.526   0.746   9.477  1.2948 -1.4057 -0.5267
 2863THY    CA171553   0.461   0.798   9.649  0.2955  0.0973 -0.3037
 2863THY    CA271554   0.413   0.760   9.779  0.6487 -0.0874 -0.5197
 2863THY    CP171555   0.345   0.625   9.807 -0.7725 -0.2504 -0.3529
 2863THY    HP171556   0.301   0.596   9.711  0.8316  0.8781 -1.4619
 2863THY    CP271557   0.456   0.515   9.839 -0.0807  0.0789 -0.0926
 2863THY    HP271558   0.413   0.425   9.885  0.8906  0.3528  1.4158
 2863THY    HP371559   0.503   0.509   9.741 -0.7690  2.7515 -0.6649
 2863THY    HP471560   0.517   0.562   9.918 -1.2985  0.9694  0.3622
 2863THY    CP371561   0.231   0.634   9.915 -0.8658  0.5636  0.3191
 2863THY    HP571562   0.178   0.728   9.897  2.3266  2.6494  0.9533
 2863THY    HP671563   0.174   0.541   9.906  0.7705 -0.5125  0.5438
 2863THY    HP771564   0.286   0.635  10.010  3.4014  1.7772 -1.8603
 2863THY    CA371565   0.414   0.857   9.888  0.2017  0.6530 -0.5462
 2863THY    HA371566   0.372   0.839   9.987 -0.6676 -0.2383 -1.0526
 2863THY    CA471567   0.468   0.981   9.862  0.1220  0.0957  0.6619
 2863THY    HA471568   0.467   1.059   9.938  1.9546 -0.0184  0.8484
 2863THY    CA571569   0.519   1.018   9.738  0.3552 -0.5991  0.2827
 2863THY    CM171570   0.574   1.154   9.722 -0.3104 -0.4668  0.0997
 2863THY    HM171571   0.507   1.237   9.750 -1.8437 -1.3322 -0.8569
 2863THY    HM271572   0.673   1.159   9.769 -0.8495 -0.7958  1.3205
 2863THY    HM371573   0.604   1.167   9.618 -0.6384 -1.0225 -0.0657
 2863THY    CA671574   0.524   0.919   9.634 -0.1751  0.3439  0.0480
 2863THY    HA671575   0.580   0.941   9.543 -0.6659 -0.2819 -0.4187
 2864THY      O71576   9.401   2.725   7.620 -0.1424 -0.8847  0.2306
 2864THY     HO71577   9.445   2.754   7.538 -1.5765 -0.1965 -0.3252
 2864THY    CA171578   9.501   2.717   7.712 -0.3702 -0.1829 -0.8050
 2864THY    CA271579   9.494   2.610   7.805  0.0995 -0.4366  0.2470
 2864THY    CP171580   9.411   2.480   7.774  0.6489  0.6858 -0.1548
 2864THY    HP171581   9.317   2.503   7.722  1.3079 -0.3360 -1.8833
 2864THY    CP271582   9.474   2.383   7.678  0.2554 -0.0634  0.0114
 2864THY    HP271583   9.551   2.319   7.725  0.7250 -1.5999 -2.6238
 2864THY    HP371584   9.401   2.311   7.640  0.7759  0.5937 -2.4599
 2864THY    HP471585   9.515   2.435   7.590  4.8368 -0.8278  1.4356
 2864THY    CP371586   9.373   2.414   7.905  0.0416  0.7224 -0.0614
 2864THY    HP571587   9.330   2.490   7.972 -3.3852  0.3609 -1.6043
 2864THY    HP671588   9.301   2.332   7.900 -0.6707  1.3109  0.1952
 2864THY    HP771589   9.462   2.367   7.948  0.5816  0.9628 -0.8985
 2864THY    CA371590   9.586   2.617   7.911 -0.5802  0.0493 -0.2506
 2864THY    HA371591   9.592   2.544   7.991  0.1391  1.3286  0.8895
 2864THY    CA471592   9.689   2.716   7.909  0.1599 -0.1076  0.2551
 2864THY    HA471593   9.762   2.728   7.988  1.6886  2.2158 -1.3693
 2864THY    CA571594   9.695   2.818   7.815  0.1844  0.7704  0.2013
 2864THY    CM171595   9.802   2.919   7.809  0.2664 -0.3665  0.4399
 2864THY    HM171596   9.816   2.972   7.714 -1.0189 -0.0060  0.4314
 2864THY    HM271597   9.782   2.988   7.892 -3.1854  0.9091 -1.2842
 2864THY    HM371598   9.898   2.866   7.815  0.3870 -0.4850 -1.8804
 2864THY    CA671599   9.591   2.827   7.718  0.3655 -0.4803  0.0343
 2864THY    HA671600   9.578   2.908   7.648 -0.8289 -1.8889 -1.4475
 2865THY      O71601   2.284   2.761   6.670 -0.0612 -0.1030 -0.0204
 2865THY     HO71602   2.297   2.677   6.623 -2.0299 -1.2814  1.3619
 2865THY    CA171603   2.358   2.760   6.786  0.0914  0.0797  0.7180
 2865THY    CA271604   2.375   2.878   6.867 -0.0606 -0.4380  0.2533
 2865THY    CP171605   2.317   3.008   6.818  0.1409  0.1092 -0.0881
 2865THY    HP171606   2.238   2.977   6.749 -0.0647  2.4498 -0.9996
 2865THY    CP271607   2.250   3.088   6.936  1.0593 -0.6125  0.5453
 2865THY    HP271608   2.191   3.174   6.901  2.5713  0.6605  1.0090
 2865THY    HP371609   2.192   3.017   6.996  1.8583 -1.6542  0.1082
 2865THY    HP471610   2.327   3.134   6.999  0.6938  1.6661 -0.5364
 2865THY    CP371611   2.420   3.095   6.746 -0.2360 -0.1326  0.3001
 2865THY    HP571612   2.379   3.166   6.673 -3.8145 -1.5126  0.7889
 2865THY    HP671613   2.466   3.160   6.821 -0.6730  3.2508 -2.1113
 2865THY    HP771614   2.499   3.032   6.702  1.7956  1.3575  1.6224
 2865THY    CA371615   2.450   2.863   6.990  0.4607 -0.0833  0.4333
 2865THY    HA371616   2.465   2.953   7.049 -1.4718  0.8335 -0.3651
 2865THY    CA471617   2.492   2.735   7.030 -0.0464 -0.1099  0.9049
 2865THY    HA471618   2.536   2.718   7.127  1.6777  0.4066  0.2545
 2865THY    CA571619   2.462   2.622   6.944 -0.3681 -0.1678  0.5302
 2865THY    CM171620   2.514   2.481   6.972 -0.2385  0.0329 -0.2931
 2865THY    HM171621   2.592   2.455   6.900  0.4132  0.9668  0.0521
 2865THY    HM271622   2.560   2.472   7.071 -0.1546  1.6205 -0.1568
 2865THY    HM371623   2.436   2.406   6.955  1.5147 -1.2728 -3.3891
 2865THY    CA671624   2.391   2.634   6.825 -0.3417  0.3269 -0.1417
 2865THY    HA671625   2.371   2.550   6.759 -1.0406  1.0234 -0.8298
 2866THY      O71626   3.244   1.231   0.846  0.8905  0.4839  0.1926
 2866THY     HO71627   3.317   1.168   0.832 -0.2197 -0.4274 -1.6776
 2866THY    CA171628   3.283   1.338   0.931  0.0176  0.3532  0.5048
 2866THY    CA271629   3.224   1.461   0.944  0.3573  0.5903  0.0567
 2866THY    CP171630   3.110   1.494   0.851  0.6135 -0.0483  0.2770
 2866THY    HP171631   3.044   1.408   0.835  1.5027 -0.7440  0.2694
 2866THY    CP271632   3.012   1.604   0.906 -1.1856  0.1467 -0.3272
 2866THY    HP271633   2.921   1.621   0.846 -1.1015  2.3072  0.0772
 2866THY    HP371634   2.987   1.579   1.010  1.0699 -2.0942 -0.2478
 2866THY    HP471635   3.064   1.700   0.907 -1.5636  0.3720  1.5402
 2866THY    CP371636   3.155   1.527   0.705 -0.2139 -0.1515 -0.5239
 2866THY    HP571637   3.217   1.617   0.700  0.7977 -0.8689 -1.4425
 2866THY    HP671638   3.213   1.440   0.674 -1.8360 -0.3758 -3.1900
 2866THY    HP771639   3.070   1.540   0.637 -0.9725  0.8220  0.5659
 2866THY    CA371640   3.277   1.563   1.030 -0.4770  0.5210 -0.1038
 2866THY    HA371641   3.243   1.666   1.033  1.6641  1.2857 -0.3082
 2866THY    CA471642   3.390   1.529   1.104  0.5115 -0.4812  0.5256
 2866THY    HA471643   3.425   1.607   1.170 -0.8688  1.1771 -0.6177
 2866THY    CA571644   3.452   1.408   1.097  0.3109 -0.1195  0.1767
 2866THY    CM171645   3.576   1.375   1.186 -0.7914 -0.3718 -0.5449
 2866THY    HM171646   3.619   1.275   1.172 -0.2440 -0.0770 -0.9797
 2866THY    HM271647   3.656   1.435   1.143 -0.2561 -2.5242 -2.7986
 2866THY    HM371648   3.576   1.401   1.292  2.3172 -1.2614 -0.2371
 2866THY    CA671649   3.394   1.309   1.014 -0.0894  0.8106  0.4052
 2866THY    HA671650   3.443   1.212   1.012 -1.2665  0.1963 -0.3337
 2867THY      O71651   1.361   7.373   9.322  0.2696 -0.7688 -0.8089
 2867THY     HO71652   1.373   7.386   9.417 -2.0389  1.5085 -0.7223
 2867THY    CA171653   1.377   7.495   9.273  0.2676  0.5095  0.2387
 2867THY    CA271654   1.285   7.540   9.176 -0.2451 -0.2047  0.0089
 2867THY    CP171655   1.157   7.465   9.135  0.5499  0.1266 -0.3125
 2867THY    HP171656   1.190   7.360   9.137  0.5647  0.1432  0.9876
 2867THY    CP271657   1.043   7.474   9.236  0.6578  0.6141  0.1236
 2867THY    HP271658   0.970   7.404   9.195  2.2224 -1.5580  0.8981
 2867THY    HP371659   1.071   7.428   9.331  1.6279 -0.3893 -0.6290
 2867THY    HP471660   1.009   7.576   9.260 -0.1087 -0.0187  1.8626
 2867THY    CP371661   1.103   7.476   8.992  0.6459 -0.0059  0.1129
 2867THY    HP571662   1.191   7.463   8.928 -0.2524  0.4013 -1.2374
 2867THY    HP671663   1.018   7.407   8.980  0.7263  0.2239 -2.1504
 2867THY    HP771664   1.059   7.575   8.977 -0.3621 -0.4453  0.1086
 2867THY    CA371665   1.302   7.669   9.121  1.0550 -0.3306 -0.2079
 2867THY    HA371666   1.223   7.713   9.060 -0.1625 -1.6620  0.3430
 2867THY    CA471667   1.410   7.743   9.157 -0.2906  0.4319  0.0060
 2867THY    HA471668   1.418   7.850   9.137  0.3091  1.1634  3.5187
 2867THY    CA571669   1.518   7.687   9.237 -0.1041 -0.2408  0.8629
 2867THY    CM171670   1.637   7.773   9.270 -0.1313  0.8408 -0.2700
 2867THY    HM171671   1.683   7.799   9.175 -0.8878  2.5942 -0.1964
 2867THY    HM271672   1.612   7.869   9.317  3.2941  1.6257  0.1865
 2867THY    HM371673   1.702   7.722   9.342  1.9075 -0.7636 -3.0473
 2867THY    CA671674   1.498   7.565   9.295  0.7240 -1.5375  0.5269
 2867THY    HA671675   1.553   7.527   9.380 -0.7491 -2.0626  1.2854
 2868THY      O71676   4.644   8.559   7.867  0.3950 -0.0842  0.1428
 2868THY     HO71677   4.704   8.490   7.834 -0.6928 -1.2444  0.5298
 2868THY    CA171678   4.588   8.594   7.751  0.1469 -0.6946 -0.1606
 2868THY    CA271679   4.480   8.678   7.741  0.1299  0.0378  0.1803
 2868THY    CP171680   4.423   8.752   7.860 -0.8810 -0.4606 -0.1382
 2868THY    HP171681   4.475   8.712   7.947 -0.5363 -0.3641 -0.2998
 2868THY    CP271682   4.452   8.895   7.844 -0.2685  0.4256 -0.6508
 2868THY    HP271683   4.405   8.960   7.919  0.0534  0.4167 -0.4402
 2868THY    HP371684   4.559   8.912   7.854 -0.7720  2.3080  3.4421
 2868THY    HP471685   4.411   8.912   7.743 -0.8432  0.1103 -0.4757
 2868THY    CP371686   4.277   8.736   7.876  0.3493 -0.0813  0.1484
 2868THY    HP571687   4.250   8.772   7.975  0.7553 -3.9562  1.8634
 2868THY    HP671688   4.216   8.774   7.793  0.2837  0.2355  0.3391
 2868THY    HP771689   4.240   8.633   7.877 -0.3393  0.1545 -0.1225
 2868THY    CA371690   4.421   8.698   7.613 -0.0339 -0.3761  0.0834
 2868THY    HA371691   4.331   8.758   7.609  1.3985  1.9095  0.2482
 2868THY    CA471692   4.466   8.628   7.496 -0.1376  0.7384 -0.1713
 2868THY    HA471693   4.415   8.633   7.400  0.8724 -0.5617 -0.8071
 2868THY    CA571694   4.583   8.541   7.515  0.5338 -0.1058  0.7982
 2868THY    CM171695   4.633   8.455   7.394  0.3902  0.0427 -0.0692
 2868THY    HM171696   4.653   8.515   7.305 -3.8902 -0.7506 -1.8577
 2868THY    HM271697   4.724   8.402   7.425  0.5709  0.2868 -0.1797
 2868THY    HM371698   4.556   8.378   7.377 -0.4294  0.9658 -0.6544
 2868THY    CA671699   4.637   8.531   7.638  0.2512  0.2555 -0.4310
 2868THY    HA671700   4.717   8.458   7.644 -2.7409 -3.1932  1.5733
 2869THY      O71701   8.925   2.685   5.316 -0.6932  0.0366 -0.1822
 2869THY     HO71702   8.982   2.670   5.393 -0.3853  0.6294 -0.2883
 2869THY    CA171703   8.825   2.767   5.360  0.3007 -0.3397  0.8965
 2869THY    CA271704   8.733   2.831   5.272  0.3016  0.2952  0.1420
 2869THY    CP171705   8.733   2.791   5.126 -0.0700  0.5368  0.0736
 2869THY    HP171706   8.817   2.728   5.094  1.4427  1.1604  2.5688
 2869THY    CP271707   8.602   2.726   5.100  1.0287  0.3381 -0.6054
 2869THY    HP271708   8.600   2.697   4.994  2.1141 -1.7588 -0.1166
 2869THY    HP371709   8.604   2.635   5.161  0.4779  1.6487  1.4455
 2869THY    HP471710   8.517   2.788   5.128  0.8013  0.0195 -0.5835
 2869THY    CP371711   8.750   2.911   5.040  0.6326 -0.6141 -0.0549
 2869THY    HP571712   8.836   2.972   5.069 -1.3728  1.6253  1.5464
 2869THY    HP671713   8.760   2.880   4.935 -2.0498  2.6263 -1.4457
 2869THY    HP771714   8.668   2.979   5.065 -0.2603 -1.9815  0.8852
 2869THY    CA371715   8.643   2.914   5.330 -0.6297  0.1146 -0.0015
 2869THY    HA371716   8.579   2.972   5.263  0.2762  0.7030 -0.3679
 2869THY    CA471717   8.634   2.934   5.472 -0.2445  0.7007  0.2681
 2869THY    HA471718   8.565   3.007   5.515 -0.8954 -0.5862  1.4768
 2869THY    CA571719   8.734   2.880   5.554  0.1901 -0.0565 -0.6580
 2869THY    CM171720   8.745   2.921   5.703 -0.3163 -0.0190 -0.0660
 2869THY    HM171721   8.651   2.882   5.744 -0.6128  0.4265 -0.3151
 2869THY    HM271722   8.815   2.860   5.762 -3.1905 -2.3183  1.2139
 2869THY    HM371723   8.766   3.028   5.717  1.0612 -0.1711 -0.7905
 2869THY    CA671724   8.826   2.794   5.500  0.0547  0.4799  0.6031
 2869THY    HA671725   8.903   2.751   5.563 -0.1078 -0.1095  0.4101
 2870THY      O71726   2.047   8.040   6.832 -0.2150  0.3628  0.4585
 2870THY     HO71727   2.054   7.946   6.854  1.0695 -0.0010 -1.2405
 2870THY    CA171728   2.152   8.097   6.893 -0.3235 -0.4721 -0.5712
 2870THY    CA271729   2.242   8.191   6.827  0.3182  0.1711 -0.3654
 2870THY    CP171730   2.230   8.219   6.676  0.2736  0.5165 -0.0884
 2870THY    HP171731   2.173   8.139   6.627 -0.2013 -0.3369  1.7618
 2870THY    CP271732   2.141   8.337   6.655  0.3327 -0.0387 -0.8393
 2870THY    HP271733   2.179   8.437   6.676  0.4947  0.0551 -1.5355
 2870THY    HP371734   2.113   8.328   6.549 -0.2936 -2.3202 -0.5407
 2870THY    HP471735   2.054   8.334   6.721  0.0324 -0.9064 -1.2491
 2870THY    CP371736   2.359   8.244   6.597  0.6617  0.1993  0.0609
 2870THY    HP571737   2.416   8.152   6.614  2.8661  1.4262 -0.2537
 2870THY    HP671738   2.339   8.257   6.490 -0.5596 -0.9823  0.1265
 2870THY    HP771739   2.399   8.336   6.641  1.3516  0.1523 -0.4400
 2870THY    CA371740   2.348   8.244   6.903 -0.4478 -0.5248 -0.3899
 2870THY    HA371741   2.426   8.310   6.868 -0.4971  1.0787  2.2559
 2870THY    CA471742   2.365   8.215   7.040  0.6084  0.3351 -0.8358
 2870THY    HA471743   2.441   8.269   7.096 -0.2251  4.1770 -2.9931
 2870THY    CA571744   2.281   8.119   7.098  0.2859 -0.1923  0.2542
 2870THY    CM171745   2.300   8.073   7.234  0.1048 -0.4081  0.1242
 2870THY    HM171746   2.400   8.034   7.255  0.3220  0.3193  0.4540
 2870THY    HM271747   2.265   8.142   7.312 -0.5233  0.7377 -1.1231
 2870THY    HM371748   2.239   7.984   7.251  0.5266 -0.6279  0.5062
 2870THY    CA671749   2.175   8.062   7.026  0.0606 -0.1583 -0.0766
 2870THY    HA671750   2.117   7.987   7.080  1.8080 -0.8342  0.9331
 2871THY      O71751   1.092   8.738   1.820  0.0848 -0.0536  0.2479
 2871THY     HO71752   1.015   8.683   1.842  0.5083 -0.9977 -0.5990
 2871THY    CA171753   1.183   8.683   1.902 -0.1958 -0.2659  0.1973
 2871THY    CA271754   1.323   8.714   1.901  0.6298 -0.3624  0.1571
 2871THY    CP171755   1.382   8.806   1.800  0.1375  0.1804 -0.0352
 2871THY    HP171756   1.312   8.890   1.789  0.6428  1.0776  2.8885
 2871THY    CP271757   1.502   8.887   1.847 -0.0023  0.4193  0.2403
 2871THY    HP271758   1.497   8.917   1.952  1.8845  0.9111  0.2207
 2871THY    HP371759   1.597   8.835   1.827  0.0406  0.5765  0.0310
 2871THY    HP471760   1.501   8.983   1.794  0.4153  0.2078 -0.1697
 2871THY    CP371761   1.393   8.727   1.666 -0.7242  0.3426  0.3199
 2871THY    HP571762   1.407   8.783   1.572 -0.3405 -1.8996 -1.0347
 2871THY    HP671763   1.479   8.659   1.672  0.2235  1.4259 -0.5482
 2871THY    HP771764   1.305   8.675   1.626 -0.9018 -1.9912  3.3497
 2871THY    CA371765   1.397   8.652   2.000  0.4256  0.0580 -0.1936
 2871THY    HA371766   1.504   8.667   1.994  0.1792  2.3266  0.3067
 2871THY    CA471767   1.346   8.580   2.106 -0.4772 -0.0266 -0.8349
 2871THY    HA471768   1.411   8.551   2.188  2.4363  0.8039 -2.6895
 2871THY    CA571769   1.210   8.553   2.104 -0.5292 -1.2651  0.0558
 2871THY    CM171770   1.146   8.493   2.224  0.0921 -0.2373 -0.5487
 2871THY    HM171771   1.037   8.507   2.224 -0.1983 -2.1494 -0.0934
 2871THY    HM271772   1.147   8.384   2.209 -2.1554 -0.5303  0.8155
 2871THY    HM371773   1.192   8.515   2.321 -0.0836 -0.2592 -0.4603
 2871THY    CA671774   1.132   8.597   2.000  0.0917  0.5026  0.3872
 2871THY    HA671775   1.027   8.570   2.010  0.4614 -0.6684  1.2475
 2872THY      O71776   3.807   1.025   9.799  0.4301 -0.4597 -0.3976
 2872THY     HO71777   3.735   0.963   9.820  1.1323 -1.0905  0.2016
 2872THY    CA171778   3.767   1.137   9.863 -0.0584  0.5650  0.3145
 2872THY    CA271779   3.854   1.251   9.865  0.4521  0.4446 -0.2328
 2872THY    CP171780   3.993   1.233   9.801 -0.5786 -0.1000 -0.6475
 2872THY    HP171781   4.026   1.130   9.817  0.5601  0.3333 -0.1741
 2872THY    CP271782   3.982   1.246   9.647 -0.1065  0.2823 -0.0141
 2872THY    HP271783   3.911   1.174   9.604  0.1427 -2.8383  4.1535
 2872THY    HP371784   3.965   1.349   9.616  0.4879  0.1977 -0.6493
 2872THY    HP471785   4.084   1.223   9.613  0.3544  0.2796  1.3079
 2872THY    CP371786   4.108   1.324   9.848  0.2341  0.8314 -0.4831
 2872THY    HP571787   4.092   1.425   9.810  1.0812  0.7707 -1.0319
 2872THY    HP671788   4.094   1.352   9.953 -1.2506  0.1756 -0.4709
 2872THY    HP771789   4.207   1.279   9.833 -0.4628 -0.5744 -1.1198
 2872THY    CA371790   3.804   1.376   9.919  0.3367 -0.0713  0.1488
 2872THY    HA371791   3.858   1.470   9.914 -0.6756  0.4911 -0.4960
 2872THY    CA471792   3.674   1.373   9.972 -0.3690  0.0299  0.4437
 2872THY    HA471793   3.631   1.465  10.012  0.6047 -0.3569  2.5004
 2872THY    CA571794   3.597   1.258   9.969  0.3594 -0.6157 -0.4829
 2872THY    CM171795   3.455   1.275  10.013 -0.5365  0.1545  0.6317
 2872THY    HM171796   3.399   1.186   9.981  1.1094 -0.3839 -0.9300
 2872THY    HM271797   3.444   1.283  10.121  0.6333 -0.4074  0.8038
 2872THY    HM371798   3.412   1.368   9.973 -1.1279 -1.1880 -2.0905
 2872THY    CA671799   3.639   1.139   9.916  0.6592 -0.5824 -0.1241
 2872THY    HA671800   3.565   1.060   9.916 -0.0311  0.0189 -1.9206
 2873THY      O71801   1.061   6.432   3.655  0.2831  0.3695 -0.1400
 2873THY     HO71802   1.129   6.466   3.594 -0.2359  0.6298 -0.5826
 2873THY    CA171803   0.952   6.503   3.658 -0.1735  0.5258 -0.1327
 2873THY    CA271804   0.867   6.506   3.765 -0.0623 -0.2127 -1.0535
 2873THY    CP171805   0.889   6.410   3.882  0.0679 -0.2044 -0.6341
 2873THY    HP171806   0.930   6.321   3.833 -0.9814 -0.2762 -1.4188
 2873THY    CP271807   0.989   6.463   3.987  0.2421 -0.0520 -0.3054
 2873THY    HP271808   1.088   6.469   3.939 -0.2901  0.8922 -1.3457
 2873THY    HP371809   0.943   6.560   4.011 -0.6660  0.8481 -4.7542
 2873THY    HP471810   1.004   6.387   4.064 -0.0342 -0.0937 -0.2920
 2873THY    CP371811   0.758   6.367   3.957  0.5430 -0.4705  0.2003
 2873THY    HP571812   0.793   6.295   4.032  1.5401  0.6069  0.8256
 2873THY    HP671813   0.702   6.454   3.996 -0.9452 -0.3413 -2.0590
 2873THY    HP771814   0.696   6.304   3.893  2.0985 -2.0653  0.1911
 2873THY    CA371815   0.761   6.603   3.761 -0.1716 -0.4596  0.5824
 2873THY    HA371816   0.690   6.615   3.843 -1.8976 -1.0434 -0.7462
 2873THY    CA471817   0.747   6.684   3.648  1.0187  0.4777 -0.0538
 2873THY    HA471818   0.672   6.763   3.644  1.4147  0.8876  0.4207
 2873THY    CA571819   0.823   6.667   3.537  0.2214  0.3243 -0.2021
 2873THY    CM171820   0.802   6.747   3.409  0.4378 -0.3108 -0.1526
 2873THY    HM171821   0.777   6.682   3.324  0.1828 -0.8193  0.3030
 2873THY    HM271822   0.716   6.815   3.424  0.5898 -0.3674  1.1197
 2873THY    HM371823   0.894   6.804   3.391  0.1013  0.1416 -0.4851
 2873THY    CA671824   0.934   6.585   3.545 -0.0396  0.7903  0.5472
 2873THY    HA671825   1.010   6.590   3.467  1.8280 -1.3692  2.0952
 2874THY      O71826   6.735   5.793   9.705  0.5086  0.1838 -0.3990
 2874THY     HO71827   6.676   5.865   9.734 -4.5719 -3.2476 -0.7689
 2874THY    CA171828   6.839   5.846   9.639 -0.4563  0.6190  0.2292
 2874THY    CA271829   6.932   5.761   9.573  0.1634  0.5741  0.4479
 2874THY    CP171830   6.919   5.608   9.581  0.0351 -0.5776 -0.6997
 2874THY    HP171831   6.851   5.579   9.662  1.0106  0.2961  0.4907
 2874THY    CP271832   6.859   5.550   9.458 -0.5957  0.7008 -0.3868
 2874THY    HP271833   6.849   5.442   9.477 -0.1459  0.7109 -0.0769
 2874THY    HP371834   6.765   5.602   9.437 -0.6705  0.4815 -0.5980
 2874THY    HP471835   6.931   5.567   9.377 -2.6260 -0.4672 -2.5715
 2874THY    CP371836   7.051   5.539   9.616  0.0463 -0.1432  0.1561
 2874THY    HP571837   7.114   5.587   9.692 -0.4837 -1.9505  1.8333
 2874THY    HP671838   7.031   5.433   9.639 -2.4355 -0.0194 -1.0589
 2874THY    HP771839   7.105   5.534   9.521 -1.6808  2.8081 -1.1283
 2874THY    CA371840   7.030   5.817   9.487  0.0959  0.4918 -0.2324
 2874THY    HA371841   7.103   5.758   9.433  0.1313  1.2691 -1.0529
 2874THY    CA471842   7.030   5.956   9.474  0.4116 -0.0177 -0.2770
 2874THY    HA471843   7.107   6.004   9.413  0.0702  0.0297 -0.6703
 2874THY    CA571844   6.944   6.043   9.548  0.2800  0.2448 -0.4104
 2874THY    CM171845   6.952   6.189   9.539 -0.5451  0.3385 -0.0161
 2874THY    HM171846   6.913   6.226   9.443 -1.5671 -2.7690 -0.9052
 2874THY    HM271847   6.894   6.237   9.619 -0.7683  3.1856 -1.7272
 2874THY    HM371848   7.057   6.213   9.559 -0.1261 -1.0330 -0.4891
 2874THY    CA671849   6.844   5.988   9.627  0.2989 -0.0744  0.4963
 2874THY    HA671850   6.773   6.056   9.675 -1.1783 -1.8350  0.9246
 2875THY      O71851   4.943   9.548   8.993  0.4078  0.2323  0.3589
 2875THY     HO71852   4.879   9.504   8.934 -2.0221  0.4734  2.5990
 2875THY    CA171853   5.038   9.460   9.023  0.3602  0.9885  0.4280
 2875THY    CA271854   5.173   9.497   9.033 -0.0967 -0.0687 -0.2689
 2875THY    CP171855   5.215   9.646   9.025  0.5291  0.0481  0.1060
 2875THY    HP171856   5.137   9.710   8.980 -0.5799 -0.9224  0.5867
 2875THY    CP271857   5.252   9.706   9.169  0.2635  0.2154  0.5074
 2875THY    HP271858   5.282   9.811   9.164 -1.4566  0.8050  1.6035
 2875THY    HP371859   5.169   9.709   9.240  0.0904 -0.0696  0.3221
 2875THY    HP471860   5.337   9.649   9.210 -1.1490 -2.1680  0.3550
 2875THY    CP371861   5.345   9.655   8.934  0.0162  0.1604 -0.1043
 2875THY    HP571862   5.443   9.650   8.983  0.6301  1.3319 -1.1464
 2875THY    HP671863   5.341   9.584   8.851 -3.6120 -0.1092  0.1353
 2875THY    HP771864   5.343   9.751   8.881  1.8088  0.1053 -0.3394
 2875THY    CA371865   5.263   9.395   9.066 -0.1827  0.2253 -0.0971
 2875THY    HA371866   5.362   9.435   9.086  0.1945  1.5996 -3.9266
 2875THY    CA471867   5.218   9.261   9.086 -0.0776  0.2907 -0.0606
 2875THY    HA471868   5.294   9.185   9.100  0.7964  1.5174  2.6103
 2875THY    CA571869   5.082   9.233   9.078 -0.1538 -0.2212  0.8615
 2875THY    CM171870   5.033   9.098   9.104  0.1016 -0.1799 -0.1120
 2875THY    HM171871   5.091   9.015   9.147 -2.3746 -1.8853  0.1064
 2875THY    HM271872   4.963   9.093   9.188  0.7480 -0.4595  0.4275
 2875THY    HM371873   4.980   9.061   9.015  1.9145 -2.1190 -0.4799
 2875THY    CA671874   4.991   9.332   9.046 -0.4902 -0.1308 -0.0235
 2875THY    HA671875   4.884   9.314   9.036 -0.5536  0.2948 -0.1200
 2876THY      O71876   3.469   0.964   8.452 -0.5475 -0.5377 -0.5498
 2876THY     HO71877   3.476   0.880   8.403 -0.9111 -3.3112  3.6418
 2876THY    CA171878   3.597   0.983   8.490 -0.3616  0.4277  0.3191
 2876THY    CA271879   3.627   0.986   8.629  0.2404 -0.7207  0.6422
 2876THY    CP171880   3.522   0.967   8.741 -0.1649 -0.7340  0.6446
 2876THY    HP171881   3.427   0.960   8.687  1.7685  1.8164 -3.6350
 2876THY    CP271882   3.541   0.845   8.836 -0.2575  0.2158  0.0813
 2876THY    HP271883   3.582   0.882   8.931  1.0489  2.6783 -1.3580
 2876THY    HP371884   3.441   0.812   8.869  0.1704 -1.1786  0.0726
 2876THY    HP471885   3.593   0.761   8.789  2.3576  1.5521  0.4293
 2876THY    CP371886   3.496   1.095   8.823 -0.5411  0.5340 -0.0785
 2876THY    HP571887   3.488   1.179   8.753  1.4796  1.0695  0.2653
 2876THY    HP671888   3.409   1.079   8.887 -0.7834  0.8262 -0.3375
 2876THY    HP771889   3.575   1.117   8.896 -0.5915  4.6098 -1.0131
 2876THY    CA371890   3.760   1.008   8.669  0.4141 -0.0987  0.0594
 2876THY    HA371891   3.784   1.029   8.773 -0.9167 -0.0214  0.3799
 2876THY    CA471892   3.853   1.001   8.571  0.0173 -0.3239 -0.3676
 2876THY    HA471893   3.959   1.015   8.591 -0.2254  1.3203 -0.0980
 2876THY    CA571894   3.824   0.987   8.433 -0.0751 -0.9349  0.2827
 2876THY    CM171895   3.929   0.988   8.320 -0.1127  0.5019 -0.1212
 2876THY    HM171896   3.941   0.886   8.283 -2.1290  0.2279 -0.1340
 2876THY    HM271897   3.890   1.042   8.233  2.3462  1.9642 -0.4161
 2876THY    HM371898   4.028   1.030   8.342 -0.3329  1.4866 -0.9291
 2876THY    CA671899   3.692   0.993   8.395  0.2309 -0.5170  0.2692
 2876THY    HA671900   3.653   0.982   8.294  0.8269 -1.7625  0.1477
 2877THY      O71901   5.124   3.413   7.560 -0.4616  0.0696 -0.2627
 2877THY     HO71902   5.089   3.347   7.498 -2.1582 -0.3807  1.0995
 2877THY    CA171903   5.255   3.430   7.521  0.2000  0.0802 -0.6637
 2877THY    CA271904   5.341   3.516   7.587 -0.1281  0.3479 -0.4155
 2877THY    CP171905   5.292   3.616   7.694  0.6288  0.6241 -0.4527
 2877THY    HP171906   5.183   3.624   7.694  0.3106 -2.5950  0.4278
 2877THY    CP271907   5.339   3.565   7.831 -0.3369 -0.1179  0.3847
 2877THY    HP271908   5.288   3.622   7.910 -1.1192 -1.1065  0.6141
 2877THY    HP371909   5.297   3.465   7.849 -0.5288  0.1649  1.5804
 2877THY    HP471910   5.446   3.572   7.852  0.8244 -4.6568 -2.4361
 2877THY    CP371911   5.331   3.775   7.688  0.0883  0.6007 -0.2019
 2877THY    HP571912   5.431   3.797   7.652 -0.3100 -1.0076 -2.5074
 2877THY    HP671913   5.269   3.827   7.614 -0.8889 -1.3375 -0.8112
 2877THY    HP771914   5.313   3.819   7.787  1.9260  1.9006 -0.4133
 2877THY    CA371915   5.472   3.535   7.536  0.4689  0.0831 -0.2297
 2877THY    HA371916   5.539   3.613   7.570  0.9864  0.8451 -2.7925
 2877THY    CA471917   5.514   3.455   7.432 -0.6211 -0.6087  0.7210
 2877THY    HA471918   5.616   3.469   7.398 -0.5011 -1.4000  0.7206
 2877THY    CA571919   5.428   3.361   7.367 -0.5255  0.0475  0.1980
 2877THY    CM171920   5.493   3.261   7.268  0.3130  0.3337  0.2128
 2877THY    HM171921   5.510   3.164   7.315 -0.7260  0.8816  1.7899
 2877THY    HM271922   5.420   3.238   7.189 -0.4030 -2.3184  1.5456
 2877THY    HM371923   5.585   3.306   7.230  0.4461 -0.4634 -0.4550
 2877THY    CA671924   5.297   3.352   7.414  0.2123  0.7271  0.4135
 2877THY    HA671925   5.233   3.276   7.370  1.4873 -0.0300 -0.1854
 2878THY      O71926   6.876   7.945   3.341 -0.4939  0.5587  0.0612
 2878THY     HO71927   6.846   7.891   3.416 -1.4688 -0.3679 -0.9615
 2878THY    CA171928   6.939   7.856   3.256 -0.3318 -0.2969  0.1579
 2878THY    CA271929   6.897   7.843   3.124 -0.3427 -0.1917 -0.0518
 2878THY    CP171930   6.797   7.949   3.062  0.3317 -0.2497  0.1153
 2878THY    HP171931   6.751   8.013   3.138  0.7955  2.7101 -1.9219
 2878THY    CP271932   6.867   8.053   2.972 -0.0266  0.2290 -0.0160
 2878THY    HP271933   6.910   7.987   2.897 -0.6764 -0.5694  0.2990
 2878THY    HP371934   6.801   8.131   2.933  0.1766  0.7866  0.7241
 2878THY    HP471935   6.943   8.109   3.028 -1.7592  1.7177  0.9835
 2878THY    CP371936   6.668   7.882   2.997 -0.3834  0.3029  0.2282
 2878THY    HP571937   6.590   7.958   3.009  0.1495  0.6082  2.1223
 2878THY    HP671938   6.671   7.858   2.890 -2.6127 -0.3056  0.2507
 2878THY    HP771939   6.637   7.792   3.052  0.8761 -1.7021 -2.1540
 2878THY    CA371940   6.961   7.739   3.049  0.7121 -0.3235  0.1973
 2878THY    HA371941   6.943   7.724   2.943  0.4481 -2.6257  0.5238
 2878THY    CA471942   7.045   7.643   3.115  0.2723  0.1070 -0.5431
 2878THY    HA471943   7.096   7.560   3.066 -0.7579 -0.7883 -0.1447
 2878THY    CA571944   7.076   7.655   3.256 -1.1663 -1.2183  0.7573
 2878THY    CM171945   7.172   7.560   3.321  0.3570  0.6801 -0.8186
 2878THY    HM171946   7.150   7.455   3.300 -0.4494  0.0668  2.4462
 2878THY    HM271947   7.272   7.589   3.286  0.4063  1.8668  0.2223
 2878THY    HM371948   7.185   7.568   3.430 -1.3779  0.0172 -0.5278
 2878THY    CA671949   7.015   7.758   3.324  0.9624  0.4519  0.2285
 2878THY    HA671950   7.041   7.754   3.430 -1.0956  1.5125  0.8165
 2879THY      O71951   1.092   9.943   8.950 -0.1860  0.0586  0.2339
 2879THY     HO71952   1.119   9.851   8.966  1.2734 -0.0513 -2.3404
 2879THY    CA171953   1.189  10.018   9.008  0.3524  0.2797 -0.4358
 2879THY    CA271954   1.218  10.142   8.957 -0.1175  0.7510  0.4791
 2879THY    CP171955   1.111  10.215   8.875  0.2737 -0.2731 -0.0301
 2879THY    HP171956   1.082  10.140   8.801  0.9211  1.0162 -1.6801
 2879THY    CP271957   0.990  10.260   8.951 -0.2182 -0.4097 -0.1112
 2879THY    HP271958   1.030  10.302   9.044 -0.6501 -0.9715  0.3319
 2879THY    HP371959   0.928  10.330   8.894 -0.5025  0.8102  1.5998
 2879THY    HP471960   0.933  10.169   8.971 -1.3371 -0.6779 -3.8639
 2879THY    CP371961   1.165  10.334   8.791  0.1661  0.3377 -0.0603
 2879THY    HP571962   1.266  10.318   8.751  1.4059  0.7600  2.6799
 2879THY    HP671963   1.090  10.358   8.715  0.9154 -2.1178 -1.7101
 2879THY    HP771964   1.182  10.411   8.867  1.6583  0.4048 -0.4240
 2879THY    CA371965   1.346  10.206   8.992  0.3297  0.3618 -0.3159
 2879THY    HA371966   1.358  10.311   8.969 -1.4874  0.8622  0.8261
 2879THY    CA471967   1.439  10.141   9.074  0.1257  0.8478  0.3611
 2879THY    HA471968   1.535  10.186   9.099  0.5059 -0.5524  1.5468
 2879THY    CA571969   1.408  10.011   9.111 -0.2772  0.1257 -1.0288
 2879THY    CM171970   1.508   9.952   9.210  0.0416  1.1057  0.6171
 2879THY    HM171971   1.549   9.864   9.159  0.3738  0.6101  1.7044
 2879THY    HM271972   1.593  10.014   9.239  1.8509 -1.5661  1.4713
 2879THY    HM371973   1.446   9.927   9.298 -2.1665 -0.1768 -1.1688
 2879THY    CA671974   1.279   9.951   9.086  0.3862 -0.4055 -1.0039
 2879THY    HA671975   1.264   9.853   9.130  1.5444 -0.5723 -0.9605
 2880THY      O71976   2.222   3.648   2.159  0.0851 -0.8028 -0.6034
 2880THY     HO71977   2.214   3.691   2.072  1.0024  1.0203  0.1579
 2880THY    CA171978   2.351   3.614   2.156 -0.4471  0.4819  0.7975
 2880THY    CA271979   2.399   3.507   2.236  0.3454  0.8496  0.0851
 2880THY    CP171980   2.300   3.410   2.294 -0.3306  0.9580  0.0838
 2880THY    HP171981   2.209   3.461   2.327 -0.7794  0.4627 -0.3653
 2880THY    CP271982   2.272   3.297   2.190 -0.0281  0.2571 -0.4044
 2880THY    HP271983   2.214   3.340   2.108 -0.9095  0.9539  0.5641
 2880THY    HP371984   2.368   3.249   2.167  0.0133  0.6890 -1.1317
 2880THY    HP471985   2.213   3.211   2.225 -1.3805  1.3394  0.0387
 2880THY    CP371986   2.338   3.334   2.421  0.8695 -0.5601 -0.1043
 2880THY    HP571987   2.406   3.398   2.477 -0.2569 -0.9432  1.7767
 2880THY    HP671988   2.245   3.317   2.476  1.0126  0.7507  0.5785
 2880THY    HP771989   2.399   3.248   2.391  0.4274 -0.2905 -1.9400
 2880THY    CA371990   2.534   3.480   2.229 -0.1470  0.3524 -0.6520
 2880THY    HA371991   2.580   3.401   2.287 -2.2504  0.8825  1.9506
 2880THY    CA471992   2.619   3.573   2.167  0.2108 -0.3831  0.3059
 2880THY    HA471993   2.724   3.551   2.153  0.2354  1.0503 -2.4586
 2880THY    CA571994   2.568   3.681   2.099 -0.2328 -0.5684 -1.0027
 2880THY    CM171995   2.653   3.775   2.013  0.1483 -0.5615 -0.2990
 2880THY    HM171996   2.642   3.775   1.904  0.7498 -2.0535 -0.3875
 2880THY    HM271997   2.639   3.876   2.052 -0.2075  0.1614 -2.2020
 2880THY    HM371998   2.757   3.750   2.038  0.1226  0.1884  0.6015
 2880THY    CA671999   2.433   3.694   2.086  0.4045  0.3026  0.3053
 2880THY    HA672000   2.394   3.776   2.026 -0.9059 -0.5921 -0.1213
 2881THY      O72001   1.175   5.055   4.734 -0.0261  0.1383  0.1761
 2881THY     HO72002   1.189   5.090   4.644 -0.8924 -1.5244 -0.6657
 2881THY    CA172003   1.296   5.072   4.788  0.9672 -0.0976  0.2025
 2881THY    CA272004   1.339   5.014   4.906 -0.5463  0.0357  0.3237
 2881THY    CP172005   1.257   4.929   4.997 -0.7779  0.3559  0.0220
 2881THY    HP172006   1.159   4.906   4.952 -0.5434 -1.4550  0.3381
 2881THY    CP272007   1.306   4.784   5.021 -1.3140  0.3667  0.6228
 2881THY    HP272008   1.355   4.749   4.929 -0.2012  0.6837  1.0673
 2881THY    HP372009   1.385   4.789   5.098 -0.3342  1.0588 -0.3894
 2881THY    HP472010   1.228   4.719   5.061 -1.2666  0.6643  1.2121
 2881THY    CP372011   1.239   4.993   5.131 -0.4151 -0.8329  0.6378
 2881THY    HP572012   1.170   4.930   5.188  0.2788 -0.6101  1.7534
 2881THY    HP672013   1.328   4.985   5.195 -0.7510  0.9475  1.3820
 2881THY    HP772014   1.208   5.098   5.126  2.7792  0.2672  1.2275
 2881THY    CA372015   1.475   5.031   4.952  0.3547  0.4989  0.0682
 2881THY    HA372016   1.503   5.002   5.052  1.3699  0.9011 -0.0866
 2881THY    CA472017   1.554   5.113   4.874 -0.2627  0.3968  0.0255
 2881THY    HA472018   1.654   5.132   4.912  0.0926 -1.6988  0.3006
 2881THY    CA572019   1.513   5.156   4.754 -0.5613 -0.7248 -0.1275
 2881THY    CM172020   1.613   5.232   4.670 -0.7512 -0.7670  0.3586
 2881THY    HM172021   1.597   5.339   4.684  1.7825 -0.3512  0.4624
 2881THY    HM272022   1.716   5.199   4.683  0.2963  2.3143  0.4911
 2881THY    HM372023   1.598   5.199   4.566  1.0246 -1.6623  0.3566
 2881THY    CA672024   1.385   5.131   4.707 -0.4558 -0.2928 -0.0537
 2881THY    HA672025   1.366   5.163   4.605 -0.9221  1.5694  0.5959
 2882THY      O72026   5.596   6.860   9.199  0.3147 -0.3819 -0.3022
 2882THY     HO72027   5.632   6.943   9.164  1.4552  0.6841  3.0014
 2882THY    CA172028   5.620   6.761   9.106 -0.4538  0.5725  0.4693
 2882THY    CA272029   5.566   6.632   9.115  0.5435 -0.2335  0.4917
 2882THY    CP172030   5.479   6.604   9.243 -0.3182  0.5963  1.0241
 2882THY    HP172031   5.531   6.660   9.322  1.5996  1.4060 -0.7124
 2882THY    CP272032   5.339   6.667   9.231  0.1284  0.0031  0.4047
 2882THY    HP272033   5.274   6.621   9.306 -2.2032  1.9948 -0.2743
 2882THY    HP372034   5.347   6.773   9.259  3.7421  0.2286 -0.9657
 2882THY    HP472035   5.296   6.673   9.131  2.5799  0.3127 -0.7141
 2882THY    CP372036   5.459   6.450   9.278  0.8147  0.8160  0.0957
 2882THY    HP572037   5.398   6.447   9.369 -2.1631  1.8675 -1.7255
 2882THY    HP672038   5.406   6.391   9.203 -0.6550  0.0801  1.6376
 2882THY    HP772039   5.554   6.402   9.302 -0.6152 -2.1851  0.2126
 2882THY    CA372040   5.595   6.524   9.025  0.7387 -0.5857  0.4359
 2882THY    HA372041   5.549   6.427   9.040  0.1918 -0.1768  1.5446
 2882THY    CA472042   5.681   6.552   8.917  0.5994  0.8873  0.4190
 2882THY    HA472043   5.699   6.477   8.840  1.0224  0.8668  0.5384
 2882THY    CA572044   5.746   6.672   8.912  0.5168 -1.0298  0.1943
 2882THY    CM172045   5.830   6.695   8.794 -0.2648  0.4068 -0.3066
 2882THY    HM172046   5.909   6.765   8.824 -1.4515  1.7353 -0.1970
 2882THY    HM272047   5.893   6.606   8.783  0.8517  1.3379 -2.0029
 2882THY    HM372048   5.778   6.708   8.698 -3.4477  1.0320  1.3821
 2882THY    CA672049   5.717   6.777   9.007 -0.9230  0.5151 -0.7125
 2882THY    HA672050   5.777   6.868   9.001  0.0210 -0.0436 -0.0071
 2883THY      O72051   4.027   5.900   1.674 -0.2065 -0.5765 -0.1767
 2883THY     HO72052   4.029   5.809   1.708  1.1101 -1.2896 -2.0128
 2883THY    CA172053   3.970   5.876   1.549 -0.3244  0.5573  0.4362
 2883THY    CA272054   3.905   5.976   1.471  0.2430  0.3257 -0.3626
 2883THY    CP172055   3.909   6.123   1.528  0.2864  0.2964  0.1080
 2883THY    HP172056   3.907   6.118   1.638  1.8614  0.8284  0.1782
 2883THY    CP272057   4.037   6.184   1.487 -0.0901 -0.3613  0.3795
 2883THY    HP272058   4.051   6.175   1.378  0.0749  1.0494  0.2580
 2883THY    HP372059   4.037   6.290   1.516 -1.5743 -0.3562  0.4504
 2883THY    HP472060   4.122   6.138   1.539  0.2505  1.9903  2.0504
 2883THY    CP372061   3.796   6.206   1.469 -0.3215 -0.0261 -0.3021
 2883THY    HP572062   3.787   6.300   1.525 -1.9919 -1.6770  2.4467
 2883THY    HP672063   3.821   6.228   1.365 -0.4772 -0.0634 -0.3466
 2883THY    HP772064   3.701   6.154   1.485  0.4565 -2.0474 -1.8558
 2883THY    CA372065   3.854   5.944   1.345  1.0470 -0.1495 -0.3383
 2883THY    HA372066   3.807   6.026   1.292 -0.2945  0.5550  1.7915
 2883THY    CA472067   3.861   5.813   1.304  0.2849 -0.1274 -0.1920
 2883THY    HA472068   3.803   5.783   1.217 -1.8963  0.1677  1.0813
 2883THY    CA572069   3.931   5.712   1.380 -0.2236 -0.5125 -0.2898
 2883THY    CM172070   3.945   5.568   1.339 -0.2433  0.7351  0.3328
 2883THY    HM172071   3.884   5.501   1.401  0.7392 -1.3693 -0.8631
 2883THY    HM272072   3.921   5.569   1.232  1.3518  0.8731 -0.0519
 2883THY    HM372073   4.050   5.538   1.344 -0.3570  0.4816  1.4736
 2883THY    CA672074   3.975   5.747   1.505 -0.3780  0.2784  0.5900
 2883THY    HA672075   4.025   5.672   1.566  1.1280  0.2412 -0.6245
 2884THY      O72076   7.288   8.161   8.331 -0.9904  0.6489 -0.0529
 2884THY     HO72077   7.274   8.069   8.306  0.9197  0.9960 -2.9152
 2884THY    CA172078   7.159   8.197   8.349 -0.1753  0.4559 -0.1840
 2884THY    CA272079   7.125   8.328   8.383 -0.8145  0.5018  0.2370
 2884THY    CP172080   7.236   8.429   8.410  0.3060 -0.3426  0.0920
 2884THY    HP172081   7.326   8.378   8.445  0.5980  0.6408  0.8229
 2884THY    CP272082   7.272   8.504   8.275  0.0793 -0.4824  0.4565
 2884THY    HP272083   7.314   8.434   8.202 -0.5961 -1.0344  0.5867
 2884THY    HP372084   7.188   8.565   8.240 -1.6457 -0.7408  3.7179
 2884THY    HP472085   7.350   8.581   8.283  0.3318 -0.7786  0.8584
 2884THY    CP372086   7.200   8.526   8.521  0.2288 -0.4967 -0.3357
 2884THY    HP572087   7.283   8.596   8.520 -1.2100  1.2724 -1.0380
 2884THY    HP672088   7.109   8.585   8.506  1.2905  1.2819 -0.0152
 2884THY    HP772089   7.181   8.467   8.612 -1.2222  1.0281  0.3912
 2884THY    CA372090   6.992   8.363   8.388 -0.7066 -0.4035 -1.1253
 2884THY    HA372091   6.957   8.462   8.417 -0.2661 -0.7536  0.7447
 2884THY    CA472092   6.889   8.258   8.370  0.0841 -0.5980 -0.5977
 2884THY    HA472093   6.782   8.273   8.383 -0.8201 -1.3169 -5.5248
 2884THY    CA572094   6.928   8.129   8.339 -0.4784  0.0876 -0.1496
 2884THY    CM172095   6.825   8.021   8.314 -0.8420 -0.2119 -0.1689
 2884THY    HM172096   6.868   7.922   8.337 -4.4525 -2.6482 -2.8207
 2884THY    HM272097   6.739   8.038   8.379  0.4329 -1.4840  1.9625
 2884THY    HM372098   6.798   8.016   8.208  0.9806 -0.8582 -0.6341
 2884THY    CA672099   7.064   8.096   8.330 -0.4922  0.5105  0.2335
 2884THY    HA672100   7.093   7.991   8.331  0.2092  0.6934 -0.0801
 2885THY      O72101   8.131   1.660   4.924  0.9377 -0.3175  0.0468
 2885THY     HO72102   8.198   1.646   4.994  0.7344 -1.5312  0.0202
 2885THY    CA172103   8.154   1.577   4.822  0.0596  0.2921 -0.2484
 2885THY    CA272104   8.047   1.530   4.744 -0.1646  0.5960  0.2180
 2885THY    CP172105   7.903   1.562   4.779  0.4351  0.1275 -0.5811
 2885THY    HP172106   7.889   1.565   4.888  1.5786  0.3877 -0.4317
 2885THY    CP272107   7.863   1.691   4.713  0.0159 -0.3669  0.5036
 2885THY    HP272108   7.851   1.670   4.606 -2.1163 -2.7900  1.0921
 2885THY    HP372109   7.768   1.727   4.756  1.9199  4.7814  1.1142
 2885THY    HP472110   7.937   1.770   4.730  3.3460 -2.8935 -1.0275
 2885THY    CP372111   7.805   1.450   4.739 -0.4412  0.0014  0.0350
 2885THY    HP572112   7.801   1.427   4.632 -0.8229 -1.7066  0.3787
 2885THY    HP672113   7.839   1.358   4.790 -0.5647 -0.1598 -0.1742
 2885THY    HP772114   7.703   1.474   4.772 -0.0948  2.5038 -0.5243
 2885THY    CA372115   8.078   1.461   4.626 -0.2213  0.1542 -0.4572
 2885THY    HA372116   8.001   1.440   4.552 -0.2649  0.7803 -0.5918
 2885THY    CA472117   8.214   1.434   4.596  0.0811 -0.9328  0.3991
 2885THY    HA472118   8.243   1.396   4.499  0.5979  0.2150  0.0850
 2885THY    CA572119   8.321   1.481   4.677  0.6196  0.5995 -0.2683
 2885THY    CM172120   8.461   1.462   4.640  0.7171 -0.4507 -0.2158
 2885THY    HM172121   8.490   1.359   4.668 -2.1749 -2.0849 -2.6764
 2885THY    HM272122   8.471   1.458   4.531  1.1052 -0.7604 -0.1729
 2885THY    HM372123   8.525   1.540   4.684  1.1833 -1.3462  0.7417
 2885THY    CA672124   8.292   1.544   4.794  1.0330  0.2835  0.2700
 2885THY    HA672125   8.369   1.590   4.855  0.6622  1.3876 -0.0722
 2886THY      O72126   3.168   3.359   9.180 -0.4518 -0.3300 -0.5122
 2886THY     HO72127   3.104   3.410   9.128 -2.1229 -0.6357  1.1210
 2886THY    CA172128   3.288   3.359   9.114  0.0255 -0.1176  0.3015
 2886THY    CA272129   3.411   3.384   9.171  0.0153 -0.1399  0.0728
 2886THY    CP172130   3.420   3.396   9.322 -0.4465 -0.3778 -0.4035
 2886THY    HP172131   3.354   3.316   9.359 -2.6871  0.5659 -2.1124
 2886THY    CP272132   3.561   3.376   9.384 -0.4603 -0.1404  0.5322
 2886THY    HP272133   3.590   3.279   9.342  0.5097  0.9993 -1.6468
 2886THY    HP372134   3.636   3.449   9.350  1.6376 -2.7081 -0.7980
 2886THY    HP472135   3.558   3.369   9.493 -2.0028  1.2188  0.6147
 2886THY    CP372136   3.376   3.532   9.383  0.0014 -0.2437 -0.2599
 2886THY    HP572137   3.438   3.609   9.335 -0.8386 -0.1731 -1.2496
 2886THY    HP672138   3.272   3.554   9.359 -0.0729  0.7673  0.8926
 2886THY    HP772139   3.379   3.531   9.493 -1.8776 -0.9986 -0.1825
 2886THY    CA372140   3.521   3.415   9.086 -0.3919  0.1939 -0.1520
 2886THY    HA372141   3.617   3.444   9.126 -1.1453  2.0937  0.3543
 2886THY    CA472142   3.508   3.407   8.946  0.5114 -0.3430  0.3033
 2886THY    HA472143   3.590   3.432   8.880 -0.0519 -0.6577 -0.5224
 2886THY    CA572144   3.389   3.381   8.889 -0.1099  0.2204  0.0105
 2886THY    CM172145   3.374   3.406   8.742 -0.0619  0.4473 -0.7265
 2886THY    HM172146   3.276   3.378   8.702 -0.8171  2.7602 -0.6095
 2886THY    HM272147   3.380   3.513   8.722  0.4119  0.5800  0.0653
 2886THY    HM372148   3.460   3.360   8.692  0.8776 -0.8912  1.9432
 2886THY    CA672149   3.276   3.356   8.975  0.1221 -0.2193  0.2688
 2886THY    HA672150   3.177   3.343   8.933  0.8658 -1.2808 -1.2381
 2887THY      O72151   7.771   5.582   0.277 -0.3487  0.0916  0.4401
 2887THY     HO72152   7.738   5.645   0.344  0.9460  0.2557  0.9578
 2887THY    CA172153   7.876   5.644   0.216 -0.0048 -0.2831 -1.1092
 2887THY    CA272154   7.986   5.570   0.181  0.1669  0.0338  0.2464
 2887THY    CP172155   7.982   5.419   0.169 -0.4698  0.1559  0.0712
 2887THY    HP172156   7.879   5.387   0.146 -0.6985  1.1668 -0.3789
 2887THY    CP272157   8.055   5.363   0.039  0.4553  0.6341 -0.4550
 2887THY    HP272158   8.030   5.256   0.033  1.3431  0.3254  0.8574
 2887THY    HP372159   8.035   5.430  -0.045  0.3469 -0.8833 -1.6840
 2887THY    HP472160   8.164   5.378   0.039  0.3165  1.7604  0.1519
 2887THY    CP372161   8.037   5.338   0.288  0.2833 -0.0094  0.2373
 2887THY    HP572162   8.008   5.236   0.258 -1.6856 -0.0839  2.1489
 2887THY    HP672163   8.146   5.341   0.293  0.3148 -0.3980 -0.0805
 2887THY    HP772164   7.984   5.361   0.381  1.3138  1.1165  0.5623
 2887THY    CA372165   8.097   5.641   0.130  0.2933  0.0061  0.1992
 2887THY    HA372166   8.193   5.597   0.105  1.0156  1.3251  0.5345
 2887THY    CA472167   8.097   5.781   0.135 -0.1335 -0.3997  1.2292
 2887THY    HA472168   8.187   5.833   0.102 -0.5070 -1.3792 -1.5857
 2887THY    CA572169   7.986   5.849   0.171 -0.2121 -0.5907 -0.5729
 2887THY    CM172170   7.981   6.000   0.162 -0.6285 -0.0884  0.0241
 2887THY    HM172171   7.925   6.024   0.071 -0.2165  1.3727  0.1262
 2887THY    HM272172   7.946   6.060   0.247  1.4738  0.3464  0.6623
 2887THY    HM372173   8.080   6.039   0.137 -0.1635 -0.4848  1.1588
 2887THY    CA672174   7.873   5.785   0.209 -0.3108 -0.6194  0.2236
 2887THY    HA672175   7.796   5.851   0.247  1.3527  2.1978 -0.9631
 2888THY      O72176   7.499   4.098   7.085 -0.2471  0.0946 -0.6292
 2888THY     HO72177   7.473   4.180   7.130 -0.2996  1.1743 -2.5376
 2888THY    CA172178   7.467   3.991   7.168 -0.4301 -0.5247  0.3324
 2888THY    CA272179   7.461   4.007   7.306  0.1675  0.0613 -0.1506
 2888THY    CP172180   7.485   4.149   7.371 -0.5531  0.2566  0.3298
 2888THY    HP172181   7.500   4.232   7.301  0.4763  0.8739  1.2527
 2888THY    CP272182   7.376   4.197   7.469 -0.6006  0.1089  0.4451
 2888THY    HP272183   7.276   4.220   7.429 -0.3063  0.8205  0.1116
 2888THY    HP372184   7.361   4.124   7.549  1.7801  0.0800  0.9167
 2888THY    HP472185   7.415   4.288   7.514 -0.6387 -0.5508  1.8498
 2888THY    CP372186   7.615   4.150   7.455  0.2903  0.0922  0.0205
 2888THY    HP572187   7.599   4.124   7.561 -0.3961 -1.1053 -0.3593
 2888THY    HP672188   7.691   4.077   7.426 -0.5835 -1.2389  0.9667
 2888THY    HP772189   7.667   4.246   7.447  0.5324  0.0084  0.5522
 2888THY    CA372190   7.441   3.890   7.388  0.2409 -0.7262  0.0695
 2888THY    HA372191   7.441   3.894   7.496  0.2545  2.0850  0.0287
 2888THY    CA472192   7.416   3.766   7.321 -0.7335  0.8134 -0.5542
 2888THY    HA472193   7.387   3.681   7.382  2.0033  0.2613  0.1057
 2888THY    CA572194   7.428   3.760   7.179  0.9591  0.2934  0.3557
 2888THY    CM172195   7.418   3.630   7.111  0.2706  0.4403 -0.2551
 2888THY    HM172196   7.511   3.574   7.099 -0.3227 -0.4000 -1.1345
 2888THY    HM272197   7.350   3.554   7.152  0.3759  0.6944  0.3947
 2888THY    HM372198   7.391   3.649   7.007  0.4853 -0.8339 -0.5635
 2888THY    CA672199   7.450   3.872   7.103 -0.4706 -0.2649 -0.5152
 2888THY    HA672200   7.478   3.873   6.999  1.6061  0.3548  0.0009
 2889THY      O72201   6.905   5.469   4.956  0.2287  0.2832  0.2572
 2889THY     HO72202   6.934   5.429   4.872 -0.6460 -1.2344  0.6486
 2889THY    CA172203   7.020   5.527   5.002  0.2194 -0.4641 -0.6569
 2889THY    CA272204   7.030   5.574   5.131 -0.5616 -0.4189 -0.3043
 2889THY    CP172205   6.904   5.579   5.226 -0.2546  0.3647 -0.0180
 2889THY    HP172206   6.819   5.553   5.162 -1.0755  1.1458  0.7266
 2889THY    CP272207   6.910   5.478   5.343 -0.5553  0.8978  0.0389
 2889THY    HP272208   7.002   5.471   5.402 -0.2631 -3.2223 -0.5833
 2889THY    HP372209   6.838   5.496   5.423 -0.6200  0.4418  0.0910
 2889THY    HP472210   6.905   5.378   5.298  0.5353  0.6675  0.4045
 2889THY    CP372211   6.878   5.719   5.281  0.5980 -0.0976 -0.0874
 2889THY    HP572212   6.899   5.796   5.206  2.4760 -0.3936  0.0818
 2889THY    HP672213   6.778   5.726   5.324  1.5757 -3.1789  3.1844
 2889THY    HP772214   6.955   5.723   5.359  3.2426 -2.9404 -2.2911
 2889THY    CA372215   7.157   5.624   5.180  0.1737  0.2482  0.1593
 2889THY    HA372216   7.165   5.662   5.281  0.9712  0.6672 -0.0525
 2889THY    CA472217   7.260   5.640   5.094  0.4426 -0.2891 -0.3627
 2889THY    HA472218   7.356   5.679   5.127 -0.2231  0.7606  0.4275
 2889THY    CA572219   7.243   5.607   4.960  0.5049  0.5438 -0.1140
 2889THY    CM172220   7.346   5.646   4.854  0.3498  0.2474 -0.1916
 2889THY    HM172221   7.385   5.567   4.789 -0.5515  0.7087 -1.3273
 2889THY    HM272222   7.307   5.723   4.786 -2.4753  0.1241  1.1529
 2889THY    HM372223   7.424   5.699   4.910  1.4567 -0.9790 -0.5303
 2889THY    CA672224   7.125   5.557   4.915  0.0473  0.2213 -0.2836
 2889THY    HA672225   7.113   5.525   4.812 -2.1402 -0.8182  0.2245
 2890THY      O72226   9.610   1.379   9.119 -0.3151 -0.0248  0.3398
 2890THY     HO72227   9.526   1.405   9.160  0.6239 -1.8557  3.9251
 2890THY    CA172228   9.625   1.443   9.006  0.3548 -0.7130  0.2643
 2890THY    CA272229   9.746   1.463   8.940  0.4153  0.2593  1.1015
 2890THY    CP172230   9.880   1.419   9.003 -0.1506  0.0432 -0.0988
 2890THY    HP172231   9.865   1.322   9.051  0.0767  0.3132  0.5367
 2890THY    CP272232  10.004   1.406   8.912 -0.5967 -0.1470  0.9059
 2890THY    HP272233   9.988   1.329   8.834 -0.3860  0.1274  0.5905
 2890THY    HP372234  10.046   1.496   8.866  0.4080 -1.1352 -0.2143
 2890THY    HP472235  10.087   1.369   8.972  1.0342 -0.1496 -1.2176
 2890THY    CP372236   9.931   1.513   9.118  0.0158 -0.0187  0.0350
 2890THY    HP572237   9.962   1.605   9.066  0.4960  0.3487  0.9607
 2890THY    HP672238   9.856   1.535   9.195  0.9589  1.3337  0.6002
 2890THY    HP772239  10.022   1.478   9.166  1.4313  0.5004 -2.1191
 2890THY    CA372240   9.746   1.522   8.811 -0.1998 -0.1951 -0.1806
 2890THY    HA372241   9.837   1.539   8.753  0.2846 -0.8529  0.3740
 2890THY    CA472242   9.633   1.585   8.764  0.3382  0.0101  0.1829
 2890THY    HA472243   9.640   1.637   8.669 -0.2477 -0.4169 -0.1003
 2890THY    CA572244   9.517   1.576   8.837  0.1654 -0.1928  0.0825
 2890THY    CM172245   9.388   1.630   8.789 -0.0180 -0.2302 -0.5541
 2890THY    HM172246   9.408   1.712   8.720  0.5949  1.0921  1.1103
 2890THY    HM272247   9.340   1.543   8.744  0.6567 -1.8546  1.6895
 2890THY    HM372248   9.322   1.672   8.866  0.4491 -1.3524  0.4977
 2890THY    CA672249   9.512   1.498   8.951 -0.1770  0.0031  0.1397
 2890THY    HA672250   9.418   1.483   9.004 -0.9284  0.2064 -1.1045
 2891THY      O72251   7.125   0.769   5.672  0.0970 -0.3165 -0.4979
 2891THY     HO72252   7.208   0.740   5.712 -0.8575 -1.9600  0.4330
 2891THY    CA172253   7.152   0.881   5.602 -0.9203 -0.6283 -0.2066
 2891THY    CA272254   7.061   0.933   5.512 -0.4321 -0.3951  0.1433
 2891THY    CP172255   6.923   0.870   5.492  0.2796 -0.1942  0.1416
 2891THY    HP172256   6.911   0.775   5.546 -0.4545 -0.6890 -0.8598
 2891THY    CP272257   6.818   0.978   5.529  0.1170 -0.1192 -0.5899
 2891THY    HP272258   6.721   0.930   5.511  0.0070  0.1277 -0.6564
 2891THY    HP372259   6.821   1.000   5.636 -3.6593  0.2347 -0.4363
 2891THY    HP472260   6.819   1.069   5.468  0.1788  0.8942  0.8709
 2891THY    CP372261   6.904   0.822   5.344  0.2396  0.8789  0.6376
 2891THY    HP572262   6.927   0.893   5.263 -2.9761 -1.4680 -2.6866
 2891THY    HP672263   6.974   0.738   5.337 -0.2068  0.2912  2.7060
 2891THY    HP772264   6.809   0.775   5.319  0.8241  0.0058 -0.0200
 2891THY    CA372265   7.102   1.044   5.429 -0.1688  0.0641  0.1422
 2891THY    HA372266   7.040   1.075   5.345 -0.1661 -0.2582  0.0196
 2891THY    CA472267   7.225   1.102   5.452 -0.6043  0.8613  0.4942
 2891THY    HA472268   7.265   1.184   5.392  0.1612  0.3255  0.2600
 2891THY    CA572269   7.302   1.055   5.550 -0.4465  0.3783 -0.2719
 2891THY    CM172270   7.430   1.122   5.570 -0.3328 -0.2796  0.1023
 2891THY    HM172271   7.455   1.116   5.677 -2.2244  2.9427  0.8622
 2891THY    HM272272   7.503   1.076   5.502 -0.8599 -0.1333 -0.5703
 2891THY    HM372273   7.434   1.231   5.561  3.3371 -0.2297  0.7603
 2891THY    CA672274   7.269   0.949   5.628 -0.3367 -0.1159 -0.5345
 2891THY    HA672275   7.332   0.909   5.706 -0.0501  3.6949  1.4088
 2892THY      O72276   5.199   1.081   1.147  0.1383  0.9050  0.3230
 2892THY     HO72277   5.193   1.073   1.244 -2.3146 -1.5579  0.0974
 2892THY    CA172278   5.327   1.068   1.105 -0.4591 -0.1675  0.4596
 2892THY    CA272279   5.347   1.045   0.965  0.6015  0.1688 -0.2352
 2892THY    CP172280   5.235   1.059   0.862  0.3448 -0.3229  0.4140
 2892THY    HP172281   5.135   1.072   0.905  0.1414  1.6188 -0.5200
 2892THY    CP272282   5.254   1.184   0.772  1.0415  0.2748  0.1496
 2892THY    HP272283   5.248   1.274   0.836 -1.8993 -0.2975  0.8629
 2892THY    HP372284   5.343   1.180   0.709  0.7128 -5.1582 -0.4413
 2892THY    HP472285   5.165   1.196   0.708 -1.5285  3.4557  3.7865
 2892THY    CP372286   5.228   0.935   0.767 -0.5743  0.3881  0.1883
 2892THY    HP572287   5.170   0.857   0.817 -0.4696  1.0632  1.3897
 2892THY    HP672288   5.176   0.954   0.672  0.1642  1.3782 -0.0361
 2892THY    HP772289   5.325   0.888   0.751 -0.6171  0.3512  0.0294
 2892THY    CA372290   5.480   1.035   0.917  0.3681  0.2812 -1.1288
 2892THY    HA372291   5.499   1.025   0.810  1.9414 -0.1189 -0.8416
 2892THY    CA472292   5.586   1.030   1.013 -0.4719  0.1289  0.6664
 2892THY    HA472293   5.685   0.999   0.981 -1.5944 -1.3391 -1.7075
 2892THY    CA572294   5.557   1.039   1.153 -0.8136 -0.0516 -0.7205
 2892THY    CM172295   5.675   1.042   1.251  0.1977  0.7018 -0.2503
 2892THY    HM172296   5.771   1.033   1.198  1.7092 -0.0605  2.4352
 2892THY    HM272297   5.679   1.137   1.305 -1.4433  0.2942  0.6479
 2892THY    HM372298   5.650   0.968   1.328 -1.0946  0.8115 -0.5368
 2892THY    CA672299   5.428   1.049   1.196 -0.0230 -0.4632 -0.3141
 2892THY    HA672300   5.403   1.066   1.300  0.7791  2.7509 -0.5406
 2893THY      O72301   7.602   2.270   0.414  1.0054 -0.3370  0.5799
 2893THY     HO72302   7.603   2.345   0.477  3.4493 -0.6077  0.9656
 2893THY    CA172303   7.653   2.171   0.481  0.0896  0.4567 -0.6411
 2893THY    CA272304   7.709   2.052   0.419 -1.1148 -0.0512 -0.7663
 2893THY    CP172305   7.700   2.032   0.269 -0.0514 -0.0862  0.2433
 2893THY    HP172306   7.658   2.124   0.226  0.6347  0.2444  0.2623
 2893THY    CP272307   7.837   2.006   0.209  0.1891  0.7158 -0.8261
 2893THY    HP272308   7.884   1.920   0.258 -0.8375  1.2155  1.1400
 2893THY    HP372309   7.829   2.003   0.100  1.5788 -1.0404 -0.9293
 2893THY    HP472310   7.904   2.090   0.231 -0.9322  1.8790 -1.7344
 2893THY    CP372311   7.606   1.922   0.231 -0.4258  0.7503 -0.4845
 2893THY    HP572312   7.620   1.835   0.296 -1.3555  1.3330  0.5218
 2893THY    HP672313   7.503   1.958   0.236 -0.2225  1.2288  0.2859
 2893THY    HP772314   7.632   1.905   0.125 -0.7700  0.4147 -0.5172
 2893THY    CA372315   7.760   1.945   0.500  0.0063 -0.0849 -1.1116
 2893THY    HA372316   7.811   1.858   0.460  2.0363  0.8253 -0.6040
 2893THY    CA472317   7.761   1.968   0.640 -0.7768 -0.4658  0.1064
 2893THY    HA472318   7.791   1.883   0.700 -1.2044 -1.3742 -0.9295
 2893THY    CA572319   7.700   2.077   0.698  0.1628 -0.6161  0.1563
 2893THY    CM172320   7.697   2.082   0.850  0.1326  0.0155  0.1843
 2893THY    HM172321   7.597   2.102   0.889  0.3623 -1.1131  1.4346
 2893THY    HM272322   7.735   1.995   0.905  0.7489  0.0768 -0.1426
 2893THY    HM372323   7.758   2.164   0.890 -0.0903 -0.9839  2.8429
 2893THY    CA672324   7.653   2.181   0.619 -0.2241  0.0594 -0.7580
 2893THY    HA672325   7.598   2.261   0.668 -1.4922 -0.3684 -1.4632
 2894THY      O72326   1.443   2.862   3.796  0.4934 -0.3765  0.5152
 2894THY     HO72327   1.356   2.848   3.756 -0.4237  2.5696  1.2166
 2894THY    CA172328   1.417   2.917   3.914  0.1155  0.1105  0.0576
 2894THY    CA272329   1.520   2.979   3.988 -0.1640  0.6304 -0.1191
 2894THY    CP172330   1.652   3.006   3.926 -0.3825 -0.2702 -0.8518
 2894THY    HP172331   1.678   2.919   3.865 -0.6739 -2.0442  1.3882
 2894THY    CP272332   1.658   3.141   3.843 -0.0346  0.4340 -0.1598
 2894THY    HP272333   1.752   3.159   3.790 -1.6923  0.0401 -3.4680
 2894THY    HP372334   1.576   3.159   3.773 -0.3331 -1.3748 -0.3357
 2894THY    HP472335   1.659   3.229   3.908  1.0389 -0.3364  0.9130
 2894THY    CP372336   1.777   3.009   4.019 -0.3074  1.0375  0.0548
 2894THY    HP572337   1.790   3.092   4.089  1.4402  0.9241 -0.0926
 2894THY    HP672338   1.776   2.925   4.090  0.2183  0.2080 -0.8978
 2894THY    HP772339   1.873   2.997   3.967 -0.5649  1.5076 -0.5380
 2894THY    CA372340   1.492   3.031   4.114  0.0747 -0.6918 -0.8955
 2894THY    HA372341   1.560   3.089   4.176 -1.2693  1.3975 -1.2992
 2894THY    CA472342   1.355   3.027   4.158 -0.0090  0.0718  0.1899
 2894THY    HA472343   1.322   3.074   4.249  2.9025 -0.4498  1.6359
 2894THY    CA572344   1.258   2.950   4.088  0.0299  0.5526 -0.9273
 2894THY    CM172345   1.119   2.938   4.145 -0.1291  0.4184 -0.0432
 2894THY    HM172346   1.051   2.911   4.064  1.7315 -1.8949 -0.9417
 2894THY    HM272347   1.127   2.856   4.217  1.6742 -0.8768 -1.6321
 2894THY    HM372348   1.088   3.033   4.191 -2.4834  0.0423 -0.7073
 2894THY    CA672349   1.285   2.905   3.960  0.0949 -0.0406  1.0813
 2894THY    HA672350   1.213   2.850   3.900  0.6026  0.1101  0.3172
 2895THY      O72351   3.764   1.834   9.856  0.6265  0.3163 -0.1268
 2895THY     HO72352   3.717   1.872   9.780 -0.7767 -1.7795 -0.4076
 2895THY    CA172353   3.867   1.778   9.794 -0.0939  0.1179  0.6087
 2895THY    CA272354   3.988   1.745   9.864 -0.7399 -0.1824  0.1671
 2895THY    CP172355   4.019   1.796  10.006  0.1568  0.8838  0.6891
 2895THY    HP172356   3.943   1.870  10.033 -1.9263 -0.2251 -1.8000
 2895THY    CP272357   4.004   1.686  10.105  0.6330 -0.8699  0.1667
 2895THY    HP272358   3.900   1.651  10.101  0.0371  0.7901  0.1893
 2895THY    HP372359   4.079   1.607  10.098  0.4712 -1.0491  0.4415
 2895THY    HP472360   4.006   1.728  10.206 -3.1475  0.4115 -0.1143
 2895THY    CP372361   4.163   1.858  10.015 -0.0135  0.2219  0.0195
 2895THY    HP572362   4.245   1.790   9.991 -0.7090 -0.4788 -0.4123
 2895THY    HP672363   4.174   1.941   9.943 -0.7040 -1.3318 -1.9700
 2895THY    HP772364   4.170   1.898  10.117 -0.5864 -1.6231  0.8179
 2895THY    CA372365   4.092   1.689   9.786  0.2146 -0.3243 -1.6967
 2895THY    HA372366   4.188   1.657   9.826 -0.0867  0.9021  0.0985
 2895THY    CA472367   4.072   1.655   9.649 -0.5673  0.5576  0.1082
 2895THY    HA472368   4.154   1.612   9.592  0.6748  0.9748  1.4953
 2895THY    CA572369   3.948   1.673   9.591 -0.0836 -0.1703 -0.2183
 2895THY    CM172370   3.921   1.609   9.466  0.1146 -0.5292 -0.2249
 2895THY    HM172371   3.983   1.519   9.460 -1.6372 -1.8102  0.1010
 2895THY    HM272372   3.816   1.580   9.458 -0.0579 -0.2121  0.8377
 2895THY    HM372373   3.958   1.675   9.386  2.5400  0.1109  1.3116
 2895THY    CA672374   3.848   1.736   9.664 -0.2148  0.2846  0.8632
 2895THY    HA672375   3.750   1.745   9.619 -0.4655 -1.7757  0.9119
 2896THY      O72376   7.141   5.633   6.994  0.2095  0.3875 -0.5089
 2896THY     HO72377   7.228   5.670   6.968 -0.8099  1.9998 -1.8445
 2896THY    CA172378   7.148   5.606   7.124 -0.1854  0.3196 -0.1341
 2896THY    CA272379   7.031   5.552   7.189  0.1458  0.1454 -0.3752
 2896THY    CP172380   6.910   5.512   7.111 -0.0433  0.9743 -0.5028
 2896THY    HP172381   6.917   5.547   7.007  0.2095 -0.3451 -0.9552
 2896THY    CP272382   6.903   5.360   7.100 -0.5474 -0.0988  0.0930
 2896THY    HP272383   6.995   5.324   7.053  0.2815  1.3401  0.5648
 2896THY    HP372384   6.869   5.318   7.196 -0.0890  2.1613  1.3118
 2896THY    HP472385   6.833   5.330   7.022  0.1813 -1.7967  0.0287
 2896THY    CP372386   6.778   5.567   7.155  0.4451  0.8892  0.7261
 2896THY    HP572387   6.787   5.675   7.146 -0.1570  0.7804 -2.2556
 2896THY    HP672388   6.695   5.536   7.091  0.5937 -1.1060  1.4275
 2896THY    HP772389   6.755   5.523   7.253 -1.1046  1.5844  0.6964
 2896THY    CA372390   7.033   5.527   7.326 -0.1538 -0.1478  0.1856
 2896THY    HA372391   6.939   5.496   7.371 -0.0706 -1.1115 -0.2747
 2896THY    CA472392   7.158   5.543   7.395  0.5957 -0.6133  0.2579
 2896THY    HA472393   7.154   5.536   7.503  2.0800 -2.0985  0.2494
 2896THY    CA572394   7.273   5.594   7.330 -0.3088 -0.1767  0.6395
 2896THY    CM172395   7.404   5.617   7.405 -0.3529  1.1058 -0.0293
 2896THY    HM172396   7.397   5.724   7.423  0.2703  1.3755 -1.3083
 2896THY    HM272397   7.410   5.567   7.502 -0.9046  1.3750  0.1427
 2896THY    HM372398   7.493   5.594   7.345 -0.8989 -0.3743 -0.3116
 2896THY    CA672399   7.263   5.630   7.196 -0.3307 -0.0926 -0.5969
 2896THY    HA672400   7.351   5.672   7.148  2.0038 -2.9110  0.8909
 2897THY      O72401   8.263   6.854   4.157 -0.1823  0.2900 -0.5690
 2897THY     HO72402   8.293   6.908   4.231 -1.7599 -1.0719  1.1760
 2897THY    CA172403   8.376   6.820   4.092 -0.2959  0.3356  0.9693
 2897THY    CA272404   8.368   6.815   3.954  0.5127 -0.5329  0.9837
 2897THY    CP172405   8.258   6.885   3.870  0.1898 -0.4831  0.3827
 2897THY    HP172406   8.167   6.902   3.929 -0.7206 -4.0192  0.1871
 2897THY    CP272407   8.306   7.012   3.820 -0.3921 -0.6351  0.3548
 2897THY    HP272408   8.406   6.995   3.778  0.0367  0.0375  1.0735
 2897THY    HP372409   8.247   7.053   3.737 -0.5874  2.8624  2.0319
 2897THY    HP472410   8.294   7.090   3.896 -2.3293 -1.2873  0.7623
 2897THY    CP372411   8.202   6.804   3.751 -0.0084  0.5070  0.0515
 2897THY    HP572412   8.251   6.815   3.654  0.1176 -0.5217 -0.0137
 2897THY    HP672413   8.198   6.695   3.768 -0.5228 -0.0405 -2.9349
 2897THY    HP772414   8.096   6.827   3.736 -0.7371 -1.5500  1.4965
 2897THY    CA372415   8.464   6.744   3.880 -0.6630 -0.5709 -0.7250
 2897THY    HA372416   8.456   6.743   3.771  0.4462  1.3803 -0.8728
 2897THY    CA472417   8.582   6.697   3.947  0.3292  0.7078  0.5072
 2897THY    HA472418   8.659   6.647   3.888 -0.5205 -1.3547  1.0460
 2897THY    CA572419   8.593   6.710   4.084  0.7575  0.9520 -0.0650
 2897THY    CM172420   8.721   6.666   4.162 -0.4629 -1.4144  0.1846
 2897THY    HM172421   8.696   6.642   4.266 -0.7273  1.2911  0.8057
 2897THY    HM272422   8.783   6.589   4.114 -0.1336 -1.9582  1.4561
 2897THY    HM372423   8.779   6.759   4.166 -0.1774 -1.4710 -1.6076
 2897THY    CA672424   8.491   6.772   4.153 -0.1865  0.5617 -0.2909
 2897THY    HA672425   8.506   6.782   4.260 -0.9827 -1.1098 -0.0086
 2898THY      O72426   7.071   0.396   5.995  0.0224 -0.2572  0.2344
 2898THY     HO72427   7.137   0.446   6.047 -1.3125  1.0250  0.7580
 2898THY    CA172428   7.064   0.275   6.046 -0.3626  0.2969  0.0478
 2898THY    CA272429   6.997   0.173   5.984  0.5429  0.2515  0.1962
 2898THY    CP172430   6.937   0.183   5.838  0.6344  0.3422  0.7495
 2898THY    HP172431   6.962   0.272   5.779  3.2498 -1.4872 -1.0853
 2898THY    CP272432   6.984   0.073   5.752 -0.7942  0.1296 -0.5484
 2898THY    HP272433   6.968  -0.028   5.791  0.1625  0.1560 -0.0694
 2898THY    HP372434   6.935   0.072   5.654 -2.4763 -0.9172  0.2647
 2898THY    HP472435   7.092   0.085   5.740 -0.7049  0.1233  0.2168
 2898THY    CP372436   6.790   0.175   5.836  0.2482 -0.5660 -0.0153
 2898THY    HP572437   6.743   0.192   5.739  0.6409  1.6135  0.1252
 2898THY    HP672438   6.756   0.073   5.857  1.4030 -1.2120 -1.1588
 2898THY    HP772439   6.735   0.253   5.891 -2.1424 -0.1253 -2.8024
 2898THY    CA372440   6.967   0.059   6.055 -0.0602  0.0457 -0.7945
 2898THY    HA372441   6.902  -0.018   6.014 -1.6512  1.4983 -1.1600
 2898THY    CA472442   6.999   0.044   6.188  0.1021  0.0653  1.2322
 2898THY    HA472443   6.969  -0.048   6.237 -0.3808 -0.1186  0.6135
 2898THY    CA572444   7.077   0.139   6.249 -0.3096  0.0489  0.0537
 2898THY    CM172445   7.105   0.113   6.392  0.0812  0.5352 -0.4186
 2898THY    HM172446   7.144   0.014   6.415  0.3192  1.1452  2.0327
 2898THY    HM272447   7.180   0.185   6.427 -0.4100  1.8694 -1.9559
 2898THY    HM372448   7.014   0.120   6.451  0.1689 -2.7657  0.2861
 2898THY    CA672449   7.112   0.256   6.179 -0.2590  0.3513 -0.0544
 2898THY    HA672450   7.171   0.334   6.226 -1.4941  0.9517  0.5500
 2899THY      O72451   4.681   2.285   9.533 -0.4121  0.2440 -0.0071
 2899THY     HO72452   4.617   2.328   9.475 -2.1306 -1.1902  0.7485
 2899THY    CA172453   4.807   2.273   9.488 -0.1208  0.3323 -0.3789
 2899THY    CA272454   4.888   2.159   9.521 -0.7034  0.2258 -0.0318
 2899THY    CP172455   4.826   2.059   9.622  0.6809 -0.3671 -0.2399
 2899THY    HP172456   4.720   2.081   9.636  0.5846 -0.4643 -0.8151
 2899THY    CP272457   4.842   1.917   9.577 -0.3330 -0.0784 -0.2704
 2899THY    HP272458   4.786   1.857   9.650  1.0395 -0.2703  0.6442
 2899THY    HP372459   4.803   1.908   9.474  1.3180 -0.4798 -0.8814
 2899THY    HP472460   4.945   1.880   9.578 -0.2176  0.2089  1.8136
 2899THY    CP372461   4.897   2.075   9.753 -0.4000  0.1197  0.5790
 2899THY    HP572462   4.881   2.177   9.790 -0.3415  1.5083 -2.8634
 2899THY    HP672463   4.869   1.994   9.822  0.8175 -1.2835 -0.5183
 2899THY    HP772464   5.004   2.062   9.736 -0.7744 -0.6244 -1.3444
 2899THY    CA372465   5.015   2.148   9.462 -0.3552 -0.3080  0.3272
 2899THY    HA372466   5.080   2.065   9.486  0.4575 -0.2085 -1.3564
 2899THY    CA472467   5.058   2.243   9.368 -0.0028  0.2084 -0.1085
 2899THY    HA472468   5.154   2.246   9.317 -0.3427 -0.9141 -0.8740
 2899THY    CA572469   4.967   2.346   9.328  0.3291 -0.7599  0.7352
 2899THY    CM172470   5.014   2.442   9.219 -0.4529 -0.4824  0.0553
 2899THY    HM172471   5.029   2.540   9.265  2.2127 -0.1052 -1.4057
 2899THY    HM272472   5.107   2.405   9.174 -0.6048 -2.0033  0.9197
 2899THY    HM372473   4.939   2.471   9.144 -0.1001  0.7155  0.1380
 2899THY    CA672474   4.846   2.365   9.388 -0.6616  0.4325  0.0247
 2899THY    HA672475   4.790   2.454   9.363 -2.4967  0.2218  2.8441
 2900THY      O72476   4.832   6.737   9.034  0.2388  0.9868  0.3220
 2900THY     HO72477   4.810   6.694   9.118 -0.1106  2.3542  0.9602
 2900THY    CA172478   4.950   6.681   8.997 -0.0070 -0.0784  0.9646
 2900THY    CA272479   5.020   6.722   8.880  0.3253  0.2625 -0.5917
 2900THY    CP172480   4.973   6.824   8.785  0.3359 -1.0677 -0.0005
 2900THY    HP172481   4.907   6.893   8.839 -0.0205 -2.0360  0.8264
 2900THY    CP272482   5.084   6.915   8.722  0.2773 -0.1260  0.5484
 2900THY    HP272483   5.138   6.874   8.636  0.4791  0.7245  0.2544
 2900THY    HP372484   5.050   7.011   8.680  2.1678 -0.2903 -1.5533
 2900THY    HP472485   5.152   6.948   8.801  1.0334 -1.3836  0.4418
 2900THY    CP372486   4.891   6.756   8.672 -0.6577  0.3111 -0.7876
 2900THY    HP572487   4.812   6.686   8.699 -0.2384 -0.5808 -1.8003
 2900THY    HP672488   4.855   6.832   8.601  2.3320 -0.0817 -2.9306
 2900THY    HP772489   4.968   6.698   8.619 -1.5128 -2.2482  0.6320
 2900THY    CA372490   5.141   6.655   8.855 -0.1696  0.3864  0.5446
 2900THY    HA372491   5.198   6.698   8.774  1.4414  3.0318  2.9097
 2900THY    CA472492   5.182   6.548   8.938 -0.6262  0.0113 -0.1359
 2900THY    HA472493   5.280   6.504   8.926 -0.9203 -0.2298 -1.9332
 2900THY    CA572494   5.098   6.498   9.041  0.4837 -0.2868 -0.5505
 2900THY    CM172495   5.134   6.381   9.127 -0.1096  0.2916  0.6401
 2900THY    HM172496   5.210   6.320   9.076 -0.7263 -0.1631  0.2483
 2900THY    HM272497   5.166   6.411   9.228 -0.6095 -1.7538  1.4542
 2900THY    HM372498   5.049   6.315   9.151  1.0142 -2.3488 -2.0216
 2900THY    CA672499   4.981   6.567   9.065  0.8652  0.1488 -0.7722
 2900THY    HA672500   4.921   6.536   9.150  1.7623 -0.6928 -0.4336
 2901THY      O72501   4.092   5.765   8.929 -0.0830 -0.8155  0.4008
 2901THY     HO72502   4.116   5.852   8.894 -2.1139 -0.6442 -0.7456
 2901THY    CA172503   4.187   5.695   8.863  0.2698  1.0073 -0.5178
 2901THY    CA272504   4.184   5.555   8.863 -0.3457 -0.0772 -0.4518
 2901THY    CP172505   4.071   5.466   8.931  0.1337 -0.4131 -0.1658
 2901THY    HP172506   3.997   5.532   8.977  2.4237  1.7824  0.6221
 2901THY    CP272507   4.014   5.372   8.820  0.5179 -0.1622 -0.6132
 2901THY    HP272508   3.930   5.319   8.866  0.9739  0.6916  1.3316
 2901THY    HP372509   3.980   5.433   8.735 -3.5416 -1.1754  0.0938
 2901THY    HP472510   4.082   5.295   8.782 -0.3017 -0.1108 -2.2358
 2901THY    CP372511   4.130   5.402   9.052  0.6610  0.0149 -0.8761
 2901THY    HP572512   4.221   5.343   9.044  0.3710 -0.5933  0.1793
 2901THY    HP672513   4.134   5.473   9.135 -2.5687  0.7695 -1.2041
 2901THY    HP772514   4.053   5.329   9.080  0.3722  0.8658  0.6952
 2901THY    CA372515   4.282   5.495   8.776 -0.2643  0.2589 -0.1319
 2901THY    HA372516   4.288   5.387   8.765  0.2201  0.3784 -1.2498
 2901THY    CA472517   4.382   5.563   8.701  0.2116  0.0121 -0.1117
 2901THY    HA472518   4.456   5.521   8.633  1.6233 -1.8357  2.4030
 2901THY    CA572519   4.372   5.693   8.707  0.1957 -0.4226 -0.1853
 2901THY    CM172520   4.474   5.779   8.639  0.6180 -0.6278 -0.1587
 2901THY    HM172521   4.427   5.877   8.629 -2.6937 -1.8799  1.5407
 2901THY    HM272522   4.571   5.789   8.688  0.6989  0.4371 -0.5059
 2901THY    HM372523   4.502   5.739   8.540  3.4864  1.2597 -0.2283
 2901THY    CA672524   4.272   5.760   8.776 -0.9771  0.2204 -0.2580
 2901THY    HA672525   4.282   5.868   8.776  1.0464  0.0971 -1.9152
 2902THY      O72526   8.885   3.939   2.684  0.1247  0.8113  0.2895
 2902THY     HO72527   8.818   3.963   2.750  1.5934  2.9041  1.1558
 2902THY    CA172528   8.980   3.883   2.765  0.2775  0.6426  0.5674
 2902THY    CA272529   9.100   3.833   2.706  0.1921 -0.6447 -0.2906
 2902THY    CP172530   9.142   3.872   2.558  1.1213 -0.1501  0.1700
 2902THY    HP172531   9.066   3.941   2.520 -0.5826 -1.6556  0.7259
 2902THY    CP272532   9.278   3.944   2.548  0.0579 -0.3328  0.6008
 2902THY    HP272533   9.363   3.884   2.583  0.8741  1.4851  1.8963
 2902THY    HP372534   9.291   3.967   2.442 -0.3638 -2.1741  0.1094
 2902THY    HP472535   9.287   4.040   2.599  2.3770  1.4693 -2.7608
 2902THY    CP372536   9.137   3.748   2.471  0.1749  0.5952 -0.6152
 2902THY    HP572537   9.163   3.755   2.365  0.1494 -0.7801 -0.7358
 2902THY    HP672538   9.202   3.671   2.516  2.3796  2.5149 -0.3194
 2902THY    HP772539   9.037   3.704   2.476  0.0195  1.0585  0.8434
 2902THY    CA372540   9.184   3.749   2.789 -0.0643  0.6169 -0.1368
 2902THY    HA372541   9.283   3.714   2.762  0.1126  1.3329 -0.4425
 2902THY    CA472542   9.154   3.728   2.924  0.2611  0.0862  0.1621
 2902THY    HA472543   9.228   3.681   2.989 -1.0106  1.2830  2.6420
 2902THY    CA572544   9.031   3.769   2.980 -0.5604  0.2354  0.6877
 2902THY    CM172545   9.004   3.750   3.119 -0.0407  0.1347 -0.2743
 2902THY    HM172546   8.907   3.791   3.147  0.0716 -0.1583  0.5992
 2902THY    HM272547   8.991   3.644   3.143 -0.7173  0.2997  0.1133
 2902THY    HM372548   9.079   3.802   3.180 -0.1030  2.1569 -1.8163
 2902THY    CA672549   8.948   3.852   2.896  0.2043 -0.1309 -0.6523
 2902THY    HA672550   8.857   3.890   2.940 -0.8145 -0.6653 -2.2184
 2903THY      O72551   6.738   7.996   7.756  0.0748  0.2960  0.5050
 2903THY     HO72552   6.707   8.026   7.844 -0.8229  0.2689  0.2106
 2903THY    CA172553   6.876   8.032   7.755 -0.2678  0.1926  0.5436
 2903THY    CA272554   6.963   7.996   7.649  0.5385  0.3206  0.6987
 2903THY    CP172555   6.913   7.922   7.518 -0.0172 -0.7291 -0.2494
 2903THY    HP172556   6.805   7.938   7.511 -0.1330 -0.6042  1.4093
 2903THY    CP272557   6.978   7.970   7.383 -0.1172  0.2632  0.0153
 2903THY    HP272558   7.071   7.921   7.355 -1.0133 -0.6101 -1.5689
 2903THY    HP372559   6.906   7.933   7.309  0.0896 -3.3476  1.4496
 2903THY    HP472560   6.983   8.080   7.381 -0.9279  0.3077 -2.1707
 2903THY    CP372561   6.932   7.774   7.536  0.3143 -0.1623 -0.4565
 2903THY    HP572562   6.928   7.742   7.641  0.2464  0.6185 -0.2126
 2903THY    HP672563   6.860   7.721   7.473  0.9733  0.5366 -1.8213
 2903THY    HP772564   7.035   7.753   7.505  0.4072 -0.2824 -0.0729
 2903THY    CA372565   7.094   8.039   7.658 -0.5614  0.0803  0.6825
 2903THY    HA372566   7.165   8.016   7.579 -1.1165  0.7187 -0.0127
 2903THY    CA472567   7.132   8.113   7.767  0.1292  0.5178 -0.3079
 2903THY    HA472568   7.230   8.159   7.769 -0.3334  1.5152 -0.3827
 2903THY    CA572569   7.044   8.144   7.869  0.3444 -0.2728  0.5787
 2903THY    CM172570   7.085   8.236   7.986 -0.2697  0.0714  0.3977
 2903THY    HM172571   7.138   8.176   8.061  0.3471  0.3480  0.1919
 2903THY    HM272572   7.149   8.319   7.954 -0.6532 -0.0211 -0.6562
 2903THY    HM372573   7.007   8.302   8.025 -1.4268 -1.4568  0.7409
 2903THY    CA672574   6.922   8.088   7.869  0.2414  0.2329 -0.6513
 2903THY    HA672575   6.853   8.120   7.947 -1.5357 -0.0490 -2.0193
 2904THY      O72576   5.488   7.298   4.037 -0.2521  0.1406  0.1026
 2904THY     HO72577   5.481   7.385   3.994 -1.3591 -0.8705 -1.9325
 2904THY    CA172578   5.614   7.267   4.061 -0.3328 -0.1374  0.0239
 2904THY    CA272579   5.659   7.139   4.100  0.1289 -0.2374  0.7877
 2904THY    CP172580   5.554   7.023   4.122 -0.2119 -0.1970  0.1861
 2904THY    HP172581   5.465   7.031   4.059 -0.9954  1.4173  1.4306
 2904THY    CP272582   5.605   6.879   4.083  0.0022  1.4692 -0.0374
 2904THY    HP272583   5.642   6.880   3.980  2.4974  0.1571  0.7737
 2904THY    HP372584   5.675   6.842   4.159  0.2005  1.7554 -0.0811
 2904THY    HP472585   5.525   6.804   4.087  1.9658 -0.7551 -0.4287
 2904THY    CP372586   5.502   7.016   4.266  0.5290  0.0383  0.2800
 2904THY    HP572587   5.571   6.979   4.344 -0.1928 -1.1101  0.4045
 2904THY    HP672588   5.473   7.114   4.305 -1.3527 -0.6885  0.8210
 2904THY    HP772589   5.405   6.966   4.253  0.1348  1.0951 -0.9943
 2904THY    CA372590   5.796   7.110   4.107 -0.4675  0.7534  0.3376
 2904THY    HA372591   5.839   7.012   4.127  1.3586  1.0261 -1.8551
 2904THY    CA472592   5.886   7.212   4.094 -0.2555  0.3652 -0.0854
 2904THY    HA472593   5.993   7.192   4.096 -0.6521 -2.0243  0.4093
 2904THY    CA572594   5.843   7.345   4.075 -0.4700  0.2583 -0.5760
 2904THY    CM172595   5.957   7.446   4.063 -0.1275 -0.0515  0.4329
 2904THY    HM172596   6.055   7.398   4.074 -0.0071  0.3055  1.0042
 2904THY    HM272597   5.959   7.500   3.968  0.2697 -0.5590  0.1529
 2904THY    HM372598   5.955   7.527   4.138  1.1812  1.4327 -1.0358
 2904THY    CA672599   5.706   7.372   4.063 -0.0678  0.0774  0.4638
 2904THY    HA672600   5.675   7.474   4.041  1.1403  0.7886  1.9485
 2905THY      O72601   7.544   7.086   5.646 -0.0311 -0.1691 -0.0350
 2905THY     HO72602   7.504   7.078   5.557 -1.3587  1.2983  0.3856
 2905THY    CA172603   7.579   6.965   5.694 -0.2531  0.0489 -0.4290
 2905THY    CA272604   7.650   6.955   5.819 -0.8317  0.5928 -0.2481
 2905THY    CP172605   7.696   7.082   5.892  0.6590 -0.1861  0.3244
 2905THY    HP172606   7.763   7.140   5.829 -0.6374 -0.4825 -1.4053
 2905THY    CP272607   7.577   7.164   5.942 -0.1222 -0.4365  0.2165
 2905THY    HP272608   7.604   7.270   5.943  1.8508 -0.9027 -0.4051
 2905THY    HP372609   7.497   7.152   5.868  0.2213  0.6773 -0.3509
 2905THY    HP472610   7.542   7.144   6.044  0.1537  0.9159  0.6021
 2905THY    CP372611   7.780   7.059   6.015 -0.7066 -0.4912 -0.0792
 2905THY    HP572612   7.728   7.015   6.101 -0.2620  1.4054  1.2347
 2905THY    HP672613   7.871   7.001   5.996  0.6369  0.7532  2.1181
 2905THY    HP772614   7.820   7.155   6.049  0.7467 -1.1391  0.1259
 2905THY    CA372615   7.677   6.828   5.873 -0.1594 -0.2393 -0.0143
 2905THY    HA372616   7.722   6.813   5.970  0.5132  2.4218  0.1716
 2905THY    CA472617   7.643   6.719   5.794 -0.3126  0.4238  0.4112
 2905THY    HA472618   7.680   6.624   5.831 -0.6184  0.3053  0.4177
 2905THY    CA572619   7.588   6.728   5.667 -0.0840  0.6148 -0.2878
 2905THY    CM172620   7.559   6.609   5.582 -0.2903  0.2887  0.5962
 2905THY    HM172621   7.468   6.551   5.601  0.6023 -2.0498 -1.5958
 2905THY    HM272622   7.557   6.645   5.479  1.0615  1.5535  0.9861
 2905THY    HM372623   7.644   6.539   5.586  1.4000  2.1613 -0.4896
 2905THY    CA672624   7.558   6.851   5.613  0.3913 -0.2167  0.8347
 2905THY    HA672625   7.506   6.862   5.519  1.8940  0.5970  0.0567
 2906THY      O72626   2.266   9.200   1.242 -0.1144 -0.3018 -0.0936
 2906THY     HO72627   2.232   9.153   1.164  0.9429 -1.1376 -0.0797
 2906THY    CA172628   2.257   9.110   1.346  0.0806  0.1592  0.1793
 2906THY    CA272629   2.270   9.146   1.484 -0.4176 -0.5519 -0.0005
 2906THY    CP172630   2.304   9.284   1.534 -0.7824  0.2868  1.4859
 2906THY    HP172631   2.324   9.343   1.444 -0.0696 -2.6909 -0.4300
 2906THY    CP272632   2.185   9.340   1.610 -0.4068 -0.0487 -0.0871
 2906THY    HP272633   2.095   9.312   1.555  0.1810 -0.6216 -0.7777
 2906THY    HP372634   2.168   9.314   1.716 -0.2364  0.9406  0.1978
 2906THY    HP472635   2.177   9.449   1.617  1.1719  0.0550  0.5593
 2906THY    CP372636   2.439   9.288   1.605  0.8903 -0.1074 -0.2592
 2906THY    HP572637   2.471   9.390   1.630  0.1078  0.1625 -0.3231
 2906THY    HP672638   2.425   9.241   1.703 -0.8877  0.0999 -0.3842
 2906THY    HP772639   2.520   9.243   1.546  1.1134  2.3842 -2.0483
 2906THY    CA372640   2.277   9.040   1.575 -0.0765  0.4699  0.2251
 2906THY    HA372641   2.295   9.066   1.679  3.3120 -0.3666 -0.0461
 2906THY    CA472642   2.252   8.905   1.530  0.4031 -0.0717  0.7061
 2906THY    HA472643   2.242   8.826   1.604 -0.0140 -0.7662 -0.0728
 2906THY    CA572644   2.206   8.878   1.398 -0.9759  0.1453 -0.3866
 2906THY    CM172645   2.160   8.738   1.357 -0.1697  0.2210  0.2843
 2906THY    HM172646   2.233   8.664   1.391 -0.0658  0.4390  0.5418
 2906THY    HM272647   2.072   8.698   1.409 -0.2974 -1.6355 -1.2559
 2906THY    HM372648   2.149   8.726   1.249 -1.9851 -1.6241  0.5984
 2906THY    CA672649   2.217   8.983   1.310 -0.7039  0.2845  0.1491
 2906THY    HA672650   2.189   8.968   1.206  2.5273 -2.0102 -0.5466
 2907THY      O72651   5.748   1.863   8.137 -0.1639 -0.5583 -1.1197
 2907THY     HO72652   5.829   1.879   8.085 -0.3127  1.2663 -0.8647
 2907THY    CA172653   5.694   1.989   8.148  0.0866 -0.2479  0.0972
 2907THY    CA272654   5.563   2.000   8.210 -0.3741 -0.5197  0.9667
 2907THY    CP172655   5.492   1.882   8.270  0.1692  0.0235  0.3279
 2907THY    HP172656   5.534   1.788   8.234 -0.6184  0.1998 -1.1287
 2907THY    CP272657   5.501   1.887   8.418 -0.0356  0.5037 -0.0047
 2907THY    HP272658   5.601   1.878   8.461 -0.5804 -0.2106  1.1799
 2907THY    HP372659   5.459   1.982   8.451  2.3966  1.4099  0.6749
 2907THY    HP472660   5.449   1.802   8.464 -0.6912  1.3022  0.7626
 2907THY    CP372661   5.348   1.868   8.221  0.7119  0.4576 -0.1826
 2907THY    HP572662   5.339   1.841   8.115 -1.9075 -2.8829  0.7133
 2907THY    HP672663   5.299   1.791   8.282 -0.8884  0.8761 -0.8789
 2907THY    HP772664   5.290   1.960   8.240 -0.6098 -0.5232  0.7031
 2907THY    CA372665   5.509   2.130   8.219 -0.1814 -0.0349 -0.5349
 2907THY    HA372666   5.426   2.154   8.286  2.8960  2.8375  2.6843
 2907THY    CA472667   5.586   2.244   8.172  0.0510  0.0141 -0.0551
 2907THY    HA472668   5.543   2.343   8.177  1.0253  0.6426 -2.6589
 2907THY    CA572669   5.708   2.229   8.099  0.6600 -0.0718 -0.3168
 2907THY    CM172670   5.783   2.355   8.046 -0.2448 -0.2354 -0.6894
 2907THY    HM172671   5.744   2.448   8.089 -1.1045 -1.4672  1.3494
 2907THY    HM272672   5.893   2.351   8.053  0.1187  0.5845 -4.2762
 2907THY    HM372673   5.767   2.367   7.939 -0.2978  0.0394 -0.6510
 2907THY    CA672674   5.763   2.101   8.091 -0.2579 -0.3132 -0.3491
 2907THY    HA672675   5.866   2.096   8.060  0.4514 -0.3622  1.8534
 2908THY      O72676   6.918   0.985   9.297  0.2627  0.9019  0.4815
 2908THY     HO72677   6.965   1.000   9.381  1.6005 -1.1555  0.1884
 2908THY    CA172678   6.886   0.842   9.295  0.1360  0.1404  0.3191
 2908THY    CA272679   6.784   0.788   9.214 -0.1765  0.3662  0.2068
 2908THY    CP172680   6.717   0.869   9.102  0.1949 -0.5463  0.4879
 2908THY    HP172681   6.717   0.975   9.133 -1.4117 -0.5583  0.5806
 2908THY    CP272682   6.797   0.850   8.966  0.6089 -0.6702 -0.2589
 2908THY    HP272683   6.783   0.744   8.940 -0.4601 -0.7517  0.5873
 2908THY    HP372684   6.753   0.917   8.890 -0.0824 -0.5404  0.2471
 2908THY    HP472685   6.902   0.880   8.975  0.1536  1.2229 -0.6462
 2908THY    CP372686   6.564   0.850   9.086  0.9009  0.0650 -0.1905
 2908THY    HP572687   6.513   0.844   9.182  0.3784 -3.0807 -0.5598
 2908THY    HP672688   6.517   0.935   9.034  0.8291  1.4297  1.9779
 2908THY    HP772689   6.553   0.755   9.033  0.3646 -0.5469  0.9920
 2908THY    CA372690   6.746   0.654   9.228 -0.5577  0.5844  0.1167
 2908THY    HA372691   6.655   0.615   9.184 -0.2980  1.2126 -1.0138
 2908THY    CA472692   6.814   0.570   9.319 -0.0186 -0.6885 -0.3127
 2908THY    HA472693   6.770   0.471   9.322 -0.3771 -0.5531 -0.8746
 2908THY    CA572694   6.914   0.624   9.401  0.2716  0.0855 -0.1433
 2908THY    CM172695   6.968   0.542   9.514 -0.9002 -0.1117 -1.1506
 2908THY    HM172696   6.927   0.441   9.511  0.1380 -0.7071  1.8090
 2908THY    HM272697   7.076   0.531   9.524 -0.9865 -0.3049 -0.4034
 2908THY    HM372698   6.939   0.586   9.611  2.8347 -0.0330  0.0751
 2908THY    CA672699   6.948   0.758   9.390  0.4624 -1.6878  0.2830
 2908THY    HA672700   7.013   0.803   9.465 -1.0230 -0.4125  0.8710
 2909THY      O72701   0.264   8.293   8.476 -0.2395  0.6562  0.0484
 2909THY     HO72702   0.208   8.372   8.486 -0.3521  1.0937 -2.9231
 2909THY    CA172703   0.237   8.197   8.558  0.1724  0.8583 -0.4526
 2909THY    CA272704   0.320   8.086   8.573  0.1700  0.1224 -0.1062
 2909THY    CP172705   0.448   8.068   8.493  0.1098  0.2760 -0.9985
 2909THY    HP172706   0.446   8.142   8.412  1.4487  0.2135 -1.1002
 2909THY    CP272707   0.570   8.097   8.582 -0.1448 -0.0106  0.5485
 2909THY    HP272708   0.569   8.204   8.608 -0.8765  0.7087 -2.0944
 2909THY    HP372709   0.583   8.033   8.669  1.0201  0.1919  0.5438
 2909THY    HP472710   0.654   8.098   8.511 -1.7628  3.7321 -1.6538
 2909THY    CP372711   0.460   7.933   8.423 -0.3033 -0.1950  1.1041
 2909THY    HP572712   0.518   7.858   8.478  1.6446  0.8517  0.5764
 2909THY    HP672713   0.364   7.886   8.399  0.6579 -1.5577 -0.2738
 2909THY    HP772714   0.513   7.955   8.330 -0.4288 -1.5367  0.6949
 2909THY    CA372715   0.291   7.983   8.666  0.3178  0.0132 -0.1577
 2909THY    HA372716   0.350   7.892   8.673 -0.7555 -0.5805  2.4030
 2909THY    CA472717   0.177   7.994   8.744  0.0161  0.4947  0.0491
 2909THY    HA472718   0.164   7.916   8.819 -0.7899 -1.2484 -1.8339
 2909THY    CA572719   0.096   8.106   8.733  0.0501  0.1947 -0.7915
 2909THY    CM172720  -0.028   8.109   8.817  0.7695 -0.0653 -1.1879
 2909THY    HM172721  -0.049   8.008   8.853  0.2869  1.0026  1.8450
 2909THY    HM272722  -0.015   8.181   8.899  2.8149 -1.1533 -0.4812
 2909THY    HM372723  -0.115   8.138   8.757  1.0731 -0.4975 -1.8449
 2909THY    CA672724   0.126   8.209   8.641  0.4682  0.1636  0.0109
 2909THY    HA672725   0.055   8.289   8.626 -0.9869 -0.8821  1.0506
 2910THY      O72726   4.398   0.091   7.432  0.0818 -0.1851  0.4697
 2910THY     HO72727   4.429   0.124   7.518 -1.8457  0.2527  1.0371
 2910THY    CA172728   4.496   0.080   7.344 -0.3793  0.1454 -0.3309
 2910THY    CA272729   4.481  -0.011   7.236 -0.2200  0.1809  0.6098
 2910THY    CP172730   4.358  -0.096   7.223  0.0131  0.1493 -0.4150
 2910THY    HP172731   4.297  -0.107   7.313 -0.7416 -0.4087 -0.9802
 2910THY    CP272732   4.264  -0.011   7.139  0.1075  0.4638 -0.2672
 2910THY    HP272733   4.169  -0.065   7.131 -0.6118  1.6549  0.0515
 2910THY    HP372734   4.245   0.089   7.178 -0.2076  0.3614 -0.1525
 2910THY    HP472735   4.313   0.003   7.042  0.9386  0.0367  0.0789
 2910THY    CP372736   4.391  -0.227   7.146  0.5400  0.2409 -0.3084
 2910THY    HP572737   4.379  -0.213   7.038 -1.4312 -0.0298 -0.1546
 2910THY    HP672738   4.492  -0.266   7.161 -0.3023 -2.2128 -0.6658
 2910THY    HP772739   4.321  -0.306   7.174 -0.1616  1.2906  1.0356
 2910THY    CA372740   4.593  -0.020   7.152  1.0881 -0.3894  0.2237
 2910THY    HA372741   4.597  -0.086   7.065  0.0630 -0.6778  0.3745
 2910THY    CA472742   4.705   0.063   7.170  0.1530 -0.2971 -0.7433
 2910THY    HA472743   4.790   0.054   7.103  2.9235 -1.3191  2.6350
 2910THY    CA572744   4.717   0.162   7.273  0.1183 -0.4835 -0.0957
 2910THY    CM172745   4.838   0.251   7.280  0.2912 -0.3564 -0.5638
 2910THY    HM172746   4.895   0.227   7.370 -0.4653 -1.2642 -0.3101
 2910THY    HM272747   4.916   0.240   7.203  1.4828  0.2943  0.5160
 2910THY    HM372748   4.816   0.359   7.277 -0.7626 -0.5524 -0.2369
 2910THY    CA672749   4.608   0.162   7.361  0.2774  0.1719 -0.6967
 2910THY    HA672750   4.619   0.236   7.440  1.3161 -0.7213  0.0255
 2911THY      O72751   3.426   5.547   4.771  0.1304  0.0654  0.4302
 2911THY     HO72752   3.376   5.475   4.813 -0.0567 -1.4321 -2.1375
 2911THY    CA172753   3.555   5.526   4.772  0.7301 -0.1840  0.6582
 2911THY    CA272754   3.652   5.613   4.710 -0.5876  0.0217 -0.3338
 2911THY    CP172755   3.613   5.744   4.639 -0.2044  0.0576 -0.6158
 2911THY    HP172756   3.514   5.779   4.671  0.2055  0.8428 -0.1876
 2911THY    CP272757   3.723   5.852   4.672  0.1346  0.1060 -0.3487
 2911THY    HP272758   3.736   5.852   4.781 -1.1583  0.9292 -0.1685
 2911THY    HP372759   3.824   5.832   4.635  0.6612  0.9945  0.5568
 2911THY    HP472760   3.702   5.949   4.625  0.9601  0.4328 -0.0682
 2911THY    CP372761   3.603   5.732   4.489  0.6600 -0.4165  0.2804
 2911THY    HP572762   3.578   5.829   4.444 -3.0294 -0.7042  1.3693
 2911THY    HP672763   3.693   5.682   4.450 -0.2758 -5.0300  3.3335
 2911THY    HP772764   3.526   5.659   4.461 -1.2159  1.4803  0.2319
 2911THY    CA372765   3.787   5.572   4.712 -0.4699 -0.2999 -0.2861
 2911THY    HA372766   3.869   5.627   4.667 -1.2420 -0.5483 -2.1139
 2911THY    CA472767   3.815   5.450   4.778 -0.7094 -0.1070 -0.6282
 2911THY    HA472768   3.915   5.418   4.802 -0.8759 -1.0421 -1.1580
 2911THY    CA572769   3.723   5.383   4.846  0.4736  0.3403 -0.2775
 2911THY    CM172770   3.769   5.259   4.915  0.0675  0.0336  0.3571
 2911THY    HM172771   3.709   5.225   5.000  2.5236 -1.8479  1.4874
 2911THY    HM272772   3.776   5.172   4.849  0.7674  1.1415 -1.0941
 2911THY    HM372773   3.870   5.272   4.954  0.0716 -1.7170  1.0217
 2911THY    CA672774   3.590   5.413   4.840  0.0398  0.5416  0.1256
 2911THY    HA672775   3.516   5.349   4.887 -0.5617  0.5451 -0.8063
 2912THY      O72776   4.945   2.994   3.425 -0.5411  0.2398  0.3857
 2912THY     HO72777   4.973   3.086   3.439 -0.8310  0.7853 -2.0751
 2912THY    CA172778   5.032   2.914   3.485  0.3977  0.1618 -0.5115
 2912THY    CA272779   5.022   2.774   3.483 -0.4391  0.1569  0.3932
 2912THY    CP172780   4.934   2.693   3.391 -0.4499 -0.1376 -0.3735
 2912THY    HP172781   4.859   2.757   3.344 -1.3442 -0.8780  0.0292
 2912THY    CP272782   5.015   2.623   3.279 -0.0528 -0.1280 -0.4209
 2912THY    HP272783   5.097   2.569   3.327  0.3954 -0.4662 -1.5355
 2912THY    HP372784   4.948   2.553   3.229  0.2506 -1.5032  1.0324
 2912THY    HP472785   5.053   2.704   3.216  1.3492 -0.1980  0.2929
 2912THY    CP372786   4.839   2.600   3.458 -1.2051  0.5872 -0.2020
 2912THY    HP572787   4.802   2.648   3.550  1.4272 -1.6391  2.2502
 2912THY    HP672788   4.765   2.564   3.386  1.6115 -1.0518 -2.5145
 2912THY    HP772789   4.904   2.517   3.489  0.2183  1.9031  0.4570
 2912THY    CA372790   5.106   2.699   3.569 -0.2735  0.1879 -0.0770
 2912THY    HA372791   5.098   2.591   3.570 -2.7610  0.3087 -0.5962
 2912THY    CA472792   5.200   2.764   3.648  0.3680 -0.3040  0.4048
 2912THY    HA472793   5.269   2.703   3.705 -0.0308 -0.5105  0.6650
 2912THY    CA572794   5.212   2.898   3.645 -0.0083  0.1576  0.5542
 2912THY    CM172795   5.316   2.967   3.727  0.2751 -0.4795 -0.5905
 2912THY    HM172796   5.271   3.040   3.795  1.6827  1.3903 -1.5386
 2912THY    HM272797   5.365   2.907   3.804  2.2132  0.6920 -0.8476
 2912THY    HM372798   5.402   3.007   3.671  1.9194  0.9643  2.6609
 2912THY    CA672799   5.132   2.976   3.565  0.3063  0.7826  0.3718
 2912THY    HA672800   5.139   3.085   3.568 -2.3186  0.9926  2.2374
 2913THY      O72801   9.044   4.134   9.675  0.0962 -0.3078  0.2516
 2913THY     HO72802   9.074   4.041   9.670  0.3170 -0.1951 -0.4703
 2913THY    CA172803   8.940   4.157   9.600 -0.3008 -0.4062 -0.0470
 2913THY    CA272804   8.868   4.278   9.601 -0.1003  0.2081 -0.6517
 2913THY    CP172805   8.923   4.407   9.672 -1.0509 -0.3219 -0.8160
 2913THY    HP172806   8.994   4.380   9.751 -3.6701 -0.1311  1.7929
 2913THY    CP272807   8.972   4.519   9.579 -0.3843  0.0220 -0.6609
 2913THY    HP272808   8.992   4.604   9.645 -0.3334 -1.1123  0.8254
 2913THY    HP372809   9.065   4.485   9.531  0.5863  0.5414  0.7807
 2913THY    HP472810   8.898   4.554   9.506 -1.3087 -0.2055  0.1524
 2913THY    CP372811   8.811   4.463   9.766  0.3033  0.3526  0.0801
 2913THY    HP572812   8.761   4.385   9.826  0.5874  0.1886  0.1052
 2913THY    HP672813   8.859   4.529   9.839  0.9826  1.0592 -0.9799
 2913THY    HP772814   8.740   4.519   9.704 -1.5085  1.5200  2.9834
 2913THY    CA372815   8.765   4.293   9.516 -0.1033  0.5624 -0.4451
 2913THY    HA372816   8.711   4.387   9.517  1.1047  1.2844  0.4801
 2913THY    CA472817   8.725   4.192   9.427  0.6312  0.0181 -0.0223
 2913THY    HA472818   8.630   4.196   9.374  0.5197  2.6058  0.2596
 2913THY    CA572819   8.790   4.070   9.431  0.4912 -0.6130 -0.7615
 2913THY    CM172820   8.738   3.954   9.355 -0.4601 -0.7465 -0.2734
 2913THY    HM172821   8.644   3.932   9.408 -0.8427 -0.5225 -0.8473
 2913THY    HM272822   8.722   3.977   9.249  0.1134  0.4679 -0.1095
 2913THY    HM372823   8.803   3.866   9.361  2.7564  1.2236 -2.7500
 2913THY    CA672824   8.901   4.058   9.515 -0.2887  0.0275  0.1535
 2913THY    HA672825   8.951   3.961   9.519 -1.4110 -0.8321 -3.3803
 2914THY      O72826   4.862   5.877   6.660  0.1236  0.0444 -0.0214
 2914THY     HO72827   4.941   5.898   6.713  1.9652  0.8131 -2.8542
 2914THY    CA172828   4.812   5.769   6.728 -0.2489  0.2078  0.0074
 2914THY    CA272829   4.704   5.696   6.684  0.3130  0.1931  0.5528
 2914THY    CP172830   4.632   5.741   6.559  0.5210  0.4225  0.1532
 2914THY    HP172831   4.663   5.846   6.545  2.7309  0.0844  1.8573
 2914THY    CP272832   4.671   5.647   6.443  0.2635  0.6774  0.2068
 2914THY    HP272833   4.633   5.678   6.345  0.0157 -1.6718 -0.5076
 2914THY    HP372834   4.781   5.638   6.443  0.2806  0.7869 -1.0299
 2914THY    HP472835   4.634   5.546   6.462  1.0433  0.7318  2.2804
 2914THY    CP372836   4.475   5.739   6.574  0.3515  0.0101 -0.5701
 2914THY    HP572837   4.426   5.756   6.478 -0.8903  0.1268  0.0688
 2914THY    HP672838   4.443   5.637   6.601  4.1069 -1.1226  0.2306
 2914THY    HP772839   4.429   5.806   6.648 -0.5047 -0.1857 -0.9078
 2914THY    CA372840   4.664   5.579   6.752 -0.5817 -0.7353  0.1679
 2914THY    HA372841   4.584   5.516   6.715 -1.2222  0.1621 -0.0091
 2914THY    CA472842   4.723   5.545   6.867 -0.6744 -0.4194 -0.5442
 2914THY    HA472843   4.689   5.458   6.921  3.0943 -0.4630  2.1509
 2914THY    CA572844   4.819   5.630   6.925 -0.0514 -1.1274 -0.2180
 2914THY    CM172845   4.884   5.600   7.053 -0.0267  0.3020  0.5883
 2914THY    HM172846   4.976   5.545   7.032 -1.7028 -2.0026 -1.2853
 2914THY    HM272847   4.895   5.683   7.124  1.0534  0.5629  0.1417
 2914THY    HM372848   4.825   5.522   7.103 -1.9270  1.1462 -0.2144
 2914THY    CA672849   4.871   5.734   6.854  0.2976 -0.0956 -0.0500
 2914THY    HA672850   4.952   5.793   6.894  0.8355 -0.4316 -0.6253
 2915THY      O72851   7.613   6.236   2.671  0.4762 -0.1540 -0.3753
 2915THY     HO72852   7.683   6.262   2.609 -0.6674  2.0421 -0.8631
 2915THY    CA172853   7.543   6.349   2.689 -0.4767 -0.3961 -0.4813
 2915THY    CA272854   7.417   6.353   2.746 -0.2056  0.9589  0.0470
 2915THY    CP172855   7.353   6.228   2.803 -0.2034 -0.4633 -0.1142
 2915THY    HP172856   7.406   6.148   2.748 -1.5407 -0.8003 -0.9446
 2915THY    CP272857   7.381   6.207   2.947 -0.5508 -0.0613 -0.9994
 2915THY    HP272858   7.488   6.195   2.971 -1.2431 -3.1184  1.0487
 2915THY    HP372859   7.338   6.284   3.012  0.3845  0.8827 -1.4574
 2915THY    HP472860   7.329   6.113   2.967  1.8840 -1.7704 -2.1147
 2915THY    CP372861   7.197   6.226   2.767 -0.4018  0.0910 -0.5936
 2915THY    HP572862   7.172   6.260   2.666  0.5361 -0.7628 -1.1254
 2915THY    HP672863   7.175   6.118   2.767  2.0620 -0.4877 -2.3676
 2915THY    HP772864   7.140   6.275   2.847  0.6775  1.7888 -0.8195
 2915THY    CA372865   7.349   6.476   2.755  0.1174  0.1286  0.3705
 2915THY    HA372866   7.248   6.485   2.794  0.8042 -1.4814  2.7850
 2915THY    CA472867   7.418   6.596   2.713 -0.2091 -0.0107  0.2937
 2915THY    HA472868   7.367   6.692   2.712 -1.1431 -0.3374  3.5732
 2915THY    CA572869   7.551   6.589   2.666  0.3885  0.2822 -0.2628
 2915THY    CM172870   7.621   6.712   2.610  0.2944  0.4325  1.2596
 2915THY    HM172871   7.585   6.798   2.668 -0.5023  1.9686 -1.3716
 2915THY    HM272872   7.730   6.704   2.612  0.4172  1.4427 -0.3713
 2915THY    HM372873   7.588   6.728   2.507  2.5199 -4.0134 -0.4224
 2915THY    CA672874   7.611   6.465   2.654  1.2981 -0.4874 -0.3967
 2915THY    HA672875   7.710   6.468   2.609  1.0817  1.8748 -0.8541
 2916THY      O72876   4.991   3.255   7.386  0.5547 -0.1497 -0.0769
 2916THY     HO72877   4.960   3.323   7.324  0.5352 -0.7808 -0.7638
 2916THY    CA172878   4.945   3.135   7.337 -0.1403  0.3228  0.3685
 2916THY    CA272879   5.005   3.013   7.372  1.2713  0.4445  0.1337
 2916THY    CP172880   5.106   2.997   7.485 -0.4761 -0.1147  0.5122
 2916THY    HP172881   5.092   3.082   7.552  1.7507  1.1181 -0.5094
 2916THY    CP272882   5.067   2.882   7.570  0.2018  0.7240 -0.1790
 2916THY    HP272883   5.066   2.782   7.526  0.5479 -0.6335  2.6857
 2916THY    HP372884   5.137   2.872   7.654  0.9146  0.9123 -0.7408
 2916THY    HP472885   4.966   2.902   7.607  0.0476  1.7785 -1.1150
 2916THY    CP372886   5.253   2.980   7.431  0.5496  0.7104 -0.0783
 2916THY    HP572887   5.316   2.997   7.519 -0.0589 -0.0797  0.5321
 2916THY    HP672888   5.273   2.881   7.388  0.0176 -1.1067  3.5008
 2916THY    HP772889   5.268   3.054   7.351 -0.9014  0.2499 -0.8183
 2916THY    CA372890   4.964   2.895   7.303 -0.3245 -0.7234 -0.4139
 2916THY    HA372891   5.003   2.796   7.328 -0.7523 -0.8879 -0.3971
 2916THY    CA472892   4.855   2.907   7.215 -0.2989 -0.4347  1.1659
 2916THY    HA472893   4.824   2.815   7.167 -1.5806  0.1801  0.7855
 2916THY    CA572894   4.797   3.027   7.177  0.4372  1.1301 -0.1375
 2916THY    CM172895   4.672   3.029   7.091 -0.0063 -0.1578 -0.3505
 2916THY    HM172896   4.592   3.088   7.135 -2.6438 -2.0118 -2.3470
 2916THY    HM272897   4.693   3.070   6.991  1.7810  0.5782  0.2865
 2916THY    HM372898   4.633   2.926   7.092  0.0750 -0.2278 -1.9229
 2916THY    CA672899   4.836   3.142   7.250 -0.1567  0.0372  0.0165
 2916THY    HA672900   4.791   3.239   7.232  0.6772  0.1476 -1.6509
 2917THY      O72901   7.778   9.951   1.325  0.2559 -0.4100  0.7341
 2917THY     HO72902   7.814  10.002   1.251  0.8182  0.8141  1.8117
 2917THY    CA172903   7.656  10.008   1.333 -0.5646 -0.0117 -0.0594
 2917THY    CA272904   7.544   9.947   1.382  0.1653  0.4200  0.0532
 2917THY    CP172905   7.556   9.801   1.424  0.3508  0.0415  0.5704
 2917THY    HP172906   7.662   9.779   1.442  0.6871  0.3851 -0.8973
 2917THY    CP272907   7.474   9.775   1.557  0.2866  0.5846  0.4552
 2917THY    HP272908   7.507   9.683   1.607 -0.7605  0.1484  0.3788
 2917THY    HP372909   7.474   9.865   1.619 -0.5111  1.6745 -1.0622
 2917THY    HP472910   7.371   9.750   1.527  0.2538  1.5267 -0.2679
 2917THY    CP372911   7.509   9.706   1.311  0.0799 -0.8198  0.0498
 2917THY    HP572912   7.544   9.604   1.325  0.3699 -0.9240 -1.3371
 2917THY    HP672913   7.400   9.712   1.301  0.2841 -0.1581 -2.1489
 2917THY    HP772914   7.539   9.737   1.211 -0.8015  1.2153  0.3527
 2917THY    CA372915   7.424  10.021   1.404 -0.5438 -0.1309 -0.3760
 2917THY    HA372916   7.335   9.975   1.446 -0.2399  0.7061  1.2358
 2917THY    CA472917   7.419  10.158   1.367  0.3714 -0.7043  0.6244
 2917THY    HA472918   7.328  10.213   1.393 -0.7760 -2.5622  0.7512
 2917THY    CA572919   7.532  10.217   1.304 -0.3891 -0.1288 -0.9269
 2917THY    CM172920   7.537  10.363   1.252 -0.0470 -0.0452 -0.5618
 2917THY    HM172921   7.452  10.377   1.184 -2.6689 -2.3570  1.9782
 2917THY    HM272922   7.547  10.432   1.336 -0.6345  1.3540 -1.5905
 2917THY    HM372923   7.622  10.373   1.184 -0.1597 -2.1698 -1.1094
 2917THY    CA672924   7.646  10.143   1.298  0.3082 -0.3890  0.4004
 2917THY    HA672925   7.741  10.183   1.263  0.2012 -1.8778 -1.8020
 2918THY      O72926   6.048   5.295   8.846 -0.0432  0.0185 -0.7475
 2918THY     HO72927   5.957   5.277   8.875 -0.0789 -0.2750 -1.0305
 2918THY    CA172928   6.026   5.371   8.736 -0.6263  0.5130 -0.2747
 2918THY    CA272929   6.133   5.440   8.678  0.8206  0.2386  0.3552
 2918THY    CP172930   6.276   5.418   8.734  0.6171 -0.9100  0.3809
 2918THY    HP172931   6.275   5.391   8.840 -0.7608  2.1976  1.2632
 2918THY    CP272932   6.367   5.326   8.641  0.0490 -1.4412 -0.4313
 2918THY    HP272933   6.315   5.231   8.628 -0.5577 -1.0114 -1.2878
 2918THY    HP372934   6.367   5.365   8.538  2.9045 -2.8856 -1.0835
 2918THY    HP472935   6.465   5.300   8.683 -0.3970 -2.5351 -0.0304
 2918THY    CP372936   6.328   5.562   8.757  0.2628  0.3891 -0.8874
 2918THY    HP572937   6.268   5.607   8.836 -1.0373  0.7100 -2.0241
 2918THY    HP672938   6.428   5.560   8.803  0.1694 -0.7911 -0.7051
 2918THY    HP772939   6.322   5.633   8.673 -0.1505  0.0069 -1.1844
 2918THY    CA372940   6.101   5.526   8.571  0.3456  0.6167 -0.1281
 2918THY    HA372941   6.176   5.579   8.513  1.1091  0.3398  0.5964
 2918THY    CA472942   5.966   5.529   8.526 -0.5189  0.1356  0.3434
 2918THY    HA472943   5.944   5.592   8.440 -0.9563  0.3174  0.5851
 2918THY    CA572944   5.867   5.448   8.582  0.3281  0.5847 -0.1140
 2918THY    CM172945   5.730   5.429   8.523 -0.2248  0.3312  0.5687
 2918THY    HM172946   5.740   5.395   8.419 -0.0826 -0.0340  0.7026
 2918THY    HM272947   5.668   5.356   8.576  1.4674  1.1032  3.8534
 2918THY    HM372948   5.655   5.508   8.533 -2.4141 -1.6252  0.2922
 2918THY    CA672949   5.896   5.374   8.695 -0.0976 -0.1739 -0.6008
 2918THY    HA672950   5.818   5.314   8.742 -2.6094  3.7833  0.8100
 2919THY      O72951   9.328   4.760   4.025  0.1843 -0.1172 -0.2116
 2919THY     HO72952   9.338   4.685   3.964  3.7327  0.4287 -0.5680
 2919THY    CA172953   9.197   4.786   4.037 -0.7218  0.0058 -0.1623
 2919THY    CA272954   9.147   4.908   4.090 -0.3798  0.2653 -0.6357
 2919THY    CP172955   9.243   5.014   4.139  0.3566 -0.1645 -0.0748
 2919THY    HP172956   9.348   4.985   4.148  0.3846  0.5011  2.7047
 2919THY    CP272957   9.242   5.126   4.031 -0.5619  0.3058 -0.3320
 2919THY    HP272958   9.323   5.195   4.058 -0.1009 -0.5919  0.6421
 2919THY    HP372959   9.256   5.079   3.933 -1.3377 -1.2471  0.2729
 2919THY    HP472960   9.157   5.195   4.016  1.9271  3.9753  0.9717
 2919THY    CP372961   9.210   5.086   4.271  0.0650  0.7592 -0.0182
 2919THY    HP572962   9.286   5.162   4.291  0.1058 -0.0494  3.6523
 2919THY    HP672963   9.112   5.134   4.280  0.5207  1.4980  1.3123
 2919THY    HP772964   9.209   5.019   4.357  0.0977  1.6536  0.6872
 2919THY    CA372965   9.012   4.921   4.095 -0.5675  0.2065 -0.3636
 2919THY    HA372966   8.976   5.019   4.127  1.9358  1.0552  0.0403
 2919THY    CA472967   8.924   4.815   4.076  0.0675 -0.3894 -0.2309
 2919THY    HA472968   8.820   4.831   4.103 -0.0814 -0.6195 -0.6528
 2919THY    CA572969   8.975   4.697   4.025  0.4900 -0.0561  0.5790
 2919THY    CM172970   8.885   4.578   4.006 -0.3628  0.0622 -0.1814
 2919THY    HM172971   8.782   4.610   3.993 -0.5997  0.5706  2.4341
 2919THY    HM272972   8.925   4.498   3.942 -2.3244 -0.6251 -0.5961
 2919THY    HM372973   8.885   4.524   4.101  0.0719 -0.0348 -0.2320
 2919THY    CA672974   9.111   4.688   3.998 -0.3469  0.3268 -0.1705
 2919THY    HA672975   9.157   4.594   3.968  0.5196  1.2492 -1.8861
 2920THY      O72976   7.331   4.368   1.514  0.3850  0.5580  0.0083
 2920THY     HO72977   7.235   4.363   1.531  0.7067 -2.1152  1.6749
 2920THY    CA172978   7.388   4.388   1.640  0.3137  0.3565 -0.7917
 2920THY    CA272979   7.528   4.407   1.657 -0.4457  0.0912 -0.4969
 2920THY    CP172980   7.625   4.420   1.534 -0.3004 -0.0007  0.0925
 2920THY    HP172981   7.581   4.352   1.461 -2.7358  1.2971  0.2270
 2920THY    CP272982   7.610   4.563   1.472  0.1528 -0.1911 -0.3574
 2920THY    HP272983   7.669   4.581   1.381  0.1631  1.7278 -0.0207
 2920THY    HP372984   7.507   4.592   1.448  0.5155  0.4856 -1.1453
 2920THY    HP472985   7.645   4.628   1.553 -0.0651 -1.5686  0.8782
 2920THY    CP372986   7.773   4.389   1.560 -0.8116 -0.2887 -0.2132
 2920THY    HP572987   7.833   4.461   1.618  0.7408 -0.9371 -0.9777
 2920THY    HP672988   7.771   4.292   1.611  0.1089  1.7867  4.2853
 2920THY    HP772989   7.823   4.377   1.464  1.2624  2.9264  0.3186
 2920THY    CA372990   7.578   4.416   1.795 -0.0912 -0.6542 -0.1666
 2920THY    HA372991   7.683   4.417   1.821 -0.0587  1.1054 -0.2305
 2920THY    CA472992   7.486   4.422   1.899 -0.8239  0.6768 -0.7443
 2920THY    HA472993   7.512   4.429   2.004  0.8008 -0.6667 -1.0123
 2920THY    CA572994   7.348   4.404   1.874 -0.0500  0.4586 -0.2853
 2920THY    CM172995   7.246   4.425   1.978  0.5292 -0.4807  0.5896
 2920THY    HM172996   7.159   4.474   1.933  0.6438 -3.2176 -3.1644
 2920THY    HM272997   7.230   4.332   2.034  1.8062 -1.1360 -0.0869
 2920THY    HM372998   7.299   4.480   2.057  1.8308  1.2185 -1.3435
 2920THY    CA672999   7.303   4.387   1.747  0.3479  0.7508 -0.5239
 2920THY    HA673000   7.201   4.364   1.720  0.4682  1.0953 -1.2964
 2921THY      O73001   9.805   2.567   5.702  0.2903 -0.2140  0.3530
 2921THY     HO73002   9.810   2.599   5.794 -0.9173  0.4403  0.2119
 2921THY    CA173003   9.844   2.669   5.622  0.1318 -0.0194 -0.3078
 2921THY    CA273004   9.856   2.656   5.485  0.0326  0.6078 -0.6801
 2921THY    CP173005   9.826   2.525   5.416  0.8063  0.8104  1.0043
 2921THY    HP173006   9.751   2.477   5.480 -0.7594  2.4692  0.4897
 2921THY    CP273007   9.760   2.545   5.272 -0.2461  0.7526 -0.3076
 2921THY    HP273008   9.828   2.598   5.204  0.4724 -0.6891 -0.7481
 2921THY    HP373009   9.741   2.449   5.222  1.9535 -0.4057  0.9482
 2921THY    HP473010   9.665   2.598   5.286  0.2592  1.7712 -0.6052
 2921THY    CP373011   9.948   2.436   5.413  0.0267 -0.4952 -0.1682
 2921THY    HP573012  10.003   2.453   5.506 -0.4100  0.1271 -0.0244
 2921THY    HP673013   9.913   2.332   5.411  0.5684 -0.6995  0.4246
 2921THY    HP773014  10.005   2.463   5.324  1.0874  1.0797  0.9494
 2921THY    CA373015   9.871   2.782   5.415 -0.0382  0.1467 -0.3741
 2921THY    HA373016   9.869   2.781   5.306 -0.0825 -0.4457 -0.3686
 2921THY    CA473017   9.891   2.907   5.481 -0.0037 -1.1121  0.3579
 2921THY    HA473018   9.891   2.995   5.418 -0.0658 -1.6528 -0.4178
 2921THY    CA573019   9.875   2.907   5.618  0.1376 -1.5921  0.2208
 2921THY    CM173020   9.887   3.035   5.694  0.2318 -0.6910  0.6647
 2921THY    HM173021   9.940   3.011   5.787  0.4525 -1.1276  0.4318
 2921THY    HM273022   9.955   3.106   5.645  1.3815 -0.2273  2.7847
 2921THY    HM373023   9.789   3.081   5.711  0.0448 -0.2827 -1.2734
 2921THY    CA673024   9.838   2.794   5.686 -0.3945  0.4471 -0.6389
 2921THY    HA673025   9.828   2.800   5.794  1.9931  1.1324 -0.4024
 2922THY      O73026   6.088   0.127   9.099  0.5211 -0.6594  0.0901
 2922THY     HO73027   6.050   0.136   9.188 -0.5103 -0.3466 -0.3735
 2922THY    CA173028   6.144   0.237   9.063  0.3202 -0.2568 -0.2276
 2922THY    CA273029   6.164   0.273   8.926  0.2879  1.1219 -0.0223
 2922THY    CP173030   6.130   0.177   8.808  0.4817 -0.4755  0.0622
 2922THY    HP173031   6.082   0.090   8.854  0.6444  0.3309  1.8656
 2922THY    CP273032   6.031   0.249   8.717  0.3884 -0.0573  0.4289
 2922THY    HP273033   6.005   0.172   8.643  2.9332 -0.6241  0.0615
 2922THY    HP373034   5.946   0.280   8.779 -1.6832 -0.7404 -1.8810
 2922THY    HP473035   6.078   0.334   8.667  1.5128 -0.0949  1.3891
 2922THY    CP373036   6.244   0.124   8.727 -0.2363  0.0167 -0.3201
 2922THY    HP573037   6.313   0.079   8.800  0.2003  2.0661  0.5993
 2922THY    HP673038   6.205   0.051   8.655 -1.1358 -0.6226  0.7847
 2922THY    HP773039   6.300   0.200   8.671 -1.0495  0.2313 -0.8491
 2922THY    CA373040   6.231   0.396   8.901  0.2600 -0.5338 -0.3529
 2922THY    HA373041   6.241   0.420   8.796 -2.3289  0.0762 -0.5227
 2922THY    CA473042   6.279   0.479   9.006 -0.6837 -0.1675  0.2919
 2922THY    HA473043   6.326   0.573   8.982  1.1326 -0.6841  1.6233
 2922THY    CA573044   6.255   0.442   9.134 -0.4518  0.7419 -0.1514
 2922THY    CM173045   6.301   0.547   9.229 -0.8849  0.4968 -0.4276
 2922THY    HM173046   6.221   0.619   9.250 -1.4447 -0.0838 -0.5047
 2922THY    HM273047   6.323   0.488   9.319  1.4896  1.2830 -0.4317
 2922THY    HM373048   6.395   0.594   9.198  0.2833 -1.3369  0.1839
 2922THY    CA673049   6.172   0.329   9.163 -0.3780 -0.5177 -0.3450
 2922THY    HA673050   6.139   0.316   9.265  0.4747  0.1662  0.0356
 2923THY      O73051   5.726   8.465   6.738 -0.1911 -0.3718 -0.1556
 2923THY     HO73052   5.703   8.548   6.785 -0.7075 -0.8055  0.3689
 2923THY    CA173053   5.689   8.360   6.816  0.2614  0.5900  0.5967
 2923THY    CA273054   5.690   8.224   6.780  0.2298  0.0184  0.5760
 2923THY    CP173055   5.716   8.178   6.638  0.3863  0.7449  0.3354
 2923THY    HP173056   5.797   8.241   6.599  1.0924  0.0841  0.7141
 2923THY    CP273057   5.767   8.038   6.621  0.7968  0.1929  0.6506
 2923THY    HP273058   5.681   7.972   6.638 -0.0710  0.9011 -0.8646
 2923THY    HP373059   5.791   8.020   6.516 -0.7013 -0.1573  0.3450
 2923THY    HP473060   5.853   8.034   6.690 -0.5104  3.4572  2.6754
 2923THY    CP373061   5.587   8.199   6.557 -0.1846  0.0597 -0.6279
 2923THY    HP573062   5.599   8.149   6.460 -0.4459  0.9179 -1.1168
 2923THY    HP673063   5.504   8.157   6.614  0.3003 -1.1281 -0.7704
 2923THY    HP773064   5.562   8.302   6.530 -2.8708 -0.7757 -1.6083
 2923THY    CA373065   5.658   8.135   6.883  0.0315 -0.2548  0.2631
 2923THY    HA373066   5.650   8.028   6.863  1.3814 -0.3523  0.1192
 2923THY    CA473067   5.621   8.180   7.018  0.1361  0.0776  0.3940
 2923THY    HA473068   5.604   8.109   7.098  0.2267  1.3967  1.6151
 2923THY    CA573069   5.603   8.312   7.041 -0.7595 -0.1345  0.0214
 2923THY    CM173070   5.560   8.353   7.178 -0.7331 -0.2366 -0.8232
 2923THY    HM173071   5.607   8.448   7.205 -1.8977 -0.1892  1.2475
 2923THY    HM273072   5.451   8.351   7.188 -0.8891 -1.6425 -2.3030
 2923THY    HM373073   5.592   8.274   7.248 -1.4929 -0.9517 -1.2653
 2923THY    CA673074   5.647   8.398   6.942 -0.6670 -0.1032 -0.9844
 2923THY    HA673075   5.645   8.503   6.970  0.7938  0.1812 -1.8397
 2924THY      O73076   7.086   0.673   2.588 -0.5940 -0.5016 -0.2712
 2924THY     HO73077   7.115   0.606   2.652  0.6401  0.5583  0.3259
 2924THY    CA173078   6.990   0.743   2.650  0.8875 -0.1127  0.2772
 2924THY    CA273079   6.926   0.857   2.593  0.6427  0.5941  0.3488
 2924THY    CP173080   6.949   0.893   2.444  0.2757  0.3522 -0.4083
 2924THY    HP173081   7.035   0.833   2.412  0.7084 -0.2338  1.6811
 2924THY    CP273082   6.842   0.849   2.348  0.0985 -0.3239 -0.4105
 2924THY    HP273083   6.844   0.743   2.322  0.1395 -1.3418  3.1627
 2924THY    HP373084   6.745   0.870   2.395  0.5845 -0.6593  0.7734
 2924THY    HP473085   6.855   0.891   2.248  1.1558 -4.4925 -2.2250
 2924THY    CP373086   6.998   1.035   2.422  0.2602  0.2762  0.1153
 2924THY    HP573087   7.069   1.070   2.498  3.8444 -0.0321 -2.8551
 2924THY    HP673088   7.059   1.050   2.333 -0.2846  0.8980 -0.1607
 2924THY    HP773089   6.915   1.106   2.411  0.2138  0.2277  0.1442
 2924THY    CA373090   6.848   0.940   2.672 -0.1521  0.0669  0.1921
 2924THY    HA373091   6.803   1.029   2.628  1.9241  0.1616 -1.9287
 2924THY    CA473092   6.822   0.904   2.806 -0.2375  0.0928 -0.1929
 2924THY    HA473093   6.763   0.963   2.876 -0.6704 -1.7414  1.0445
 2924THY    CA573094   6.877   0.791   2.862  0.3724 -0.0489 -0.0607
 2924THY    CM173095   6.852   0.753   3.004 -0.0519  0.3984  0.6806
 2924THY    HM173096   6.758   0.698   3.018 -0.3345  0.2697 -1.4238
 2924THY    HM273097   6.932   0.683   3.030 -0.3304 -0.4638 -0.7017
 2924THY    HM373098   6.864   0.839   3.071 -0.1617 -1.0636  2.6449
 2924THY    CA673099   6.957   0.708   2.784  0.1158 -0.2692  0.2540
 2924THY    HA673100   6.986   0.613   2.829  0.1527  0.2917  1.4510
 2925THY      O73101   1.680   0.771   9.673  0.7482  0.1421 -0.2223
 2925THY     HO73102   1.583   0.776   9.686  0.5584 -2.4627 -0.0364
 2925THY    CA173103   1.706   0.871   9.586  0.2378 -0.6351 -0.2294
 2925THY    CA273104   1.810   0.860   9.494 -0.2792 -0.5926 -0.1670
 2925THY    CP173105   1.903   0.735   9.482  0.3617  0.5111  0.4807
 2925THY    HP173106   1.892   0.668   9.568  0.6599 -1.7329 -1.1030
 2925THY    CP273107   1.860   0.640   9.375 -0.7857  0.0544 -0.5611
 2925THY    HP273108   1.890   0.673   9.275  0.8565 -1.6638 -0.7089
 2925THY    HP373109   1.907   0.543   9.397  1.2316  1.2003  0.4719
 2925THY    HP473110   1.752   0.627   9.386 -0.6681 -0.7213 -0.2307
 2925THY    CP373111   2.050   0.774   9.465 -0.2664  0.9283 -0.0611
 2925THY    HP573112   2.063   0.802   9.360  0.1151 -1.9175 -0.8784
 2925THY    HP673113   2.064   0.851   9.541  1.4649  0.8056 -0.2214
 2925THY    HP773114   2.123   0.696   9.490  0.4344  2.3388  2.7665
 2925THY    CA373115   1.827   0.968   9.400  0.1596 -0.0642 -0.8349
 2925THY    HA373116   1.900   0.966   9.320 -0.8363 -0.7845 -1.7485
 2925THY    CA473117   1.734   1.072   9.402 -0.1420 -0.1956  0.3418
 2925THY    HA473118   1.742   1.159   9.338 -2.7523 -1.0530 -1.2933
 2925THY    CA573119   1.630   1.076   9.497 -0.7512  0.0011  0.2065
 2925THY    CM173120   1.535   1.197   9.505 -0.7834  0.3004 -0.1651
 2925THY    HM173121   1.446   1.188   9.442 -0.1518 -0.2530 -1.0158
 2925THY    HM273122   1.504   1.213   9.609  0.7220  0.8174  0.2402
 2925THY    HM373123   1.583   1.287   9.465 -0.0647 -0.5535 -1.3097
 2925THY    CA673124   1.616   0.979   9.594 -0.3497  0.5124  0.4137
 2925THY    HA673125   1.537   0.989   9.668 -0.7839 -0.8624  0.1618
 2926THY      O73126   7.562   8.000   7.715 -0.3765 -0.4415  0.1553
 2926THY     HO73127   7.585   7.909   7.739 -0.7378 -0.5158  0.2328
 2926THY    CA173128   7.545   7.998   7.582 -0.0898 -0.8921  0.4633
 2926THY    CA273129   7.505   8.112   7.510 -0.2250 -0.0809 -0.1594
 2926THY    CP173130   7.476   8.245   7.583 -0.4595  0.5385  0.0561
 2926THY    HP173131   7.443   8.220   7.684 -2.6519 -1.2771 -1.0102
 2926THY    CP273132   7.599   8.332   7.607  0.5509  0.3346  0.5687
 2926THY    HP273133   7.645   8.368   7.515  0.5514 -0.8470  0.1011
 2926THY    HP373134   7.560   8.420   7.661 -2.5828  0.0362 -0.9952
 2926THY    HP473135   7.666   8.279   7.675  1.2421 -0.1314 -0.4609
 2926THY    CP373136   7.364   8.324   7.514  0.0740 -0.4644  0.0878
 2926THY    HP573137   7.284   8.255   7.482  1.0119 -2.0269  1.0068
 2926THY    HP673138   7.319   8.395   7.584 -0.1044 -1.5478  1.1036
 2926THY    HP773139   7.400   8.381   7.428  2.5667  0.3489  1.5677
 2926THY    CA373140   7.478   8.096   7.370 -0.1973 -0.4660  0.3909
 2926THY    HA373141   7.453   8.186   7.315 -0.9885  0.4106  2.1250
 2926THY    CA473142   7.508   7.974   7.306  0.4168 -0.2928 -0.2004
 2926THY    HA473143   7.482   7.964   7.201 -2.0261 -0.4026  0.3735
 2926THY    CA573144   7.547   7.863   7.374  0.4985 -0.0144 -0.6248
 2926THY    CM173145   7.562   7.727   7.309  0.4487 -0.6064 -0.1599
 2926THY    HM173146   7.515   7.650   7.371  2.3644 -2.3057 -0.7421
 2926THY    HM273147   7.512   7.730   7.211  1.8874  2.2879 -0.9121
 2926THY    HM373148   7.667   7.701   7.296  1.1375  2.5612 -1.9530
 2926THY    CA673149   7.559   7.877   7.514  0.3540  0.3975  0.1647
 2926THY    HA673150   7.591   7.789   7.569 -0.8839  0.2875  0.7279
 2927THY      O73151   3.375   4.010   5.641  0.2470 -0.2098  0.3281
 2927THY     HO73152   3.332   3.923   5.640  0.2615 -0.2119 -0.3749
 2927THY    CA173153   3.507   3.992   5.650  0.5077 -0.2878 -0.4725
 2927THY    CA273154   3.596   4.099   5.651 -0.5763 -0.1957  0.5516
 2927THY    CP173155   3.551   4.250   5.656  0.1210 -0.4133 -1.1848
 2927THY    HP173156   3.444   4.258   5.634 -1.0561  0.5895  3.5546
 2927THY    CP273157   3.583   4.323   5.789  0.2292  0.1058  0.3420
 2927THY    HP273158   3.690   4.335   5.810  0.0598  1.2470  0.6229
 2927THY    HP373159   3.547   4.426   5.778  0.0681  0.0256  0.0986
 2927THY    HP473160   3.536   4.268   5.871 -0.0664 -1.7294 -0.9820
 2927THY    CP373161   3.612   4.321   5.534 -0.0648  0.0171 -0.1507
 2927THY    HP573162   3.559   4.415   5.511  0.4273 -0.2279 -2.5108
 2927THY    HP673163   3.720   4.339   5.533 -0.3151  1.7109 -1.4480
 2927THY    HP773164   3.588   4.261   5.446 -3.3758  1.4736 -0.4064
 2927THY    CA373165   3.735   4.069   5.646 -0.1287 -0.0224  0.0202
 2927THY    HA373166   3.808   4.146   5.665 -2.5311  2.2157  0.8357
 2927THY    CA473167   3.773   3.936   5.643  0.5992 -0.8024 -0.1940
 2927THY    HA473168   3.878   3.906   5.650  0.4924 -1.2666 -0.5349
 2927THY    CA573169   3.683   3.837   5.671  0.0401  0.5488  0.7514
 2927THY    CM173170   3.722   3.697   5.702  0.0683  0.1227  0.3075
 2927THY    HM173171   3.637   3.645   5.748 -0.3302  1.0025  0.6026
 2927THY    HM273172   3.742   3.644   5.609 -3.3392 -0.6797 -0.1022
 2927THY    HM373173   3.806   3.698   5.772  0.0576 -0.8580  0.3395
 2927THY    CA673174   3.551   3.864   5.665 -0.2312 -0.1620  0.7648
 2927THY    HA673175   3.483   3.780   5.677 -0.0780 -0.2744  0.8474
 2928THY      O73176   0.226   6.478   0.049  0.9386  0.8147  0.4893
 2928THY     HO73177   0.130   6.474   0.065  0.4177 -0.9733 -2.2788
 2928THY    CA173178   0.239   6.494  -0.084 -0.3721  0.5267 -0.3651
 2928THY    CA273179   0.325   6.412  -0.160  0.2559 -0.2631  0.2266
 2928THY    CP173180   0.419   6.307  -0.095  0.1688  0.4737 -0.1245
 2928THY    HP173181   0.376   6.272   0.000  0.4322  0.4111 -0.0300
 2928THY    CP273182   0.423   6.174  -0.167  0.0474 -0.5216  0.3161
 2928THY    HP273183   0.476   6.172  -0.263  1.2327  0.4279  0.9351
 2928THY    HP373184   0.483   6.104  -0.108  0.4689 -0.2610  0.2047
 2928THY    HP473185   0.326   6.125  -0.184 -0.5630  1.1384 -1.3507
 2928THY    CP373186   0.564   6.346  -0.061 -0.1997 -0.3621 -0.4285
 2928THY    HP573187   0.617   6.368  -0.154  1.2811  2.3063  0.9050
 2928THY    HP673188   0.563   6.442  -0.007 -0.6303 -0.9966  0.7341
 2928THY    HP773189   0.626   6.287   0.008  0.2508  1.1344  0.5065
 2928THY    CA373190   0.322   6.416  -0.301  0.0243 -0.2156  0.1480
 2928THY    HA373191   0.386   6.347  -0.355 -0.2108 -1.6717  1.6352
 2928THY    CA473192   0.256   6.524  -0.358  0.5055 -0.5036  0.3791
 2928THY    HA473193   0.252   6.535  -0.466  0.0767 -0.0656  0.4372
 2928THY    CA573194   0.182   6.614  -0.283  0.3497  0.0944 -0.2586
 2928THY    CM173195   0.101   6.725  -0.350  0.2332  0.5386  0.4932
 2928THY    HM173196   0.165   6.814  -0.363  0.3357  0.8327  2.5683
 2928THY    HM273197   0.074   6.682  -0.447  2.8078 -2.1936  0.8432
 2928THY    HM373198   0.014   6.751  -0.289 -1.2584 -3.9017  0.5810
 2928THY    CA673199   0.166   6.604  -0.141 -0.3403 -0.2793 -1.1633
 2928THY    HA673200   0.118   6.677  -0.076 -0.6986 -1.0128 -0.5829
 2929THY      O73201   3.518   4.822   5.504  0.6723  0.0052  0.0240
 2929THY     HO73202   3.421   4.819   5.505  0.5535  1.0390 -2.4607
 2929THY    CA173203   3.550   4.834   5.378 -0.0682  0.6016  0.0946
 2929THY    CA273204   3.613   4.944   5.328 -1.0827 -0.0300  0.1111
 2929THY    CP173205   3.689   5.048   5.409 -0.2756  0.3562  0.5601
 2929THY    HP173206   3.643   5.050   5.508  0.0625 -1.2670  0.7780
 2929THY    CP273207   3.843   5.032   5.410 -0.8697  0.5515 -0.6725
 2929THY    HP273208   3.900   5.124   5.432 -0.5069  0.8010 -2.5272
 2929THY    HP373209   3.864   4.964   5.493 -0.3914  1.4100 -0.0698
 2929THY    HP473210   3.872   4.997   5.311 -1.0790 -0.2503 -0.4541
 2929THY    CP373211   3.661   5.194   5.373  0.1242 -0.2306 -0.1365
 2929THY    HP573212   3.719   5.233   5.288  0.8315  0.9759  0.8638
 2929THY    HP673213   3.556   5.222   5.363  1.1347  4.6487  0.0680
 2929THY    HP773214   3.680   5.259   5.460 -2.9011  0.5579  0.0385
 2929THY    CA373215   3.623   4.952   5.184  0.1380 -0.1023  0.5832
 2929THY    HA373216   3.666   5.036   5.131 -1.0451 -0.2254 -0.6346
 2929THY    CA473217   3.566   4.857   5.101  0.0420 -0.6566  0.5896
 2929THY    HA473218   3.572   4.867   4.993  2.2429  1.7029  0.8410
 2929THY    CA573219   3.504   4.743   5.150 -0.0385 -0.2504 -0.4258
 2929THY    CM173220   3.443   4.640   5.062  0.6306 -0.3345 -0.0051
 2929THY    HM173221   3.458   4.543   5.110  0.4791 -1.5156 -2.2191
 2929THY    HM273222   3.334   4.653   5.058  0.6723  0.0481  0.0420
 2929THY    HM373223   3.486   4.647   4.961  1.2493  1.4345  0.3242
 2929THY    CA673224   3.493   4.738   5.290 -0.0089  0.6649  0.1405
 2929THY    HA673225   3.442   4.655   5.338  3.2482 -0.1903  2.4187
 2930THY      O73226   7.227   0.135   8.001  1.2557 -0.7734 -1.1300
 2930THY     HO73227   7.151   0.195   7.993  1.6497  0.7447  3.5394
 2930THY    CA173228   7.212   0.018   7.935  0.2776 -0.4333 -0.2441
 2930THY    CA273229   7.295  -0.092   7.966 -0.4858  0.3163 -0.4709
 2930THY    CP173230   7.398  -0.090   8.082 -0.8829  0.3621  0.6624
 2930THY    HP173231   7.410   0.004   8.137 -0.1151  0.1940  0.7915
 2930THY    CP273232   7.371  -0.192   8.190  0.1388  0.3295  0.1778
 2930THY    HP273233   7.266  -0.177   8.216  0.5227  1.9779  0.8897
 2930THY    HP373234   7.395  -0.293   8.155  0.6860  0.0795  1.2298
 2930THY    HP473235   7.425  -0.169   8.282 -0.9505 -0.5245  1.0511
 2930THY    CP373236   7.544  -0.123   8.034  0.7976  0.3796 -0.5520
 2930THY    HP573237   7.610  -0.134   8.121 -0.9059  1.8964  1.0090
 2930THY    HP673238   7.548  -0.208   7.964 -2.2311  0.7727 -1.3512
 2930THY    HP773239   7.579  -0.043   7.967  2.8627 -1.8847 -2.3550
 2930THY    CA373240   7.263  -0.216   7.902  0.9645  0.4873  0.2154
 2930THY    HA373241   7.317  -0.306   7.930  0.1696  0.2089  0.8804
 2930THY    CA473242   7.145  -0.225   7.817 -1.0701  0.1399 -0.4662
 2930THY    HA473243   7.125  -0.320   7.768  2.3189  0.1951 -2.2998
 2930THY    CA573244   7.064  -0.117   7.786 -0.2578  0.2687 -0.5444
 2930THY    CM173245   6.954  -0.134   7.691  0.2434  0.2056 -0.2513
 2930THY    HM173246   6.981  -0.194   7.603 -1.3473  1.2034 -1.4703
 2930THY    HM273247   6.854  -0.162   7.726 -0.9585  1.0792 -2.7213
 2930THY    HM373248   6.949  -0.032   7.650  2.0696  0.0797 -0.8886
 2930THY    CA673249   7.094   0.000   7.859 -0.2976 -0.2336  0.0175
 2930THY    HA673250   7.045   0.094   7.836  1.4571  0.4381 -1.2274
 2931THY      O73251   8.938   7.763   6.926 -0.0167 -0.4670 -0.0718
 2931THY     HO73252   8.878   7.792   6.856  1.6447  1.5027 -0.7947
 2931THY    CA173253   8.988   7.872   6.987 -0.2178  0.0868 -0.1210
 2931THY    CA273254   9.125   7.894   6.991 -0.0264 -0.5255  0.3133
 2931THY    CP173255   9.226   7.801   6.920 -0.1443  0.2905  0.3454
 2931THY    HP173256   9.178   7.703   6.910  0.7120 -0.1278  0.2181
 2931THY    CP273257   9.249   7.862   6.786 -0.2555  0.5759  0.9534
 2931THY    HP273258   9.303   7.797   6.717 -1.5779 -0.6012  0.9703
 2931THY    HP373259   9.146   7.878   6.750 -1.0691 -1.0383  2.4223
 2931THY    HP473260   9.301   7.958   6.791  1.8029 -0.4883  0.9385
 2931THY    CP373261   9.353   7.777   6.990 -0.0629  0.7179 -0.6256
 2931THY    HP573262   9.425   7.859   7.001  1.2460 -0.4614  0.0455
 2931THY    HP673263   9.346   7.716   7.081  1.9354 -0.3863 -1.1447
 2931THY    HP773264   9.410   7.711   6.923  3.5564  1.9263  0.9991
 2931THY    CA373265   9.179   8.021   7.036  0.2569 -0.0501  0.2204
 2931THY    HA373266   9.286   8.042   7.036  0.2253  0.2028 -1.0047
 2931THY    CA473267   9.087   8.120   7.069 -0.9355  0.4037 -0.0704
 2931THY    HA473268   9.136   8.216   7.082  3.1646 -1.5699  0.7670
 2931THY    CA573269   8.951   8.104   7.056  0.1946 -0.1320 -0.4254
 2931THY    CM173270   8.856   8.216   7.102  0.6570 -0.2248  0.6954
 2931THY    HM173271   8.775   8.181   7.166  2.5622 -0.5050  3.1162
 2931THY    HM273272   8.901   8.293   7.165  0.5782  0.6087 -0.2448
 2931THY    HM373273   8.820   8.269   7.013  2.3437  0.6246  0.4710
 2931THY    CA673274   8.902   7.974   7.017 -0.3364  0.2883 -0.3503
 2931THY    HA673275   8.796   7.971   6.991 -0.7516  0.3891  1.1950
 2932THY      O73276   3.663   5.250   8.115  0.1066  0.3993  0.6728
 2932THY     HO73277   3.603   5.326   8.126  1.1478  1.2867  0.2990
 2932THY    CA173278   3.617   5.140   8.180 -0.1047  0.5311 -0.0442
 2932THY    CA273279   3.693   5.023   8.175  0.3325  0.0036  0.3616
 2932THY    CP173280   3.839   5.020   8.124 -0.1461 -0.2381 -0.6240
 2932THY    HP173281   3.880   5.120   8.145 -2.5775  0.5761  0.7122
 2932THY    CP273282   3.937   4.942   8.212 -0.1424  0.3723  0.3300
 2932THY    HP273283   3.931   4.835   8.191  2.7243  0.2525 -0.3127
 2932THY    HP373284   4.045   4.957   8.199  0.4480 -3.7337 -1.1490
 2932THY    HP473285   3.912   4.972   8.315 -0.9479 -0.4678  0.3845
 2932THY    CP373286   3.859   4.992   7.979  0.3701 -0.1012  0.2265
 2932THY    HP573287   3.789   5.051   7.918  0.7589 -1.0203 -1.1781
 2932THY    HP673288   3.963   5.008   7.948 -0.1410  1.5519 -0.7956
 2932THY    HP773289   3.821   4.891   7.957 -1.1451  0.6149 -0.6036
 2932THY    CA373290   3.633   4.909   8.223 -0.3946  0.1909  0.3280
 2932THY    HA373291   3.689   4.816   8.212  0.8685  1.1777 -2.5693
 2932THY    CA473292   3.499   4.915   8.269 -0.4894  0.4849 -0.4107
 2932THY    HA473293   3.453   4.824   8.308 -0.0059  0.9003  1.1802
 2932THY    CA573294   3.431   5.040   8.286  0.7824  0.3529 -0.3330
 2932THY    CM173295   3.299   5.044   8.352  0.0112 -0.2040 -0.7127
 2932THY    HM173296   3.278   4.960   8.419 -2.4316 -0.9400 -2.2770
 2932THY    HM273297   3.292   5.133   8.417 -1.5602 -0.1322 -0.9624
 2932THY    HM373298   3.221   5.048   8.275  0.5754 -0.4614 -1.3053
 2932THY    CA673299   3.491   5.153   8.239 -0.0694  0.1615  0.0640
 2932THY    HA673300   3.431   5.242   8.224  0.7084  0.2505 -3.1348
 2933THY      O73301   6.576   7.112   5.642 -0.2386  0.4574 -0.1097
 2933THY     HO73302   6.529   7.028   5.658 -2.1170  1.4792  0.0834
 2933THY    CA173303   6.595   7.125   5.521 -0.1774  0.1547  0.5029
 2933THY    CA273304   6.632   7.247   5.470 -0.1080 -0.6643  0.0524
 2933THY    CP173305   6.665   7.366   5.559  0.1857 -0.6555 -0.5500
 2933THY    HP173306   6.636   7.350   5.663 -2.2667  1.3353 -0.8314
 2933THY    CP273307   6.816   7.392   5.558  0.1474  0.5317 -0.3003
 2933THY    HP273308   6.842   7.498   5.545 -1.1458  0.7293 -1.6126
 2933THY    HP373309   6.854   7.358   5.655  0.6299  3.3112  0.5711
 2933THY    HP473310   6.868   7.340   5.476 -1.0085 -1.3618  0.1006
 2933THY    CP373311   6.590   7.495   5.522  0.0174 -0.1578  0.9302
 2933THY    HP573312   6.596   7.542   5.424 -0.9773  0.5097  1.1748
 2933THY    HP673313   6.486   7.463   5.518 -0.3405  1.0906 -1.7859
 2933THY    HP773314   6.604   7.572   5.599  0.2894  1.7535 -0.9583
 2933THY    CA373315   6.655   7.267   5.333 -0.1773 -0.1205 -0.1070
 2933THY    HA373316   6.684   7.365   5.296  0.5327 -0.8620 -1.5824
 2933THY    CA473317   6.623   7.165   5.243 -0.0741  0.1019 -0.4726
 2933THY    HA473318   6.639   7.184   5.137  2.7572  0.1576 -0.1112
 2933THY    CA573319   6.580   7.039   5.293  0.4632  0.2370 -0.6149
 2933THY    CM173320   6.552   6.921   5.203  0.1649 -0.0063  0.1627
 2933THY    HM173321   6.446   6.917   5.175  0.5380 -0.3168 -1.2896
 2933THY    HM273322   6.618   6.937   5.117 -1.0201  1.8014 -0.4788
 2933THY    HM373323   6.581   6.823   5.243 -1.3117  0.0211  1.3567
 2933THY    CA673324   6.561   7.023   5.428 -0.5807  0.2855 -0.4046
 2933THY    HA673325   6.516   6.932   5.466 -0.6332 -0.0440 -1.2301
 2934THY      O73326   5.868   3.038   5.526 -0.5009  0.2712  0.7774
 2934THY     HO73327   5.804   3.088   5.580 -0.7756  2.0763 -1.0840
 2934THY    CA173328   5.987   3.077   5.576  0.0854  0.6854  0.5427
 2934THY    CA273329   6.099   3.082   5.488 -0.3426  0.2398  0.0644
 2934THY    CP173330   6.077   3.032   5.344  0.5031 -0.0558  0.4835
 2934THY    HP173331   6.012   2.944   5.346 -0.4277  0.6105  0.1899
 2934THY    CP273332   6.006   3.148   5.267 -0.6323  0.1798  0.3474
 2934THY    HP273333   5.931   3.200   5.329 -0.0849 -1.1311  2.1967
 2934THY    HP373334   6.072   3.234   5.253 -0.6517  0.1238 -0.1042
 2934THY    HP473335   5.959   3.115   5.174 -1.0623  1.5230  0.0721
 2934THY    CP373336   6.207   2.994   5.269 -0.0892 -0.2836  0.0548
 2934THY    HP573337   6.180   2.972   5.165 -1.5698 -0.5406  0.4667
 2934THY    HP673338   6.283   3.073   5.270 -0.0660 -0.3068  0.0886
 2934THY    HP773339   6.242   2.899   5.310 -0.0221 -0.8760 -1.3232
 2934THY    CA373340   6.228   3.101   5.542  0.4549 -0.3533  0.2351
 2934THY    HA373341   6.317   3.097   5.481  1.3468 -0.8959  1.5228
 2934THY    CA473342   6.244   3.121   5.677  0.3862  0.3103  0.0147
 2934THY    HA473343   6.345   3.121   5.716  1.1242  0.5780 -1.7982
 2934THY    CA573344   6.138   3.106   5.764 -0.3807  0.6817 -0.1128
 2934THY    CM173345   6.158   3.126   5.913  0.0670 -0.5963  0.5169
 2934THY    HM173346   6.197   3.039   5.967  3.6464  0.0374 -0.8063
 2934THY    HM273347   6.231   3.207   5.928 -0.9350  0.4519 -0.0997
 2934THY    HM373348   6.064   3.159   5.959  1.2511  0.6205  2.1977
 2934THY    CA673349   6.011   3.089   5.717  0.2948 -0.2715  0.0816
 2934THY    HA673350   5.924   3.091   5.783 -1.9449  1.6737 -2.6971
 2935THY      O73351   1.967   3.560   1.875 -0.1286  0.3221 -0.9270
 2935THY     HO73352   1.924   3.571   1.962  2.9175 -1.3441  0.9669
 2935THY    CA173353   2.036   3.671   1.861  0.6922 -0.2715 -0.1875
 2935THY    CA273354   2.155   3.684   1.790  0.1605  0.0385  0.2707
 2935THY    CP173355   2.221   3.572   1.719  0.4675 -0.4636 -0.6779
 2935THY    HP173356   2.164   3.478   1.725  2.6316 -1.7814  0.4443
 2935THY    CP273357   2.256   3.609   1.579 -0.0580 -0.2890 -0.0464
 2935THY    HP273358   2.174   3.649   1.518 -1.0126  0.7767  1.8486
 2935THY    HP373359   2.339   3.680   1.592 -0.2962 -0.5149  3.8891
 2935THY    HP473360   2.288   3.519   1.524  1.0425  0.6217 -0.9583
 2935THY    CP373361   2.347   3.530   1.795 -0.1522  0.4741  0.2544
 2935THY    HP573362   2.406   3.620   1.816 -1.9109  1.5483  0.7749
 2935THY    HP673363   2.317   3.480   1.888  0.6478 -1.0458 -0.2683
 2935THY    HP773364   2.416   3.465   1.740 -2.2380 -0.5324 -1.2635
 2935THY    CA373365   2.223   3.817   1.788 -0.1027 -0.4223  0.1827
 2935THY    HA373366   2.319   3.834   1.739  0.5673  1.1512  1.9195
 2935THY    CA473367   2.153   3.925   1.841 -0.1542 -0.7167 -0.9113
 2935THY    HA473368   2.187   4.028   1.834 -0.8960 -0.3534  0.4082
 2935THY    CA573369   2.034   3.906   1.910 -0.3440 -0.4176 -0.6666
 2935THY    CM173370   1.945   4.022   1.953 -0.1242  0.2495  0.2931
 2935THY    HM173371   1.857   3.995   2.014 -0.0543 -2.9233 -0.8594
 2935THY    HM273372   2.005   4.101   1.999  0.4634  1.2726 -2.1127
 2935THY    HM373373   1.910   4.077   1.865 -0.5161  1.7455  1.3296
 2935THY    CA673374   1.983   3.777   1.933  0.3817  0.3659 -0.0434
 2935THY    HA673375   1.888   3.770   1.984  0.9104 -0.8212  0.8195
 2936THY      O73376   3.816   6.337   8.876 -0.1052 -0.6771 -0.2245
 2936THY     HO73377   3.839   6.335   8.971  0.6297 -0.6315 -0.3927
 2936THY    CA173378   3.747   6.450   8.847 -0.4159  0.0132  0.5614
 2936THY    CA273379   3.775   6.529   8.731  0.0876  0.2100  0.0191
 2936THY    CP173380   3.883   6.471   8.632  0.0313 -0.1722 -0.0056
 2936THY    HP173381   3.891   6.362   8.637  0.5661 -0.0985  1.0582
 2936THY    CP273382   3.860   6.503   8.486  0.3614  0.2283 -0.0998
 2936THY    HP273383   3.771   6.463   8.437 -0.9384  3.6765 -0.8489
 2936THY    HP373384   3.865   6.611   8.467 -0.4809 -0.0565 -2.2902
 2936THY    HP473385   3.942   6.471   8.421 -2.4128  0.7420 -4.2248
 2936THY    CP373386   4.018   6.536   8.671 -0.1879  0.0810 -0.7153
 2936THY    HP573387   4.099   6.464   8.654  1.2656  0.0840  4.4807
 2936THY    HP673388   4.023   6.624   8.606 -1.8436 -0.0221 -1.0279
 2936THY    HP773389   4.016   6.566   8.777  0.4066  0.9118 -0.9271
 2936THY    CA373390   3.696   6.643   8.712 -0.9143  0.1034  0.1537
 2936THY    HA373391   3.710   6.707   8.626 -0.2295 -0.9557 -0.5454
 2936THY    CA473392   3.594   6.676   8.802 -0.1174  0.2699 -0.1844
 2936THY    HA473393   3.544   6.772   8.794  0.9753  0.8145 -0.6405
 2936THY    CA573394   3.579   6.599   8.919  0.1189 -0.9027 -0.2434
 2936THY    CM173395   3.488   6.658   9.014 -0.1274 -0.4158 -0.2536
 2936THY    HM173396   3.520   6.745   9.071 -1.4997  1.1972 -1.8053
 2936THY    HM273397   3.407   6.702   8.954  2.3889  1.2574 -2.6659
 2936THY    HM373398   3.451   6.577   9.078  1.0371 -1.8655 -1.3330
 2936THY    CA673399   3.652   6.488   8.934 -0.0366  0.7065 -0.2709
 2936THY    HA673400   3.646   6.432   9.026  1.0807 -0.8151 -1.0815
 2937THY      O73401   1.146   7.418   4.933 -0.1234 -0.0939  0.3378
 2937THY     HO73402   1.100   7.480   4.993  0.6603  1.1106 -0.2631
 2937THY    CA173403   1.079   7.293   4.938  1.0952 -0.0545 -0.7904
 2937THY    CA273404   1.131   7.182   4.872 -0.4238  0.1593  0.2380
 2937THY    CP173405   1.270   7.186   4.812 -0.6528 -0.2069  0.8317
 2937THY    HP173406   1.305   7.286   4.782  0.8623 -1.8139 -3.7510
 2937THY    CP273407   1.370   7.126   4.917  0.8010 -0.4613  1.0395
 2937THY    HP273408   1.469   7.128   4.872 -0.4400  1.7933 -1.9015
 2937THY    HP373409   1.366   7.195   5.002  0.8241 -0.6415  1.1873
 2937THY    HP473410   1.342   7.021   4.932 -1.1007 -0.5358 -2.0856
 2937THY    CP373411   1.274   7.118   4.678 -0.3596  0.3632 -0.0066
 2937THY    HP573412   1.278   7.009   4.692 -1.7281  0.0084 -1.9803
 2937THY    HP673413   1.181   7.133   4.621  0.3466  3.0020 -0.6006
 2937THY    HP773414   1.361   7.154   4.621 -1.2231  1.7463 -0.4871
 2937THY    CA373415   1.056   7.061   4.875  1.0592  0.4561  0.7669
 2937THY    HA373416   1.092   6.979   4.814 -1.0376  2.0826 -3.0664
 2937THY    CA473417   0.931   7.060   4.940 -0.0599  0.3539 -0.0749
 2937THY    HA473418   0.871   6.970   4.950 -0.0441  0.3134 -0.3332
 2937THY    CA573419   0.879   7.184   5.000 -0.2040  0.5888 -0.2291
 2937THY    CM173420   0.746   7.191   5.063  0.6601  0.3035  0.6422
 2937THY    HM173421   0.716   7.092   5.102 -1.7455  0.4741 -0.5871
 2937THY    HM273422   0.754   7.261   5.146  1.5498  2.6739 -1.3218
 2937THY    HM373423   0.659   7.214   5.000  0.7484  1.0555  0.7874
 2937THY    CA673424   0.957   7.294   5.002  0.1830  0.1480 -0.3348
 2937THY    HA673425   0.925   7.386   5.050  0.9198  0.4281 -0.3694
 2938THY      O73426   1.601   2.142   7.414 -0.5970 -0.6901  0.3453
 2938THY     HO73427   1.522   2.184   7.376  0.6865  0.6767 -0.9204
 2938THY    CA173428   1.662   2.214   7.507 -0.0595 -0.3072 -0.0363
 2938THY    CA273429   1.798   2.243   7.501 -0.3919 -0.1161  0.8418
 2938THY    CP173430   1.880   2.230   7.369 -0.5377  0.2113 -0.0897
 2938THY    HP173431   1.834   2.146   7.316  0.0542 -0.0671 -0.1700
 2938THY    CP273432   1.866   2.360   7.291 -0.1840 -0.3648 -0.3211
 2938THY    HP273433   1.901   2.340   7.189  1.2704  1.5069 -0.2577
 2938THY    HP373434   1.761   2.389   7.285 -0.2271 -0.1766  1.0066
 2938THY    HP473435   1.934   2.430   7.341 -3.0214  0.9717  1.9344
 2938THY    CP373436   2.027   2.199   7.384 -0.1917  0.3813 -0.0994
 2938THY    HP573437   2.079   2.195   7.288 -0.7244 -0.3476 -0.3659
 2938THY    HP673438   2.085   2.263   7.451 -0.4578  2.0699 -1.4125
 2938THY    HP773439   2.036   2.103   7.435 -0.9177  0.0952 -0.4952
 2938THY    CA373440   1.853   2.318   7.606 -0.5049  0.6797  0.0572
 2938THY    HA373441   1.953   2.361   7.607 -0.0581 -0.3236  0.3070
 2938THY    CA473442   1.782   2.333   7.722  0.9462 -0.1826 -0.6270
 2938THY    HA473443   1.819   2.392   7.806  1.4685  1.0094 -1.6693
 2938THY    CA573444   1.648   2.294   7.733  0.1738  0.5134  0.6363
 2938THY    CM173445   1.575   2.324   7.866  0.1703  0.0968  0.0359
 2938THY    HM173446   1.594   2.418   7.918  0.5525 -1.4792  2.9565
 2938THY    HM273447   1.469   2.324   7.838  0.3587  1.2135 -0.7418
 2938THY    HM373448   1.593   2.244   7.939 -1.8127 -1.7707 -1.3925
 2938THY    CA673449   1.585   2.238   7.621 -0.1908 -0.2552 -0.0997
 2938THY    HA673450   1.478   2.216   7.619 -0.2383 -0.4134  1.9860
 2939THY      O73451   2.372   4.942   5.889 -0.5815 -0.1849  0.5396
 2939THY     HO73452   2.308   5.008   5.921 -0.1333 -0.0743  1.2090
 2939THY    CA173453   2.374   4.960   5.760  0.8938  0.2465  0.2632
 2939THY    CA273454   2.295   4.877   5.674 -0.0002  0.0453 -0.4068
 2939THY    CP173455   2.218   4.751   5.722 -0.6568 -0.5066 -0.6883
 2939THY    HP173456   2.172   4.779   5.818 -0.4197 -0.3663 -0.6140
 2939THY    CP273457   2.116   4.681   5.627 -0.2212 -0.7676  0.2753
 2939THY    HP273458   2.056   4.615   5.691 -1.4978 -0.1150 -0.2224
 2939THY    HP373459   2.049   4.759   5.589 -2.6778 -2.5614  0.6774
 2939THY    HP473460   2.164   4.623   5.547 -0.1020 -1.6053  0.9310
 2939THY    CP373461   2.332   4.658   5.767 -0.4567  0.1325  0.6466
 2939THY    HP573462   2.401   4.639   5.684 -3.1184 -0.0972 -1.6719
 2939THY    HP673463   2.386   4.691   5.856  1.8452 -1.7214  0.0453
 2939THY    HP773464   2.281   4.561   5.775  2.6625 -1.6457  0.2832
 2939THY    CA373465   2.307   4.899   5.537 -0.2395  0.3636 -0.3523
 2939THY    HA373466   2.261   4.829   5.468  0.1408 -1.5232  1.2281
 2939THY    CA473467   2.386   5.006   5.490  0.6304 -0.1711  0.1179
 2939THY    HA473468   2.390   5.024   5.383 -1.1853  0.0827  0.0607
 2939THY    CA573469   2.466   5.083   5.573 -0.5537  0.0328 -0.2507
 2939THY    CM173470   2.553   5.195   5.522  0.7717 -0.3067  0.5990
 2939THY    HM173471   2.503   5.280   5.473  1.6567 -0.1841 -0.1269
 2939THY    HM273472   2.616   5.237   5.601  3.7849 -0.7175 -1.4095
 2939THY    HM373473   2.624   5.153   5.450  1.9380  0.0255  1.5289
 2939THY    CA673474   2.448   5.068   5.712  0.2011 -0.0227 -0.4903
 2939THY    HA673475   2.505   5.127   5.783  1.2936  1.1349 -2.2515
 2940THY      O73476   9.598   3.010   4.734  0.1915 -0.1147 -0.0129
 2940THY     HO73477   9.507   3.038   4.752  1.0959  2.6663  0.9190
 2940THY    CA173478   9.624   2.891   4.791 -1.0400  0.6115  0.3216
 2940THY    CA273479   9.741   2.826   4.763  0.3359  0.0781 -0.0814
 2940THY    CP173480   9.839   2.876   4.660 -0.3361 -1.1047 -0.3127
 2940THY    HP173481   9.808   2.971   4.614  0.2570 -0.4734  0.5547
 2940THY    CP273482   9.984   2.902   4.724  1.1452 -0.8196  0.0837
 2940THY    HP273483   9.976   2.973   4.807 -0.8767  0.4127 -1.0865
 2940THY    HP373484  10.032   2.808   4.755 -0.4514 -1.7331 -0.0972
 2940THY    HP473485  10.050   2.943   4.647  0.5210 -1.9889 -1.1122
 2940THY    CP373486   9.853   2.779   4.542  0.2670  0.1457  1.1261
 2940THY    HP573487   9.934   2.711   4.571  0.5796  0.1249  0.2123
 2940THY    HP673488   9.754   2.734   4.523 -0.4474  2.1084 -0.0743
 2940THY    HP773489   9.878   2.839   4.454 -0.0763  0.7295  1.4201
 2940THY    CA373490   9.773   2.702   4.828  0.4403  0.2913  0.2455
 2940THY    HA373491   9.862   2.649   4.797 -0.5989 -2.2623  1.3281
 2940THY    CA473492   9.672   2.649   4.912 -0.2388  0.4274  0.3902
 2940THY    HA473493   9.694   2.553   4.958  0.6618  1.1075  1.4521
 2940THY    CA573494   9.556   2.717   4.942 -0.8834  0.9915  0.1603
 2940THY    CM173495   9.449   2.657   5.037 -0.3374 -0.0600  0.1534
 2940THY    HM173496   9.407   2.734   5.102 -0.7904  0.2363 -0.4900
 2940THY    HM273497   9.364   2.616   4.982 -1.3015  0.5065  1.1822
 2940THY    HM373498   9.492   2.575   5.097 -1.8579 -1.0592 -0.0717
 2940THY    CA673499   9.534   2.840   4.882  0.7860  0.2078 -0.3273
 2940THY    HA673500   9.442   2.893   4.901  0.0806 -0.4962 -1.6197
 2941THY      O73501   1.347   0.511   4.283 -0.0916 -0.2795 -0.9080
 2941THY     HO73502   1.311   0.425   4.259  1.4630 -1.1652 -0.2139
 2941THY    CA173503   1.321   0.592   4.183 -0.0303 -0.0434  0.3000
 2941THY    CA273504   1.329   0.733   4.195  0.0904  0.5032 -0.7673
 2941THY    CP173505   1.374   0.800   4.333  0.3810 -0.3590 -0.4197
 2941THY    HP173506   1.362   0.729   4.416  0.6051 -0.9643 -0.9018
 2941THY    CP273507   1.522   0.845   4.331 -0.0226 -0.5127 -0.0155
 2941THY    HP273508   1.577   0.755   4.301 -0.6221 -0.0002 -3.0122
 2941THY    HP373509   1.532   0.931   4.264 -1.6754  1.8375  2.5334
 2941THY    HP473510   1.565   0.884   4.424  2.3774 -1.3643 -0.6912
 2941THY    CP373511   1.276   0.921   4.371  0.4038 -0.7341 -0.0284
 2941THY    HP573512   1.171   0.892   4.363 -0.3242  1.8332 -0.7618
 2941THY    HP673513   1.288   0.955   4.475 -0.1481 -1.3823  0.2551
 2941THY    HP773514   1.295   1.008   4.307  4.4398 -0.8511  0.7057
 2941THY    CA373515   1.308   0.812   4.083 -0.3731 -0.2591  0.3307
 2941THY    HA373516   1.311   0.920   4.086 -0.6673 -0.1104 -2.3780
 2941THY    CA473517   1.282   0.747   3.962  0.2622 -0.1232 -0.2989
 2941THY    HA473518   1.261   0.808   3.874 -0.7583 -0.9332 -0.6391
 2941THY    CA573519   1.272   0.610   3.944  0.5248  0.2654  0.4261
 2941THY    CM173520   1.228   0.550   3.811  0.9248 -0.6094  0.0208
 2941THY    HM173521   1.122   0.569   3.792  1.1151  0.7238  0.1835
 2941THY    HM273522   1.280   0.598   3.728 -0.8226  0.2867 -0.6077
 2941THY    HM373523   1.249   0.443   3.807 -0.8909 -0.9883 -0.5309
 2941THY    CA673524   1.289   0.534   4.064  0.5967  0.7012  0.7846
 2941THY    HA673525   1.284   0.425   4.059  2.5322  0.5373  1.5593
 2942THY      O73526   8.762   8.767   0.626  0.4508  0.0566 -0.7757
 2942THY     HO73527   8.817   8.839   0.588 -0.9536  2.5317  1.5319
 2942THY    CA173528   8.847   8.673   0.663  0.0557  0.0141 -0.0916
 2942THY    CA273529   8.814   8.571   0.756 -0.1306  0.1499  0.1657
 2942THY    CP173530   8.675   8.566   0.815 -0.0287  0.1349  0.3034
 2942THY    HP173531   8.617   8.594   0.727  3.2192  1.4493 -1.5840
 2942THY    CP273532   8.639   8.427   0.853 -0.3983  0.5597 -0.5253
 2942THY    HP273533   8.696   8.398   0.941  1.0009 -1.8127 -2.1092
 2942THY    HP373534   8.535   8.410   0.884 -0.1366 -0.1327  0.0017
 2942THY    HP473535   8.658   8.367   0.763  0.6894  0.8779 -0.5138
 2942THY    CP373536   8.661   8.665   0.929 -0.4511  0.4451 -0.6228
 2942THY    HP573537   8.686   8.765   0.890 -2.6236  1.2327 -0.1487
 2942THY    HP673538   8.558   8.670   0.966 -0.9594 -1.1944 -1.7010
 2942THY    HP773539   8.727   8.635   1.011 -1.2948 -0.9279 -0.4128
 2942THY    CA373540   8.909   8.473   0.781  0.2960 -0.1038  0.5711
 2942THY    HA373541   8.880   8.385   0.838  0.3019 -0.6978 -0.3067
 2942THY    CA473542   9.037   8.487   0.717  0.1535 -0.3488  0.1088
 2942THY    HA473543   9.122   8.423   0.742  0.4533 -1.6693 -3.7221
 2942THY    CA573544   9.069   8.598   0.636  0.3596  0.3981 -0.3424
 2942THY    CM173545   9.202   8.603   0.564  0.8627  0.2289 -0.1135
 2942THY    HM173546   9.226   8.710   0.562 -2.0913  0.9538 -0.5991
 2942THY    HM273547   9.284   8.558   0.621  0.1707  0.8270  1.3873
 2942THY    HM373548   9.196   8.566   0.461 -0.3820  1.2529 -0.4317
 2942THY    CA673549   8.968   8.685   0.607  0.2403 -0.7832 -0.8420
 2942THY    HA673550   8.979   8.762   0.530 -1.7537 -0.3050 -0.7295
 2943THY      O73551   1.841   8.515   6.507 -0.4092 -0.5800  0.1746
 2943THY     HO73552   1.817   8.470   6.590 -0.9095  1.6410  1.3222
 2943THY    CA173553   1.725   8.549   6.446  0.0997  0.6717 -0.1447
 2943THY    CA273554   1.719   8.609   6.321  0.2803 -0.6394 -0.1596
 2943THY    CP173555   1.848   8.678   6.274 -0.0346  0.0457  0.3746
 2943THY    HP173556   1.941   8.632   6.313  1.0846  0.0598 -2.0859
 2943THY    CP273557   1.885   8.669   6.129 -0.1639  0.0688  0.5494
 2943THY    HP273558   1.818   8.739   6.078  0.8252  1.9128  1.6573
 2943THY    HP373559   1.986   8.711   6.124  0.5576 -1.6264  0.0241
 2943THY    HP473560   1.887   8.571   6.080 -2.3406 -0.6868  1.8439
 2943THY    CP373561   1.850   8.817   6.323  0.1357  0.0922 -0.0669
 2943THY    HP573562   1.754   8.859   6.292  0.1345  0.5062  0.4877
 2943THY    HP673563   1.857   8.824   6.432  0.9753  0.7631 -0.1514
 2943THY    HP773564   1.938   8.877   6.297  0.5714  1.6268  4.1011
 2943THY    CA373565   1.596   8.622   6.260  0.3375 -0.5242  0.0440
 2943THY    HA373566   1.584   8.676   6.166  1.3798 -0.2330  0.0734
 2943THY    CA473567   1.474   8.585   6.318 -0.3977  0.2507 -0.6792
 2943THY    HA473568   1.381   8.604   6.267 -1.4593 -0.5028  0.8890
 2943THY    CA573569   1.479   8.521   6.436 -0.2113 -0.8222 -0.2566
 2943THY    CM173570   1.348   8.470   6.508  0.1262  0.7806 -0.5484
 2943THY    HM173571   1.265   8.541   6.501 -1.1911 -0.6821 -0.3034
 2943THY    HM273572   1.312   8.381   6.455 -0.0066  2.0643 -2.7445
 2943THY    HM373573   1.370   8.442   6.612 -2.5355  1.9975  0.4258
 2943THY    CA673574   1.603   8.505   6.505 -0.0314  0.0016  0.2997
 2943THY    HA673575   1.603   8.468   6.607  0.3115 -0.2340  0.2160
 2944THY      O73576   7.538   2.629   5.344 -0.0688 -0.4332  0.7619
 2944THY     HO73577   7.459   2.686   5.346  0.2814  0.0799  0.2418
 2944THY    CA173578   7.615   2.656   5.449 -0.1368 -0.4158  0.5663
 2944THY    CA273579   7.753   2.630   5.445  0.4439  0.1987 -0.0247
 2944THY    CP173580   7.815   2.573   5.322  0.1085  0.1600  0.3616
 2944THY    HP173581   7.744   2.524   5.255  1.0776 -0.5728 -0.1617
 2944THY    CP273582   7.899   2.671   5.242 -0.6594 -0.2391  1.0142
 2944THY    HP273583   7.839   2.748   5.192  3.0847  1.2812 -1.5670
 2944THY    HP373584   7.962   2.737   5.302  0.1962  1.1325 -1.2643
 2944THY    HP473585   7.960   2.625   5.164  0.2016  0.4596  1.2600
 2944THY    CP373586   7.901   2.455   5.360 -0.2268 -0.0095 -0.0996
 2944THY    HP573587   7.848   2.390   5.430  2.1656 -0.0993  1.7699
 2944THY    HP673588   7.937   2.402   5.271 -0.0995 -0.9086  0.4761
 2944THY    HP773589   7.986   2.495   5.416 -0.9354  1.2632  0.1056
 2944THY    CA373590   7.832   2.658   5.566 -0.2323  0.0106 -0.5912
 2944THY    HA373591   7.935   2.623   5.570 -1.1175 -2.8313 -0.0580
 2944THY    CA473592   7.757   2.707   5.680 -0.2620  0.2081  0.1676
 2944THY    HA473593   7.812   2.729   5.771 -0.3960 -0.4218  0.4081
 2944THY    CA573594   7.621   2.735   5.676 -0.5912 -0.0390 -0.1927
 2944THY    CM173595   7.550   2.787   5.785 -0.0391 -0.0960 -0.8845
 2944THY    HM173596   7.444   2.809   5.769 -0.0906 -1.0170 -1.9031
 2944THY    HM273597   7.555   2.723   5.874 -0.4888 -0.1725 -0.9144
 2944THY    HM373598   7.592   2.880   5.826 -0.6589  0.7351 -2.0589
 2944THY    CA673599   7.554   2.717   5.559  0.0733  0.2710  0.1013
 2944THY    HA673600   7.450   2.748   5.549 -0.2115 -1.2107 -2.2713
 2945THY      O73601   6.409   1.886   3.278  0.5129 -0.4150  0.0184
 2945THY     HO73602   6.341   1.872   3.211 -1.2191 -1.5377  1.8904
 2945THY    CA173603   6.508   1.968   3.227 -0.8842  0.6754  0.5101
 2945THY    CA273604   6.632   1.971   3.288  0.3616 -0.7552  0.2670
 2945THY    CP173605   6.667   1.877   3.393  0.4850 -0.4858 -0.3505
 2945THY    HP173606   6.590   1.800   3.402  0.4790 -0.3995  0.3984
 2945THY    CP273607   6.805   1.818   3.374 -0.4486  0.0431  0.3481
 2945THY    HP273608   6.819   1.718   3.415  0.2749 -0.6311 -1.4474
 2945THY    HP373609   6.807   1.816   3.264 -1.5234  1.2215  0.2789
 2945THY    HP473610   6.879   1.892   3.404 -0.4898  0.3439 -0.2739
 2945THY    CP373611   6.657   1.929   3.526  0.2110  0.4625 -0.3482
 2945THY    HP573612   6.736   2.005   3.535  0.1757  0.4360  0.2173
 2945THY    HP673613   6.555   1.968   3.530 -0.4098 -0.8956 -1.9178
 2945THY    HP773614   6.692   1.853   3.597 -0.8297  0.7061  0.4416
 2945THY    CA373615   6.726   2.077   3.252  0.0578 -0.1014 -0.0828
 2945THY    HA373616   6.826   2.079   3.294 -0.0213 -0.7893  0.1588
 2945THY    CA473617   6.695   2.151   3.138 -0.0029  0.1236 -0.5638
 2945THY    HA473618   6.763   2.230   3.109 -0.7338  1.0760  0.2519
 2945THY    CA573619   6.571   2.139   3.071 -0.0419 -0.2075  0.3477
 2945THY    CM173620   6.545   2.225   2.946 -0.0646  0.0794 -0.2965
 2945THY    HM173621   6.544   2.176   2.848  1.3475  0.0041 -0.2824
 2945THY    HM273622   6.445   2.271   2.951  0.8427  2.4303 -2.1723
 2945THY    HM373623   6.615   2.309   2.951 -1.5561  1.2935  2.7412
 2945THY    CA673624   6.476   2.053   3.123  0.4046  0.3076  0.4385
 2945THY    HA673625   6.379   2.046   3.075  0.6432  0.0352 -0.0065
 2946THY      O73626   3.612   1.924   0.144 -0.0422  0.0340 -0.2005
 2946THY     HO73627   3.680   1.880   0.090  0.6513  0.4721  0.3097
 2946THY    CA173628   3.656   1.984   0.254 -0.0950  0.2126  0.1240
 2946THY    CA273629   3.587   2.088   0.316  0.8747 -0.6747  0.4887
 2946THY    CP173630   3.451   2.141   0.252  0.1439  0.0339 -0.9799
 2946THY    HP173631   3.431   2.087   0.159  0.7488  0.7985 -1.5775
 2946THY    CP273632   3.318   2.109   0.335 -0.0930  0.6005 -0.1773
 2946THY    HP273633   3.238   2.162   0.282 -0.5458  0.4408  0.3306
 2946THY    HP373634   3.304   2.001   0.345  1.9753  0.4485  1.8587
 2946THY    HP473635   3.327   2.158   0.433  2.8468  0.8323 -0.4712
 2946THY    CP373636   3.466   2.293   0.207 -0.0514 -0.4364 -0.0192
 2946THY    HP573637   3.532   2.306   0.121 -0.6153 -4.6160 -1.3166
 2946THY    HP673638   3.366   2.331   0.186 -0.2703 -0.4844  0.8895
 2946THY    HP773639   3.511   2.363   0.279  0.7235 -0.0354 -0.8751
 2946THY    CA373640   3.645   2.153   0.434  0.2021 -0.4084  0.0101
 2946THY    HA373641   3.599   2.245   0.468  0.5908  0.1415 -0.9064
 2946THY    CA473642   3.772   2.117   0.475  0.1157 -0.2373 -0.0420
 2946THY    HA473643   3.818   2.165   0.561  1.4384 -0.3255 -0.6818
 2946THY    CA573644   3.846   2.013   0.405  0.7276 -0.0998  0.4876
 2946THY    CM173645   3.987   1.979   0.435  0.2839 -0.2589  0.0813
 2946THY    HM173646   4.048   2.033   0.362  0.0577  1.9850  1.4373
 2946THY    HM273647   4.000   2.018   0.537 -0.6345  0.9355 -0.2244
 2946THY    HM373648   4.012   1.873   0.436  1.8888  0.0012  3.6031
 2946THY    CA673649   3.776   1.949   0.308 -1.1925  0.8752 -0.0816
 2946THY    HA673650   3.839   1.875   0.258 -2.7738  0.5128 -1.6260
 2947THY      O73651   4.345   0.338   5.278  0.4147  0.4551 -0.5370
 2947THY     HO73652   4.347   0.314   5.372 -2.6067 -0.6652 -0.6288
 2947THY    CA173653   4.386   0.219   5.221 -0.2447  0.5640  0.0728
 2947THY    CA273654   4.422   0.215   5.083 -0.0434  0.3387  0.3365
 2947THY    CP173655   4.459   0.352   5.012 -0.1540  0.4729  0.0765
 2947THY    HP173656   4.372   0.415   5.034  0.0606  0.8932 -0.2674
 2947THY    CP273657   4.591   0.415   5.060  0.1089  0.2272  0.7491
 2947THY    HP273658   4.579   0.435   5.168  0.6339  1.4810  0.5955
 2947THY    HP373659   4.657   0.330   5.041 -2.0566 -1.6922  1.2835
 2947THY    HP473660   4.616   0.503   5.000 -1.5206 -1.1504 -2.1785
 2947THY    CP373661   4.479   0.341   4.856  0.6829  0.0595  1.0601
 2947THY    HP573662   4.380   0.321   4.812  0.4844 -0.4404  1.7138
 2947THY    HP673663   4.520   0.434   4.815  0.2313  0.0071  0.4792
 2947THY    HP773664   4.549   0.262   4.830  0.4972  0.9245 -2.6166
 2947THY    CA373665   4.431   0.084   5.023 -0.2356  0.0425  0.0104
 2947THY    HA373666   4.454   0.076   4.917 -2.2727  0.8816 -0.5328
 2947THY    CA473667   4.395  -0.031   5.100 -0.4965  0.4637  0.1620
 2947THY    HA473668   4.391  -0.128   5.052 -0.5328  0.5360  0.0198
 2947THY    CA573669   4.359  -0.021   5.237  0.4625 -0.7911 -0.2602
 2947THY    CM173670   4.312  -0.141   5.311 -0.7424  1.0050 -0.7039
 2947THY    HM173671   4.208  -0.166   5.287  0.0890 -4.3977 -0.0060
 2947THY    HM273672   4.376  -0.228   5.293  0.0472  1.2346  0.8507
 2947THY    HM373673   4.301  -0.127   5.419  0.5356  1.1136 -0.5668
 2947THY    CA673674   4.358   0.104   5.301 -1.5515 -0.4865  0.3937
 2947THY    HA673675   4.328   0.108   5.405  0.2158 -2.1140  1.0302
 2948THY      O73676   6.953   7.236   4.579  0.1341  0.3595  0.0803
 2948THY     HO73677   7.008   7.266   4.653  3.1270  1.7570 -2.4681
 2948THY    CA173678   7.039   7.234   4.472 -0.0095 -0.1883  0.5930
 2948THY    CA273679   6.992   7.197   4.347 -0.2993  0.3946 -0.1513
 2948THY    CP173680   6.847   7.171   4.321  0.2826 -0.1060  0.2818
 2948THY    HP173681   6.802   7.248   4.385  1.0512  0.3922  0.2432
 2948THY    CP273682   6.796   7.181   4.181  0.5233 -1.0441 -0.3246
 2948THY    HP273683   6.810   7.095   4.115 -1.2687 -1.3314 -0.3792
 2948THY    HP373684   6.689   7.200   4.193  0.8161 -0.4749  1.7623
 2948THY    HP473685   6.840   7.268   4.131  3.0993 -2.2815 -0.3260
 2948THY    CP373686   6.795   7.037   4.362 -0.3278  0.1760 -0.0693
 2948THY    HP573687   6.818   7.010   4.465  2.0996 -3.6205 -1.3816
 2948THY    HP673688   6.687   7.024   4.349 -0.2623 -0.4331 -0.0246
 2948THY    HP773689   6.848   6.963   4.301 -1.9033 -1.1400  0.1129
 2948THY    CA373690   7.088   7.168   4.240  0.0007 -0.4091  0.3414
 2948THY    HA373691   7.059   7.126   4.144  1.5563  1.5272 -1.0868
 2948THY    CA473692   7.219   7.214   4.258 -0.2900  0.3836  0.1858
 2948THY    HA473693   7.290   7.203   4.176 -2.0769  0.8333 -1.5073
 2948THY    CA573694   7.265   7.255   4.384  0.0572 -0.7422 -0.0412
 2948THY    CM173695   7.408   7.293   4.414  0.5253  0.4508 -0.2017
 2948THY    HM173696   7.426   7.327   4.517 -1.1595 -0.3837  0.4014
 2948THY    HM273697   7.476   7.214   4.380  0.4401  0.9768 -1.6614
 2948THY    HM373698   7.420   7.387   4.359  4.4662 -0.9581 -2.1462
 2948THY    CA673699   7.172   7.272   4.486 -0.4842  0.5300  0.2049
 2948THY    HA673700   7.211   7.317   4.577 -2.6189  0.2150  1.3317
 2949THY      O73701   6.911   2.098   5.043 -0.2836 -0.1275 -0.0380
 2949THY     HO73702   6.992   2.116   5.095 -0.4366 -0.5784  0.3654
 2949THY    CA173703   6.837   2.215   5.054  0.6189  0.4659  0.1676
 2949THY    CA273704   6.726   2.242   4.972  0.3269  0.5290 -0.2790
 2949THY    CP173705   6.684   2.140   4.864  0.0781  0.0799 -0.1578
 2949THY    HP173706   6.763   2.064   4.874  1.5735  1.3604 -1.6519
 2949THY    CP273707   6.541   2.077   4.890 -0.8569  0.6628 -0.4478
 2949THY    HP273708   6.538   2.031   4.990  0.4009 -0.3139 -0.8445
 2949THY    HP373709   6.468   2.159   4.897 -2.9927 -1.1707 -0.2614
 2949THY    HP473710   6.519   2.001   4.815 -1.2040  1.8878 -1.6212
 2949THY    CP373711   6.679   2.191   4.722 -0.7823 -0.1439 -0.1640
 2949THY    HP573712   6.604   2.271   4.715 -0.7866 -0.2842 -2.1880
 2949THY    HP673713   6.771   2.239   4.687 -0.8780 -0.5498 -0.9987
 2949THY    HP773714   6.664   2.111   4.649 -0.8424  0.2629 -0.6028
 2949THY    CA373715   6.665   2.366   4.983  0.3088 -0.2981 -0.4895
 2949THY    HA373716   6.580   2.391   4.920 -1.7041 -2.2472  1.2626
 2949THY    CA473717   6.709   2.448   5.090  0.5288  0.1193 -0.5232
 2949THY    HA473718   6.645   2.535   5.108 -0.4928 -1.0794  2.1021
 2949THY    CA573719   6.816   2.422   5.179 -0.2585  0.2655 -0.4664
 2949THY    CM173720   6.844   2.499   5.301  0.0419 -0.1048 -0.1290
 2949THY    HM173721   6.790   2.455   5.386  0.1939  2.4699  1.4189
 2949THY    HM273722   6.951   2.510   5.320 -0.2852  2.5283  0.5904
 2949THY    HM373723   6.809   2.603   5.299  1.4964  0.4112 -2.8795
 2949THY    CA673724   6.876   2.298   5.161  0.1579 -0.7440  0.1239
 2949THY    HA673725   6.957   2.267   5.226 -2.0860 -1.6387  2.6945
 2950THY      O73726   8.977   9.490   3.721 -0.2244 -0.1613  0.3179
 2950THY     HO73727   8.896   9.441   3.743  0.2988 -0.1086  2.5768
 2950THY    CA173728   8.989   9.591   3.803  0.3033  0.5624 -0.6029
 2950THY    CA273729   9.061   9.705   3.770 -0.4676 -0.2751 -0.6249
 2950THY    CP173730   9.129   9.714   3.635  0.8112  0.2865  0.8590
 2950THY    HP173731   9.080   9.641   3.570 -0.5430  0.4606  1.6541
 2950THY    CP273732   9.105   9.850   3.570  0.2805 -0.6929 -0.0321
 2950THY    HP273733   8.997   9.870   3.579  0.4923  1.1181 -0.9411
 2950THY    HP373734   9.164   9.928   3.619 -0.3883  0.7592 -1.4351
 2950THY    HP473735   9.124   9.846   3.462 -3.1030 -1.6570 -0.7088
 2950THY    CP373736   9.274   9.673   3.636 -0.5037  0.0991  0.2595
 2950THY    HP573737   9.304   9.686   3.532 -0.1345  0.5109  0.4142
 2950THY    HP673738   9.333   9.738   3.702 -0.1325  0.9063 -0.8449
 2950THY    HP773739   9.284   9.569   3.669 -1.6383  0.1290  0.7536
 2950THY    CA373740   9.074   9.809   3.864 -0.4358 -0.1824 -0.0282
 2950THY    HA373741   9.121   9.905   3.841 -0.5382  0.0463  0.6959
 2950THY    CA473742   9.008   9.794   3.990 -0.2940  0.2042  0.0451
 2950THY    HA473743   9.009   9.875   4.062  1.7956 -0.6157  1.0269
 2950THY    CA573744   8.946   9.669   4.025  0.4209 -0.3541  0.7157
 2950THY    CM173745   8.872   9.667   4.153  0.1563  0.2651 -0.7059
 2950THY    HM173746   8.770   9.705   4.144 -0.0261 -0.3597 -1.4067
 2950THY    HM273747   8.889   9.564   4.187  4.6797  0.2547 -2.3390
 2950THY    HM373748   8.923   9.720   4.235  1.4285 -1.0984 -0.5593
 2950THY    CA673749   8.935   9.575   3.928  0.2281 -0.6219 -0.5057
 2950THY    HA673750   8.881   9.484   3.952  0.3707 -0.4546  0.5020
 2951THY      O73751   3.423   4.824   8.701 -0.2339  0.5288 -0.6220
 2951THY     HO73752   3.470   4.907   8.720 -0.3397  0.6764 -1.0007
 2951THY    CA173753   3.488   4.721   8.770 -0.4887 -0.0835  0.5237
 2951THY    CA273754   3.429   4.665   8.884  0.6506 -0.5933  0.6471
 2951THY    CP173755   3.292   4.717   8.928  0.3670 -0.3061  0.7362
 2951THY    HP173756   3.235   4.767   8.850  0.6942 -0.2556  0.5299
 2951THY    CP273757   3.195   4.606   8.967  0.6033 -0.4683 -0.1835
 2951THY    HP273758   3.097   4.645   8.996  0.3861  0.4113 -1.9716
 2951THY    HP373759   3.174   4.540   8.882  0.5688  1.0483 -1.3976
 2951THY    HP473760   3.241   4.548   9.048  1.2830 -2.4807 -1.9113
 2951THY    CP373761   3.297   4.825   9.038 -0.4450  0.4060 -0.0781
 2951THY    HP573762   3.348   4.911   8.994 -1.9382 -0.5810 -4.1309
 2951THY    HP673763   3.197   4.857   9.068 -0.9426 -0.6871 -0.4992
 2951THY    HP773764   3.347   4.783   9.126 -0.2576  0.9149  0.0603
 2951THY    CA373765   3.500   4.567   8.949 -0.8135 -0.2526 -0.5131
 2951THY    HA373766   3.453   4.510   9.029 -2.0083  0.8169 -0.4393
 2951THY    CA473767   3.616   4.516   8.888 -0.5100  0.2452 -0.1112
 2951THY    HA473768   3.662   4.426   8.928  0.5934  0.3470 -1.0818
 2951THY    CA573769   3.670   4.568   8.773 -0.4122  0.5889 -0.1115
 2951THY    CM173770   3.785   4.496   8.692 -0.3564  0.1724 -0.2717
 2951THY    HM173771   3.770   4.387   8.683 -1.4265  0.3044 -0.2158
 2951THY    HM273772   3.785   4.530   8.588 -0.0103 -2.7089 -1.3217
 2951THY    HM373773   3.882   4.523   8.735  0.4671 -0.7983 -1.4338
 2951THY    CA673774   3.607   4.676   8.713  0.3095 -0.3130  0.1457
 2951THY    HA673775   3.634   4.722   8.619 -1.9181  0.4535 -0.1734
 2952THY      O73776   2.275   3.326   8.679 -0.5562 -0.1998  0.0810
 2952THY     HO73777   2.203   3.262   8.692 -1.2531  0.8854  2.1177
 2952THY    CA173778   2.360   3.307   8.781 -0.5071 -0.4082  0.1121
 2952THY    CA273779   2.500   3.326   8.760  0.9664 -0.0740 -0.8765
 2952THY    CP173780   2.568   3.376   8.632 -0.3912  0.7560 -0.0692
 2952THY    HP173781   2.488   3.404   8.562 -0.1809  1.8589  0.1125
 2952THY    CP273782   2.658   3.508   8.648  0.2219 -0.2289 -0.2862
 2952THY    HP273783   2.716   3.515   8.741  0.3488 -0.3293 -0.3587
 2952THY    HP373784   2.738   3.512   8.574 -0.4376  0.0804 -0.9954
 2952THY    HP473785   2.588   3.592   8.642 -0.8166 -0.7927  2.3632
 2952THY    CP373786   2.667   3.270   8.572 -0.2809  0.1858  0.6020
 2952THY    HP573787   2.620   3.173   8.558  1.6939 -0.8632  0.9427
 2952THY    HP673788   2.714   3.303   8.479  0.7428  0.3817  1.1696
 2952THY    HP773789   2.750   3.271   8.644  2.9402  3.8884 -2.6179
 2952THY    CA373790   2.579   3.301   8.872  0.3331 -0.2358 -0.3292
 2952THY    HA373791   2.687   3.303   8.866  0.4125  0.2129  0.9843
 2952THY    CA473792   2.525   3.257   8.993 -0.2548 -0.2267 -0.3819
 2952THY    HA473793   2.586   3.235   9.080  0.5720  1.3158 -0.5275
 2952THY    CA573794   2.397   3.230   9.004  0.5029 -0.2322  0.7561
 2952THY    CM173795   2.345   3.179   9.137 -0.0074  0.3300 -0.3522
 2952THY    HM173796   2.309   3.077   9.119  0.3837 -0.3410  2.2869
 2952THY    HM273797   2.423   3.172   9.213 -0.9326  1.3121  0.7295
 2952THY    HM373798   2.261   3.238   9.175 -0.6848 -0.5864 -0.3861
 2952THY    CA673799   2.312   3.254   8.898  0.2117 -0.2811 -0.5610
 2952THY    HA673800   2.205   3.258   8.915  0.7058  2.4621  3.1130
 2953THY      O73801   9.668   8.323   1.438  0.3290 -0.2618 -0.5199
 2953THY     HO73802   9.611   8.324   1.516  2.3485 -0.3232  1.0254
 2953THY    CA173803   9.644   8.210   1.366  0.5922  0.0264 -0.3648
 2953THY    CA273804   9.744   8.150   1.283  0.9156  0.2001  0.2426
 2953THY    CP173805   9.875   8.217   1.259  0.1721 -0.4734  0.0010
 2953THY    HP173806   9.890   8.307   1.320 -0.8618 -0.5750  0.4317
 2953THY    CP273807  10.003   8.123   1.287  0.3936  0.1234 -0.2207
 2953THY    HP273808  10.000   8.029   1.231 -5.2961 -0.5929  0.7574
 2953THY    HP373809  10.090   8.185   1.261  0.7103 -0.6619 -1.0776
 2953THY    HP473810  10.005   8.111   1.396  3.1210  1.6232 -0.0099
 2953THY    CP373811   9.887   8.253   1.106 -0.3198  0.2566 -0.5847
 2953THY    HP573812   9.985   8.292   1.077  0.9009 -1.2548  1.2395
 2953THY    HP673813   9.858   8.174   1.036 -1.5610 -1.4558  1.6937
 2953THY    HP773814   9.817   8.336   1.092  0.4245  1.3744  1.7686
 2953THY    CA373815   9.721   8.020   1.232  0.0725  0.3356 -0.0859
 2953THY    HA373816   9.791   7.976   1.161  1.0637  0.3779  0.8443
 2953THY    CA473817   9.598   7.961   1.260 -0.0396  0.1423 -0.0431
 2953THY    HA473818   9.573   7.862   1.221  0.0359 -0.0546  0.3958
 2953THY    CA573819   9.502   8.026   1.337  0.3585  0.3093  0.1021
 2953THY    CM173820   9.391   7.937   1.379  0.6673  0.0287 -0.3947
 2953THY    HM173821   9.314   7.935   1.301  1.2573  0.9526 -1.0249
 2953THY    HM273822   9.416   7.831   1.391  0.1999  0.1338  2.0817
 2953THY    HM373823   9.349   7.979   1.472 -1.8810 -1.2662 -0.8619
 2953THY    CA673824   9.523   8.150   1.391 -0.2747  0.2557  0.1267
 2953THY    HA673825   9.441   8.194   1.448 -2.2023 -3.2237  0.2905
 2954THY      O73826   5.763   9.052   1.695 -0.6648 -0.1342  0.0383
 2954THY     HO73827   5.727   8.981   1.638  0.8257  1.5396 -3.2786
 2954THY    CA173828   5.673   9.087   1.792 -0.2423  0.3780  0.5605
 2954THY    CA273829   5.708   9.167   1.895 -0.0774  0.2739 -0.0496
 2954THY    CP173830   5.858   9.199   1.922 -0.5739  0.1006 -0.2267
 2954THY    HP173831   5.923   9.155   1.846 -2.3518 -1.9973 -0.6333
 2954THY    CP273832   5.879   9.349   1.934  0.1115  0.0143  0.4566
 2954THY    HP273833   5.985   9.365   1.910  0.2333 -0.8267  0.4126
 2954THY    HP373834   5.814   9.414   1.873 -1.2788 -0.5519  1.2755
 2954THY    HP473835   5.862   9.389   2.034  0.2245  0.6440  0.2316
 2954THY    CP373836   5.900   9.145   2.058  0.3168 -0.1493 -0.0737
 2954THY    HP573837   5.875   9.039   2.072  1.6523 -0.1983  2.4186
 2954THY    HP673838   6.008   9.159   2.071  0.0222  1.5375  0.7723
 2954THY    HP773839   5.847   9.196   2.139  0.3257  1.6854 -1.1764
 2954THY    CA373840   5.603   9.227   1.976 -0.4762 -0.6440  0.3156
 2954THY    HA373841   5.632   9.303   2.047  1.7881  0.5729 -1.7311
 2954THY    CA473842   5.470   9.199   1.941  0.3411 -0.1430 -0.3848
 2954THY    HA473843   5.389   9.241   2.000  0.8099  0.5991 -0.2511
 2954THY    CA573844   5.439   9.098   1.845  0.3341  0.8146 -0.1184
 2954THY    CM173845   5.297   9.049   1.825 -0.4706  0.3726  0.1077
 2954THY    HM173846   5.240   9.091   1.909 -1.5110  0.1875 -0.5008
 2954THY    HM273847   5.264   9.075   1.724 -0.9634  0.7249  0.3576
 2954THY    HM373848   5.295   8.940   1.835 -0.3029  0.2588 -0.9940
 2954THY    CA673849   5.542   9.046   1.772 -0.3820  0.4556 -0.4578
 2954THY    HA673850   5.513   8.972   1.698 -1.9240  0.7153 -0.1643
 2955THY      O73851   1.925   5.319   6.653  0.6157 -0.3478 -0.3642
 2955THY     HO73852   1.894   5.251   6.716 -1.8419 -1.0453 -2.1505
 2955THY    CA173853   1.815   5.394   6.641 -0.1477  0.0492 -0.1504
 2955THY    CA273854   1.797   5.479   6.526  0.3537  0.3641 -0.0896
 2955THY    CP173855   1.904   5.481   6.414 -0.2391 -0.4350  0.8295
 2955THY    HP173856   2.004   5.456   6.450 -0.0462  0.5984  1.0316
 2955THY    CP273857   1.861   5.378   6.304 -0.1887 -0.2087  0.0502
 2955THY    HP273858   1.764   5.399   6.257 -1.0266 -1.8128  0.9881
 2955THY    HP373859   1.942   5.373   6.229 -0.6626  0.8628 -0.5659
 2955THY    HP473860   1.857   5.283   6.357  1.7366 -1.8815 -2.5482
 2955THY    CP373861   1.912   5.615   6.351 -0.1787 -0.2106 -0.2157
 2955THY    HP573862   1.828   5.629   6.283 -0.2618  1.2081  0.1514
 2955THY    HP673863   1.933   5.684   6.433 -0.1593 -1.4451  0.8467
 2955THY    HP773864   2.001   5.610   6.286  1.0385  0.2778  1.3456
 2955THY    CA373865   1.674   5.553   6.521 -0.2986 -0.6488 -0.4341
 2955THY    HA373866   1.667   5.614   6.431 -1.1837  0.6999  0.5211
 2955THY    CA473867   1.585   5.550   6.622 -0.2153  0.0758 -0.4053
 2955THY    HA473868   1.502   5.619   6.620  0.1223  0.5411  0.9153
 2955THY    CA573869   1.608   5.464   6.735 -0.1756  0.2226 -0.5740
 2955THY    CM173870   1.525   5.465   6.866  0.7044 -0.3318  0.1329
 2955THY    HM173871   1.585   5.482   6.956  0.0087 -1.1957  0.7770
 2955THY    HM273872   1.440   5.534   6.858 -0.2665 -1.3132  1.5436
 2955THY    HM373873   1.480   5.367   6.888  1.3301 -0.0752  2.8637
 2955THY    CA673874   1.726   5.389   6.744  0.6457 -0.4388 -0.6126
 2955THY    HA673875   1.746   5.337   6.837 -0.1738 -1.0911 -0.7873
 2956THY      O73876   9.942   7.590   0.481 -1.2490 -0.0754  0.1173
 2956THY     HO73877   9.914   7.522   0.417 -1.5474 -0.2059  0.3835
 2956THY    CA173878   9.933   7.714   0.422  0.6576  0.2599  0.3481
 2956THY    CA273879   9.990   7.830   0.481  0.9696 -0.6546  0.0271
 2956THY    CP173880  10.058   7.820   0.617 -1.1579  0.8133 -0.0415
 2956THY    HP173881   9.999   7.753   0.680 -0.9799  0.1533 -0.5681
 2956THY    CP273882  10.186   7.740   0.603 -0.2324  0.2077 -0.0831
 2956THY    HP273883  10.168   7.635   0.580 -0.3524 -0.3032  2.0977
 2956THY    HP373884  10.249   7.770   0.519 -1.0171  2.1868 -0.0249
 2956THY    HP473885  10.238   7.740   0.700 -0.9875  0.5791  0.3313
 2956THY    CP373886  10.075   7.940   0.700 -0.5077  0.2037 -0.5372
 2956THY    HP573887  10.073   7.919   0.807 -1.5538  0.5980 -0.4689
 2956THY    HP673888  10.169   7.990   0.674 -1.3936  1.8277 -0.7676
 2956THY    HP773889   9.987   8.003   0.682 -2.1303 -1.7803  0.0834
 2956THY    CA373890   9.956   7.949   0.416 -0.2838 -0.3673 -0.1434
 2956THY    HA373891   9.990   8.042   0.460  0.3491 -0.2880 -0.7819
 2956THY    CA473892   9.874   7.955   0.302 -0.1364  0.0539 -0.1211
 2956THY    HA473893   9.854   8.049   0.252  0.7264  0.2064 -0.2069
 2956THY    CA573894   9.821   7.842   0.245  0.2406 -0.1375 -0.5440
 2956THY    CM173895   9.735   7.850   0.125  0.1995 -0.3924 -0.0939
 2956THY    HM173896   9.806   7.864   0.043 -0.6248  3.2114 -0.3693
 2956THY    HM273897   9.677   7.758   0.107 -1.9673  0.7543  0.6703
 2956THY    HM373898   9.673   7.941   0.129  0.1051 -0.3261 -2.2086
 2956THY    CA673899   9.852   7.722   0.306  0.2635 -0.2786 -1.1278
 2956THY    HA673900   9.805   7.632   0.268 -0.5562 -0.1431 -0.4615
 2957THY      O73901   0.340   1.542   1.062 -0.1458  0.1518 -0.2905
 2957THY     HO73902   0.356   1.636   1.077 -2.3015  0.3809  0.9767
 2957THY    CA173903   0.429   1.468   1.131  0.2362 -0.1311 -0.2930
 2957THY    CA273904   0.497   1.353   1.084  0.6092 -0.1997  0.1420
 2957THY    CP173905   0.486   1.316   0.931 -0.2776  0.6319  0.0648
 2957THY    HP173906   0.469   1.405   0.869  1.2960  0.9742  0.0930
 2957THY    CP273907   0.619   1.260   0.886 -0.1061 -0.1782  0.4086
 2957THY    HP273908   0.706   1.320   0.915 -0.4052  1.2415 -1.4890
 2957THY    HP373909   0.633   1.157   0.921  0.0168  0.2068  1.5485
 2957THY    HP473910   0.623   1.258   0.777 -1.4913  0.4198  0.3270
 2957THY    CP373911   0.378   1.218   0.891 -0.8045 -0.1758 -0.3187
 2957THY    HP573912   0.364   1.200   0.784  1.3878  0.2114 -0.7009
 2957THY    HP673913   0.393   1.117   0.932  0.0412  0.3954  0.8256
 2957THY    HP773914   0.277   1.246   0.925 -1.2909 -0.8074 -1.2005
 2957THY    CA373915   0.551   1.264   1.176 -0.4143  0.8116 -0.1039
 2957THY    HA373916   0.593   1.166   1.156 -2.0508 -0.5599  2.6010
 2957THY    CA473917   0.572   1.306   1.309  0.1132 -0.0720  0.1173
 2957THY    HA473918   0.628   1.245   1.378  3.3551  1.0567 -1.3306
 2957THY    CA573919   0.520   1.426   1.350  0.0341 -0.5021  0.3184
 2957THY    CM173920   0.532   1.467   1.494 -0.2561  0.4104  0.2768
 2957THY    HM173921   0.621   1.527   1.515 -1.0221  2.5489 -2.1367
 2957THY    HM273922   0.443   1.524   1.523  0.0319  1.3774 -0.6705
 2957THY    HM373923   0.514   1.390   1.570 -1.4083  0.9756  0.5945
 2957THY    CA673924   0.452   1.509   1.258  0.1149 -0.3307  0.5282
 2957THY    HA673925   0.405   1.600   1.294  0.6628 -0.4380  1.5712
 2958THY      O73926   8.055   7.774   4.048 -0.1250  0.1532 -0.0561
 2958THY     HO73927   8.036   7.855   3.998  1.9015  0.2192 -0.7698
 2958THY    CA173928   8.016   7.667   3.973 -0.1217 -0.3442 -0.0241
 2958THY    CA273929   8.080   7.545   3.966  0.6296 -0.2296 -0.1281
 2958THY    CP173930   8.214   7.524   4.042 -0.2278  0.0345  0.1946
 2958THY    HP173931   8.248   7.622   4.079  0.4607 -0.3489  0.6143
 2958THY    CP273932   8.201   7.435   4.166 -0.0156 -0.0832  0.7624
 2958THY    HP273933   8.299   7.428   4.215 -0.2992 -0.6688  1.2659
 2958THY    HP373934   8.129   7.482   4.234  0.3478  2.2863 -0.3881
 2958THY    HP473935   8.162   7.334   4.146 -0.6707  0.3926 -0.4405
 2958THY    CP373936   8.330   7.480   3.952 -0.1774 -0.4836  0.3688
 2958THY    HP573937   8.426   7.486   4.005 -0.0670  1.2278  0.0306
 2958THY    HP673938   8.316   7.379   3.914 -1.0425  0.3306 -1.5960
 2958THY    HP773939   8.332   7.534   3.856  1.7860  1.2508  1.2894
 2958THY    CA373940   8.029   7.443   3.886  0.1998  0.4563  0.1865
 2958THY    HA373941   8.083   7.349   3.887  1.0917  0.9537  0.5426
 2958THY    CA473942   7.902   7.460   3.819 -0.0045 -0.0837 -0.2842
 2958THY    HA473943   7.854   7.379   3.764 -0.4043 -1.7037  2.2684
 2958THY    CA573944   7.844   7.583   3.826  0.1140 -0.4219 -0.1057
 2958THY    CM173945   7.714   7.610   3.756 -1.1551 -0.9284 -0.1929
 2958THY    HM173946   7.743   7.620   3.650 -0.5548  1.3406  0.1332
 2958THY    HM273947   7.646   7.525   3.762 -1.3950 -0.6781  0.7038
 2958THY    HM373948   7.660   7.697   3.793 -2.7990 -2.2562  0.6395
 2958THY    CA673949   7.899   7.692   3.898  0.5870  0.7309 -0.4054
 2958THY    HA673950   7.859   7.792   3.891 -1.2929  0.0063 -0.6012
 2959THY      O73951   6.782   3.835   8.153  0.0459 -0.0585  0.0091
 2959THY     HO73952   6.703   3.842   8.098 -0.2226 -1.4920  0.1860
 2959THY    CA173953   6.879   3.914   8.106  0.4970 -0.1872  0.1264
 2959THY    CA273954   7.004   3.937   8.166  0.2490  0.5461 -0.5244
 2959THY    CP173955   7.051   3.854   8.290 -0.1758  0.3289  0.7604
 2959THY    HP173956   6.963   3.812   8.341 -0.4221 -0.9472 -0.6494
 2959THY    CP273957   7.158   3.750   8.256 -0.1877 -0.4751 -0.2332
 2959THY    HP273958   7.238   3.813   8.214 -0.8799  0.5854 -0.0043
 2959THY    HP373959   7.194   3.695   8.343 -1.6480 -0.7824  0.2160
 2959THY    HP473960   7.114   3.677   8.187  0.2318 -1.0064  0.0610
 2959THY    CP373961   7.100   3.946   8.400  0.4263  0.2854 -0.3499
 2959THY    HP573962   7.040   4.037   8.414 -2.0982 -1.4089  0.7693
 2959THY    HP673963   7.103   3.909   8.503 -0.9555  0.8253 -0.0902
 2959THY    HP773964   7.203   3.973   8.375  0.3237  0.1271 -0.9538
 2959THY    CA373965   7.091   4.029   8.115  0.0199  0.1046 -0.1180
 2959THY    HA373966   7.191   4.054   8.149  0.1998 -2.8405  1.9079
 2959THY    CA473967   7.055   4.096   7.995  0.2970 -0.1392  0.1451
 2959THY    HA473968   7.133   4.155   7.947 -0.5348  1.5715  0.7985
 2959THY    CA573969   6.928   4.090   7.947  0.2330 -0.2754 -0.5797
 2959THY    CM173970   6.900   4.161   7.816  0.4862 -0.8250 -0.7953
 2959THY    HM173971   6.979   4.137   7.744  1.3340  1.7628 -0.8193
 2959THY    HM273972   6.802   4.127   7.780  1.0249 -2.3361 -0.9279
 2959THY    HM373973   6.905   4.270   7.827  1.0065 -0.7664 -1.5613
 2959THY    CA673974   6.833   4.004   8.008 -0.1914 -0.1918  0.4196
 2959THY    HA673975   6.733   3.986   7.968  0.1507 -3.4920  0.7996
 2960THY      O73976   1.063   0.590   5.445 -0.6716  0.0168  0.1980
 2960THY     HO73977   1.073   0.530   5.522  1.1522 -2.4087 -1.7656
 2960THY    CA173978   1.114   0.712   5.477  0.6935  0.2715 -0.1158
 2960THY    CA273979   1.116   0.825   5.395  0.1052  0.1710 -0.3524
 2960THY    CP173980   1.050   0.816   5.262 -0.1517  0.6220  0.1457
 2960THY    HP173981   0.956   0.763   5.278  0.2570 -0.1084  0.1820
 2960THY    CP273982   0.998   0.948   5.191 -0.2793  0.0580  0.1563
 2960THY    HP273983   1.084   1.005   5.158  0.0545  0.1779  1.1867
 2960THY    HP373984   0.949   0.906   5.102  2.7979 -1.7099 -0.8561
 2960THY    HP473985   0.929   1.012   5.248 -0.1169 -1.6278  2.3791
 2960THY    CP373986   1.142   0.739   5.161  0.1229 -0.0883  0.3015
 2960THY    HP573987   1.094   0.748   5.063  0.8614 -0.9614 -0.1470
 2960THY    HP673988   1.233   0.798   5.144 -2.1235  3.5743 -0.1954
 2960THY    HP773989   1.143   0.632   5.183  0.5229  0.0184  0.8127
 2960THY    CA373990   1.185   0.940   5.442 -0.1193 -0.3064 -0.2861
 2960THY    HA373991   1.191   1.036   5.390  0.7448  0.1872  0.6812
 2960THY    CA473992   1.230   0.944   5.577 -0.3999 -0.3163  0.3079
 2960THY    HA473993   1.280   1.032   5.618 -0.5932 -0.2073  0.3117
 2960THY    CA573994   1.224   0.829   5.653 -0.4206 -0.2267 -1.0268
 2960THY    CM173995   1.281   0.845   5.795 -0.3988  0.0540  0.5478
 2960THY    HM173996   1.351   0.929   5.802 -1.7010  1.2614 -0.3056
 2960THY    HM273997   1.208   0.855   5.876  0.4114  0.1208  1.2770
 2960THY    HM373998   1.322   0.751   5.832 -0.6283  0.6422  2.3693
 2960THY    CA673999   1.177   0.708   5.600  0.2736 -0.1190  0.6814
 2960THY    HA674000   1.189   0.615   5.653 -0.8212  0.5179  2.1105
 2961THY      O74001   9.549   6.982   6.218  0.1440  0.2472  0.7413
 2961THY     HO74002   9.619   7.048   6.230 -0.7544  2.3143 -3.2855
 2961THY    CA174003   9.604   6.865   6.164  0.4698 -0.5012 -0.1343
 2961THY    CA274004   9.552   6.785   6.063  0.2870  0.4005 -0.4964
 2961THY    CP174005   9.431   6.833   5.985  0.3827  0.3011 -0.5264
 2961THY    HP174006   9.369   6.891   6.055 -1.5138  0.6219 -2.3511
 2961THY    CP274007   9.452   6.917   5.864 -0.3662 -0.1070  0.1128
 2961THY    HP274008   9.535   6.878   5.805  0.3671  1.0195  0.3548
 2961THY    HP374009   9.360   6.927   5.804 -0.3384 -1.7532 -0.2533
 2961THY    HP474010   9.482   7.018   5.894 -2.0432  0.6568 -0.6009
 2961THY    CP374011   9.346   6.715   5.933  0.6444 -0.3088 -0.0813
 2961THY    HP574012   9.306   6.653   6.014  1.7121 -0.1151  0.6062
 2961THY    HP674013   9.251   6.748   5.889  0.5374  1.2821  1.2354
 2961THY    HP774014   9.395   6.654   5.857  0.7916  1.3118 -1.3452
 2961THY    CA374015   9.628   6.674   6.017 -0.1575  1.1791  0.3894
 2961THY    HA374016   9.593   6.604   5.941  1.8316 -1.3181  1.6096
 2961THY    CA474017   9.741   6.635   6.090 -0.4725 -0.1991 -0.6879
 2961THY    HA474018   9.785   6.537   6.074 -0.5956 -1.1238  3.5342
 2961THY    CA574019   9.792   6.715   6.191  0.0085  0.1367  0.0680
 2961THY    CM174020   9.903   6.664   6.273 -0.2836 -0.4017 -0.5439
 2961THY    HM174021   9.991   6.729   6.267  0.5885 -1.2783  1.7375
 2961THY    HM274022   9.869   6.673   6.376  2.6702  0.6136  0.4409
 2961THY    HM374023   9.913   6.556   6.257 -1.2988 -0.6861  0.6099
 2961THY    CA674024   9.722   6.828   6.229 -0.4937 -0.0593  0.0687
 2961THY    HA674025   9.766   6.894   6.303  1.1357  0.3006 -1.1696
 2962THY      O74026   1.230   8.547   3.403 -0.3505 -0.7274  0.1767
 2962THY     HO74027   1.138   8.561   3.374  0.3660  1.8443 -1.2427
 2962THY    CA174028   1.283   8.651   3.341 -1.1458 -0.4986  0.0901
 2962THY    CA274029   1.407   8.643   3.278 -0.3981 -0.5004  0.1133
 2962THY    CP174030   1.501   8.525   3.291 -0.7307  0.2432  0.1933
 2962THY    HP174031   1.465   8.470   3.379 -2.6897 -2.2144 -1.9968
 2962THY    CP274032   1.500   8.416   3.178 -0.1034 -0.4070 -0.3193
 2962THY    HP274033   1.520   8.473   3.086 -2.5837  2.9447  1.0060
 2962THY    HP374034   1.568   8.331   3.191  0.1169 -0.6138 -2.4489
 2962THY    HP474035   1.400   8.373   3.166  0.0422 -0.9959  0.5025
 2962THY    CP374036   1.646   8.558   3.331 -0.3757 -0.7682  0.0396
 2962THY    HP574037   1.719   8.554   3.249  0.9000  4.1315  0.5724
 2962THY    HP674038   1.660   8.654   3.383  1.7918 -0.8083 -0.3589
 2962THY    HP774039   1.689   8.493   3.408  1.0129 -2.0440 -1.7094
 2962THY    CA374040   1.452   8.754   3.201 -0.1691 -0.3305  0.2031
 2962THY    HA374041   1.546   8.745   3.148  0.4476 -0.7022  1.3181
 2962THY    CA474042   1.366   8.864   3.180  0.0549  0.4274  0.0385
 2962THY    HA474043   1.391   8.954   3.124 -2.4777  0.4782 -1.1436
 2962THY    CA574044   1.242   8.868   3.246  0.4280  0.0650 -0.9042
 2962THY    CM174045   1.155   8.979   3.239 -0.0959 -0.0841  0.6893
 2962THY    HM174046   1.130   9.012   3.340 -1.8339  1.1620 -0.0870
 2962THY    HM274047   1.197   9.055   3.172 -2.0891 -0.7099 -1.4039
 2962THY    HM374048   1.068   8.934   3.190  0.6751 -1.4243  0.5080
 2962THY    CA674049   1.202   8.762   3.326 -0.2380 -0.1350  0.2467
 2962THY    HA674050   1.102   8.761   3.369  0.2816 -1.7625  1.5150
 2963THY      O74051   2.295   9.596   4.790  0.2171  0.2870  0.3895
 2963THY     HO74052   2.317   9.625   4.700  0.2828  1.3041  0.7294
 2963THY    CA174053   2.265   9.463   4.771 -0.3985  0.5556 -0.4584
 2963THY    CA274054   2.320   9.365   4.855 -0.2617 -0.6567  1.0092
 2963THY    CP174055   2.408   9.401   4.980 -0.0624 -0.2086  0.0847
 2963THY    HP174056   2.374   9.503   5.002  0.3752 -0.2414  0.9716
 2963THY    CP274057   2.367   9.309   5.097  0.1572 -0.4529  0.4918
 2963THY    HP274058   2.257   9.305   5.096  0.1169  0.1964 -0.9859
 2963THY    HP374059   2.402   9.206   5.089  0.4424 -0.4674  1.7863
 2963THY    HP474060   2.398   9.354   5.192  0.5516  1.2662 -0.3963
 2963THY    CP374061   2.552   9.392   4.956 -0.5584  0.2502 -0.3962
 2963THY    HP574062   2.592   9.293   4.933  2.0535  1.6309 -2.4544
 2963THY    HP674063   2.573   9.454   4.868 -0.1369  1.0011  0.2156
 2963THY    HP774064   2.615   9.425   5.040 -0.8569  2.1413 -0.8579
 2963THY    CA374065   2.299   9.232   4.826  0.1103 -0.1456  0.2725
 2963THY    HA374066   2.349   9.153   4.880  1.1667  0.3159  0.0113
 2963THY    CA474067   2.218   9.197   4.715 -0.0420  0.3158 -0.6260
 2963THY    HA474068   2.189   9.093   4.703  0.3093 -0.1554  2.1298
 2963THY    CA574069   2.163   9.293   4.633  0.2824  0.3154  0.0792
 2963THY    CM174070   2.058   9.254   4.528  0.1866 -0.1623  0.1991
 2963THY    HM174071   2.028   9.343   4.472  2.9551  0.5889 -0.2317
 2963THY    HM274072   2.100   9.185   4.453 -2.6357  0.0818 -1.7626
 2963THY    HM374073   1.972   9.208   4.578 -0.1179  0.0856 -0.0948
 2963THY    CA674074   2.197   9.425   4.655 -0.3557 -0.3477 -0.2452
 2963THY    HA674075   2.166   9.505   4.588  0.9661 -1.2682 -2.0293
 2964THY      O74076   0.371   0.489   1.445 -0.3558  0.2005  0.1457
 2964THY     HO74077   0.339   0.408   1.489 -1.5790  0.3528 -0.4239
 2964THY    CA174078   0.268   0.531   1.363 -0.6543 -0.3980  0.2229
 2964THY    CA274079   0.236   0.668   1.324 -0.0010  0.4985 -0.4672
 2964THY    CP174080   0.320   0.770   1.379 -0.5616  0.1995  0.0818
 2964THY    HP174081   0.415   0.718   1.395 -0.6492  0.0942  0.2681
 2964THY    CP274082   0.325   0.893   1.302 -0.4649  0.3713  0.3332
 2964THY    HP274083   0.230   0.947   1.291  0.3833  1.3441 -3.9930
 2964THY    HP374084   0.404   0.961   1.336  1.0053 -1.7072  1.2242
 2964THY    HP474085   0.354   0.880   1.197  1.6299 -2.5748  1.1632
 2964THY    CP374086   0.260   0.799   1.521  0.1132  0.2513 -0.2774
 2964THY    HP574087   0.154   0.824   1.519 -0.0333  0.5502  3.2953
 2964THY    HP674088   0.279   0.724   1.599 -0.1782  0.3293 -0.1286
 2964THY    HP774089   0.306   0.884   1.573 -0.5721 -0.1828  1.0958
 2964THY    CA374090   0.130   0.682   1.230  0.2213 -0.1523  1.3013
 2964THY    HA374091   0.109   0.784   1.200  0.5434 -0.5949 -0.5126
 2964THY    CA474092   0.060   0.564   1.182  0.3293 -0.1342  0.3510
 2964THY    HA474093  -0.001   0.577   1.094  1.2743  4.6063  0.1376
 2964THY    CA574094   0.086   0.441   1.225  0.6870  0.3624  0.9911
 2964THY    CM174095   0.000   0.322   1.177  0.2074 -0.2929  0.4326
 2964THY    HM174096  -0.026   0.254   1.259  2.9424  0.2434  1.8799
 2964THY    HM274097  -0.090   0.378   1.149  0.5970 -0.3892 -1.1143
 2964THY    HM374098   0.042   0.277   1.086  1.3332  1.5278 -0.0048
 2964THY    CA674099   0.193   0.425   1.312  0.3177  0.6963  0.2988
 2964THY    HA674100   0.217   0.326   1.348  2.2091  1.4280  1.2391
 2965THY      O74101   5.317   3.464   1.578  0.0552  0.2161 -0.0434
 2965THY     HO74102   5.271   3.429   1.656 -1.4000  1.6031 -0.2392
 2965THY    CA174103   5.389   3.354   1.547  0.2783  0.2235  0.2312
 2965THY    CA274104   5.499   3.363   1.455 -0.0940 -0.2455  0.7116
 2965THY    CP174105   5.533   3.488   1.381 -0.5733  0.3192  0.0052
 2965THY    HP174106   5.456   3.563   1.400 -0.0466  0.6889  0.7125
 2965THY    CP274107   5.661   3.539   1.443  0.5550  0.0790 -0.3043
 2965THY    HP274108   5.746   3.470   1.441  1.1703  0.8083  0.2338
 2965THY    HP374109   5.699   3.629   1.393 -0.2529 -0.7497 -2.5663
 2965THY    HP474110   5.633   3.582   1.540 -1.0453  1.2992 -1.2616
 2965THY    CP374111   5.544   3.482   1.233  0.9580  0.3478  0.6531
 2965THY    HP574112   5.577   3.574   1.185  0.8049 -1.5149 -3.4591
 2965THY    HP674113   5.621   3.415   1.194  0.7041  0.6874 -0.4609
 2965THY    HP774114   5.450   3.442   1.193  1.9406 -0.1068 -1.3318
 2965THY    CA374115   5.574   3.249   1.436 -0.5464 -0.6937  0.2587
 2965THY    HA374116   5.655   3.250   1.364 -1.3359  0.6298 -0.6487
 2965THY    CA474117   5.554   3.134   1.515 -0.5945  0.0963  0.6341
 2965THY    HA474118   5.611   3.044   1.499 -0.1663  0.7304 -1.7695
 2965THY    CA574119   5.450   3.129   1.604 -0.5951  0.4940  0.0042
 2965THY    CM174120   5.422   2.998   1.675 -0.3630  0.0848 -0.0588
 2965THY    HM174121   5.406   2.916   1.604  1.6264 -1.2210  0.8921
 2965THY    HM274122   5.512   2.957   1.722 -0.6296 -1.5485 -0.9125
 2965THY    HM374123   5.336   2.999   1.742 -1.4478  1.9913 -1.3722
 2965THY    CA674124   5.368   3.242   1.622  0.3256  0.5752 -0.3786
 2965THY    HA674125   5.287   3.234   1.693 -0.3403  3.6568 -0.6378
 2966THY      O74126   4.553   7.083   5.602 -0.4415 -0.0745 -0.4250
 2966THY     HO74127   4.625   7.033   5.645  0.2380  2.5806  1.8726
 2966THY    CA174128   4.492   7.000   5.522 -0.3823 -1.2588  0.1767
 2966THY    CA274129   4.502   7.022   5.386 -0.6110  0.2649  1.1217
 2966THY    CP174130   4.584   7.133   5.332 -1.1267 -0.1466  0.0589
 2966THY    HP174131   4.636   7.189   5.411 -0.1572  2.0973 -2.0235
 2966THY    CP274132   4.696   7.088   5.234  0.0322 -0.4414 -0.4966
 2966THY    HP274133   4.783   7.153   5.250  1.4900 -2.6077  0.7348
 2966THY    HP374134   4.728   6.987   5.260  3.4520 -0.2937 -3.4508
 2966THY    HP474135   4.645   7.081   5.137 -0.2089 -0.8930 -0.3412
 2966THY    CP374136   4.505   7.231   5.251  0.0944  0.2413 -0.0716
 2966THY    HP574137   4.573   7.288   5.186  2.3186 -2.2045 -0.0326
 2966THY    HP674138   4.441   7.180   5.178 -0.7367 -0.0546  0.8414
 2966THY    HP774139   4.437   7.289   5.314 -1.1479 -1.0422 -0.1835
 2966THY    CA374140   4.420   6.937   5.301 -0.2973 -0.6067 -0.5915
 2966THY    HA374141   4.418   6.958   5.194  0.3968 -0.6816 -0.6225
 2966THY    CA474142   4.354   6.826   5.361  0.8635 -0.1480  0.0759
 2966THY    HA474143   4.293   6.767   5.293  0.0519  1.8391 -1.0065
 2966THY    CA574144   4.352   6.802   5.495  0.6191 -0.3681 -0.2435
 2966THY    CM174145   4.262   6.697   5.544 -0.3407 -0.1590 -0.9454
 2966THY    HM174146   4.156   6.719   5.528 -0.4365 -0.4950 -0.7769
 2966THY    HM274147   4.278   6.602   5.492 -1.7730 -0.7210 -0.4163
 2966THY    HM374148   4.286   6.695   5.651  1.9245 -1.7476 -1.4175
 2966THY    CA674149   4.419   6.895   5.581  0.3058 -0.0134  1.3207
 2966THY    HA674150   4.407   6.899   5.689 -0.8929 -0.2514  1.2098
 2967THY      O74151   5.151   9.508   3.670  0.1943  0.3275 -0.2071
 2967THY     HO74152   5.128   9.416   3.691 -3.7836  1.2990  0.4023
 2967THY    CA174153   5.093   9.579   3.772  0.4017 -0.5128  0.5521
 2967THY    CA274154   5.111   9.715   3.784  0.3354 -0.2855 -0.4273
 2967THY    CP174155   5.212   9.776   3.686  0.6001  0.1122  0.4336
 2967THY    HP174156   5.292   9.701   3.676  0.4286 -0.0771  0.4542
 2967THY    CP274157   5.154   9.810   3.543  0.1124  0.1573 -0.2839
 2967THY    HP274158   5.126   9.718   3.490  1.5038 -0.3558 -0.1662
 2967THY    HP374159   5.059   9.863   3.557 -0.7986 -1.6184  0.6606
 2967THY    HP474160   5.228   9.857   3.476  0.9729 -0.0505  0.4907
 2967THY    CP374161   5.287   9.897   3.735 -0.3755 -0.4343 -0.1038
 2967THY    HP574162   5.363   9.936   3.666 -0.2234  0.0033  0.3037
 2967THY    HP674163   5.220   9.980   3.760 -0.8540 -0.9024  0.2072
 2967THY    HP774164   5.338   9.868   3.827  0.3133 -0.1903 -0.4010
 2967THY    CA374165   5.041   9.788   3.880  0.3180 -0.0693  0.0621
 2967THY    HA374166   5.070   9.892   3.893  0.9202 -0.2810  0.4353
 2967THY    CA474167   4.943   9.727   3.956  0.2934  0.0698  0.2413
 2967THY    HA474168   4.875   9.785   4.018  2.2563  1.8326  0.8696
 2967THY    CA574169   4.931   9.587   3.953 -0.3141  0.4455 -0.1139
 2967THY    CM174170   4.832   9.530   4.045 -0.4841 -0.0604 -0.3458
 2967THY    HM174171   4.746   9.597   4.058 -1.1842 -0.5107 -2.2336
 2967THY    HM274172   4.787   9.435   4.011 -1.8344  0.9296 -1.4568
 2967THY    HM374173   4.871   9.503   4.144  1.4487 -0.3265 -1.1483
 2967THY    CA674174   5.009   9.509   3.861 -0.6620 -0.2094  0.2538
 2967THY    HA674175   4.992   9.402   3.854 -1.0175 -0.1488  0.1597
 2968THY      O74176   6.030   6.614   3.446  0.3727  0.1373  0.4659
 2968THY     HO74177   6.056   6.532   3.492  1.5437  0.0126 -0.3854
 2968THY    CA174178   6.149   6.681   3.424  0.2536 -0.1270  0.3323
 2968THY    CA274179   6.154   6.796   3.349  0.2615 -0.3442  0.6145
 2968THY    CP174180   6.024   6.860   3.300 -0.0366  0.3324  0.3978
 2968THY    HP174181   5.941   6.809   3.350 -1.4985 -0.2424 -2.4512
 2968THY    CP274182   6.013   7.007   3.340 -0.1529  0.4157 -0.1492
 2968THY    HP274183   5.911   7.044   3.325 -0.3844 -0.7128 -1.6292
 2968THY    HP374184   6.049   7.022   3.443  1.3360 -0.2568 -0.5467
 2968THY    HP474185   6.086   7.071   3.290 -0.6160  0.3395 -0.9334
 2968THY    CP374186   6.018   6.850   3.147  0.3921 -0.3496  0.5997
 2968THY    HP574187   5.951   6.932   3.116 -0.0756 -1.2363 -0.8085
 2968THY    HP674188   6.101   6.880   3.083 -2.3646  0.3232 -3.0145
 2968THY    HP774189   5.976   6.754   3.115 -0.8855  0.7227 -1.1413
 2968THY    CA374190   6.276   6.856   3.305 -0.0412 -0.5147 -1.0650
 2968THY    HA374191   6.278   6.943   3.240 -1.7439 -1.0970 -1.9776
 2968THY    CA474192   6.391   6.780   3.330  0.1921  0.0222 -0.1984
 2968THY    HA474193   6.488   6.812   3.291  0.2793 -0.7920 -0.6954
 2968THY    CA574194   6.386   6.658   3.399  0.3064  0.1543 -0.0332
 2968THY    CM174195   6.512   6.571   3.410  0.1687  0.2148  0.3662
 2968THY    HM174196   6.558   6.570   3.310 -1.1447  0.0034 -0.2524
 2968THY    HM274197   6.578   6.615   3.485  0.8099 -1.9934  1.2010
 2968THY    HM374198   6.494   6.464   3.429  3.0290 -0.6865 -1.3421
 2968THY    CA674199   6.266   6.610   3.448 -0.1367 -0.6637 -0.4547
 2968THY    HA674200   6.273   6.524   3.513  1.8237 -0.5979 -0.4907
 2969THY      O74201   1.167   3.997   3.134  0.1415  0.8207  0.3232
 2969THY     HO74202   1.236   3.962   3.194  0.4938 -1.0470 -1.0683
 2969THY    CA174203   1.061   4.001   3.216 -0.1901 -0.4735  0.2979
 2969THY    CA274204   0.937   4.050   3.174  0.0237 -0.3421 -0.0879
 2969THY    CP174205   0.921   4.109   3.038  1.3335 -0.3204  0.4263
 2969THY    HP174206   1.018   4.150   3.009  1.0773  0.4510  0.6350
 2969THY    CP274207   0.864   4.003   2.946 -0.3003 -0.1679 -0.4193
 2969THY    HP274208   0.926   3.915   2.928 -0.8780 -0.5426 -0.6019
 2969THY    HP374209   0.775   3.954   2.988  1.0688 -2.0063  0.4386
 2969THY    HP474210   0.820   4.047   2.855 -1.2135  0.3099  0.2332
 2969THY    CP374211   0.829   4.235   3.029  0.3615  0.0083  0.2162
 2969THY    HP574212   0.869   4.307   3.100  1.8951 -0.9815  0.3961
 2969THY    HP674213   0.836   4.270   2.925  3.3215  1.0713  0.6950
 2969THY    HP774214   0.726   4.205   3.052  0.5227 -0.3674  0.4399
 2969THY    CA374215   0.822   4.029   3.256  0.3760  0.4576  0.5882
 2969THY    HA374216   0.723   4.064   3.229 -0.7728 -1.7247  1.6717
 2969THY    CA474217   0.839   3.966   3.383  0.0200 -0.0616 -0.2677
 2969THY    HA474218   0.757   3.923   3.440 -1.0501  0.4645 -1.3766
 2969THY    CA574219   0.965   3.935   3.433 -0.0580 -0.5968  0.9329
 2969THY    CM174220   0.985   3.845   3.553  0.4595 -0.6519 -0.0715
 2969THY    HM174221   0.982   3.897   3.649 -0.7808 -0.6138 -0.1206
 2969THY    HM274222   0.897   3.780   3.548 -2.1534  2.7280 -2.4036
 2969THY    HM374223   1.081   3.793   3.540  0.0531 -1.7528  1.1553
 2969THY    CA674224   1.078   3.947   3.346  0.3998 -0.3467 -0.2548
 2969THY    HA674225   1.174   3.903   3.368 -0.5643 -1.8015  1.2940
 2970THY      O74226   9.943   7.925   1.899 -0.2194 -0.4353 -0.4672
 2970THY     HO74227  10.030   7.883   1.903 -0.4731 -0.8606  1.6881
 2970THY    CA174228   9.910   7.909   1.774  0.4498 -1.2500 -0.1046
 2970THY    CA274229   9.793   7.972   1.714 -0.3530  0.8432 -0.3082
 2970THY    CP174230   9.714   8.074   1.792 -0.1802 -0.3239  0.1209
 2970THY    HP174231   9.743   8.075   1.898 -1.3804  1.4049  0.4727
 2970THY    CP274232   9.767   8.212   1.741  0.3216 -0.3188 -0.9561
 2970THY    HP274233   9.695   8.283   1.784 -0.7932 -2.7536  1.5445
 2970THY    HP374234   9.864   8.229   1.789 -0.1147 -0.3692 -0.0243
 2970THY    HP474235   9.779   8.214   1.632 -4.0892 -2.3247 -1.6721
 2970THY    CP374236   9.564   8.058   1.780  0.5076  0.1227  0.5522
 2970THY    HP574237   9.524   8.058   1.678  0.3863  1.1898  0.5811
 2970THY    HP674238   9.536   7.960   1.819 -1.1495 -0.5263 -2.0919
 2970THY    HP774239   9.515   8.131   1.846 -0.1447  0.2938 -0.1183
 2970THY    CA374240   9.772   7.947   1.576  0.3954  0.1604  0.3050
 2970THY    HA374241   9.690   7.975   1.510  1.3368 -1.4627 -1.6556
 2970THY    CA474242   9.864   7.868   1.509  0.6975  0.2988  0.0618
 2970THY    HA474243   9.854   7.855   1.402 -0.6056  1.2060  0.0503
 2970THY    CA574244   9.979   7.821   1.567  0.7061  0.0158 -0.1548
 2970THY    CM174245  10.071   7.748   1.476 -0.2363  1.1346 -0.6724
 2970THY    HM174246  10.108   7.655   1.520  2.3636  2.1544 -0.5323
 2970THY    HM274247  10.011   7.707   1.394 -0.0834 -0.8311  0.1484
 2970THY    HM374248  10.149   7.809   1.430  1.1096 -1.6915 -2.3893
 2970THY    CA674249  10.005   7.845   1.696  0.1532  0.3372 -0.5233
 2970THY    HA674250  10.095   7.802   1.738  0.0419 -0.4248 -1.0465
 2971THY      O74251   7.045   7.960   3.630 -0.7872 -0.6546  0.2952
 2971THY     HO74252   7.118   7.977   3.569 -0.8187 -0.2760  0.3591
 2971THY    CA174253   7.058   8.050   3.732 -0.0605  0.2713  0.7056
 2971THY    CA274254   7.034   8.027   3.867  0.2064 -0.1873 -0.2814
 2971THY    CP174255   7.010   7.881   3.911 -0.2259  0.7573 -0.3259
 2971THY    HP174256   6.999   7.815   3.825 -2.9975 -0.5373  0.8824
 2971THY    CP274257   7.136   7.833   3.987  0.0236  0.0007  0.2031
 2971THY    HP274258   7.228   7.817   3.929  0.6694  1.8097  0.6468
 2971THY    HP374259   7.165   7.901   4.068  1.6089 -1.3045  0.7959
 2971THY    HP474260   7.112   7.735   4.029  0.0515  0.4272  1.2455
 2971THY    CP374261   6.880   7.857   3.990  0.3205  0.1112  0.1991
 2971THY    HP574262   6.873   7.927   4.074 -0.8857  1.4892 -1.0008
 2971THY    HP674263   6.793   7.894   3.934 -0.4003  1.5708  2.1747
 2971THY    HP774264   6.865   7.757   4.034  0.2141 -0.3854 -0.9337
 2971THY    CA374265   7.038   8.132   3.964 -0.2652 -0.2091  0.4596
 2971THY    HA374266   7.020   8.119   4.070  3.4207  0.4169  1.3264
 2971THY    CA474267   7.076   8.259   3.922  0.0399 -0.0668  0.1952
 2971THY    HA474268   7.091   8.342   3.990 -0.5347  1.2252 -1.1953
 2971THY    CA574269   7.116   8.283   3.788  0.0825  0.1609 -0.5005
 2971THY    CM174270   7.165   8.419   3.750 -0.5275  0.3575  0.3773
 2971THY    HM174271   7.261   8.444   3.797  0.2215 -0.2026 -0.8206
 2971THY    HM274272   7.152   8.427   3.642 -0.6046 -0.4428  0.3216
 2971THY    HM374273   7.103   8.504   3.781 -1.6460  0.6531 -2.4042
 2971THY    CA674274   7.106   8.176   3.697 -0.6595  0.1194 -0.8852
 2971THY    HA674275   7.127   8.191   3.591 -1.0541  0.0637 -0.9732
 2972THY      O74276   5.542   8.692   5.630 -0.4488  0.2662 -0.1142
 2972THY     HO74277   5.492   8.773   5.651 -0.2625  0.4943 -0.5232
 2972THY    CA174278   5.645   8.728   5.552  0.5287  0.0758 -1.1027
 2972THY    CA274279   5.778   8.688   5.583  0.0090  0.5199 -0.0833
 2972THY    CP174280   5.813   8.580   5.681  0.1229 -0.3264  0.8557
 2972THY    HP174281   5.716   8.570   5.730  0.6234 -0.7008  1.7979
 2972THY    CP274282   5.823   8.446   5.612  0.8892  0.4199  0.2281
 2972THY    HP274283   5.854   8.366   5.680 -0.6150 -0.7891 -0.4276
 2972THY    HP374284   5.725   8.410   5.576  0.4481 -1.8775  3.3122
 2972THY    HP474285   5.889   8.455   5.525 -0.9873 -2.1001 -1.6350
 2972THY    CP374286   5.929   8.599   5.787  0.3732 -0.3525 -0.1224
 2972THY    HP574287   5.931   8.702   5.824 -5.5801  1.6212 -3.7811
 2972THY    HP674288   5.915   8.529   5.870  1.0777  1.0251  1.1897
 2972THY    HP774289   6.026   8.579   5.741  0.6032  1.1672 -0.3444
 2972THY    CA374290   5.881   8.752   5.508  0.7997  0.2992 -0.0973
 2972THY    HA374291   5.986   8.732   5.525  0.7737 -0.0494 -0.3344
 2972THY    CA474292   5.848   8.840   5.398 -0.4240 -0.7962 -1.1588
 2972THY    HA474293   5.928   8.896   5.351  0.9214 -1.8389 -0.2173
 2972THY    CA574294   5.716   8.872   5.366 -0.0866  0.0080 -0.7424
 2972THY    CM174295   5.681   8.962   5.248 -0.1033 -0.2097 -0.0028
 2972THY    HM174296   5.581   8.949   5.206  1.0613 -0.9741 -2.7583
 2972THY    HM274297   5.707   9.066   5.273  0.1895 -0.5289  1.0834
 2972THY    HM374298   5.749   8.937   5.165 -1.1115  0.4196 -1.0532
 2972THY    CA674299   5.612   8.818   5.452 -0.2338  0.0069 -0.5061
 2972THY    HA674300   5.510   8.848   5.432 -1.0169 -2.6841 -0.8909
 2973THY      O74301   9.051   0.033   3.237 -0.0424 -0.4406 -0.3337
 2973THY     HO74302   9.123  -0.023   3.270 -0.3118 -1.3699 -1.2704
 2973THY    CA174303   9.088   0.162   3.272 -0.3768 -0.2323  0.3946
 2973THY    CA274304   9.037   0.276   3.201  0.1000  0.1834 -0.5488
 2973THY    CP174305   8.928   0.265   3.101  0.4298  0.5312  0.1399
 2973THY    HP174306   8.887   0.164   3.101 -2.2143  1.4054  3.7251
 2973THY    CP274307   8.806   0.348   3.139 -0.2599 -0.6908  0.5465
 2973THY    HP274308   8.756   0.330   3.235  0.5891 -0.0501  1.1193
 2973THY    HP374309   8.825   0.456   3.133  2.3472 -1.1811 -1.9467
 2973THY    HP474310   8.722   0.327   3.071 -1.0678 -0.9165  1.5795
 2973THY    CP374311   8.979   0.312   2.967  0.0798  0.7796 -1.0173
 2973THY    HP574312   9.048   0.233   2.933 -0.0969  0.3503 -0.3926
 2973THY    HP674313   8.903   0.323   2.889 -0.4066 -1.2304 -0.8804
 2973THY    HP774314   9.028   0.407   2.992 -0.4805  0.5766  0.9596
 2973THY    CA374315   9.088   0.401   3.242 -0.3882 -0.1600  0.3886
 2973THY    HA374316   9.049   0.495   3.204 -0.9379  0.0628  1.4671
 2973THY    CA474317   9.182   0.416   3.341  0.5901 -0.2187  0.4578
 2973THY    HA474318   9.226   0.514   3.357  0.1437  0.2703 -1.1163
 2973THY    CA574319   9.225   0.307   3.412  0.1391 -0.7269  0.2277
 2973THY    CM174320   9.308   0.322   3.534  0.0003 -0.1241  0.5506
 2973THY    HM174321   9.413   0.344   3.508 -0.1102 -0.5409 -0.2777
 2973THY    HM274322   9.272   0.409   3.589 -0.3275 -1.4386  2.5082
 2973THY    HM374323   9.285   0.242   3.604 -2.7025 -0.0847 -0.1753
 2973THY    CA674324   9.181   0.178   3.370  0.0171 -0.3279  0.3073
 2973THY    HA674325   9.229   0.091   3.412  1.8862 -0.5904 -2.1496
 2974THY      O74326   8.884   2.675   1.439 -0.0023  0.4594  0.1380
 2974THY     HO74327   8.917   2.708   1.524 -0.8226 -2.7288  1.8640
 2974THY    CA174328   8.993   2.644   1.364 -0.1061 -0.4911 -0.0782
 2974THY    CA274329   8.970   2.608   1.230  0.1013 -0.0858  0.8056
 2974THY    CP174330   8.840   2.604   1.151  0.4144 -0.6886  0.2379
 2974THY    HP174331   8.758   2.624   1.222  0.2539  1.5552 -0.4907
 2974THY    CP274332   8.817   2.722   1.057  0.0900  0.0110 -0.3490
 2974THY    HP274333   8.850   2.807   1.119 -0.1395 -0.2466  0.1352
 2974THY    HP374334   8.886   2.717   0.972 -0.1096  1.5764 -0.6328
 2974THY    HP474335   8.715   2.735   1.021  0.0371 -1.1177 -0.6452
 2974THY    CP374336   8.819   2.466   1.078 -0.1308 -0.1937  0.3546
 2974THY    HP574337   8.714   2.464   1.047 -0.1045 -1.2989  0.2778
 2974THY    HP674338   8.875   2.452   0.985 -1.0565  1.1506 -0.4448
 2974THY    HP774339   8.835   2.389   1.155  2.3144 -0.3419 -0.2178
 2974THY    CA374340   9.080   2.575   1.156 -0.6227  0.8058  0.2092
 2974THY    HA374341   9.072   2.538   1.055  0.3843  0.8506  0.1026
 2974THY    CA474342   9.207   2.564   1.216 -0.8576 -0.2134  0.4158
 2974THY    HA474343   9.298   2.530   1.167 -0.4531  0.5369  0.6311
 2974THY    CA574344   9.228   2.613   1.344  0.0788 -0.1077 -0.2760
 2974THY    CM174345   9.365   2.642   1.393 -0.4003 -0.2565 -0.2651
 2974THY    HM174346   9.390   2.749   1.385  1.3052 -0.7447 -2.1371
 2974THY    HM274347   9.397   2.614   1.494  1.8697  0.9356 -0.5749
 2974THY    HM374348   9.441   2.600   1.326 -0.3800 -2.8137  1.2012
 2974THY    CA674349   9.120   2.656   1.422 -0.0729  0.5984  0.3157
 2974THY    HA674350   9.135   2.690   1.524  1.3119  1.9156 -0.2834
 2975THY      O74351   0.145   7.572   5.045  0.4724 -0.2487 -0.5006
 2975THY     HO74352   0.049   7.589   5.042  0.6695  1.8614  1.9435
 2975THY    CA174353   0.196   7.696   5.069  0.9448 -0.1024  0.4903
 2975THY    CA274354   0.328   7.713   5.114  0.2070  0.1010  0.3063
 2975THY    CP174355   0.410   7.580   5.143 -0.0661 -0.3070  0.4410
 2975THY    HP174356   0.353   7.492   5.111 -0.9605 -0.5592  2.5531
 2975THY    CP274357   0.527   7.577   5.038 -0.6949  0.1797  0.1028
 2975THY    HP274358   0.497   7.596   4.934  1.4031 -1.1814 -0.8206
 2975THY    HP374359   0.601   7.654   5.062  0.2753 -1.3011  2.2016
 2975THY    HP474360   0.587   7.487   5.055  1.2044  1.6438  1.4814
 2975THY    CP374361   0.462   7.563   5.283 -0.3273 -0.2325  0.6949
 2975THY    HP574362   0.391   7.576   5.366 -0.8361 -0.0603  0.2389
 2975THY    HP674363   0.502   7.463   5.299 -2.5569 -1.3758 -0.4358
 2975THY    HP774364   0.544   7.631   5.310 -0.5476 -0.7963  2.9508
 2975THY    CA374365   0.381   7.837   5.132  0.1528 -0.6504  0.3685
 2975THY    HA374366   0.479   7.848   5.177 -0.1291 -0.9304  1.0690
 2975THY    CA474367   0.305   7.953   5.103  0.7795  0.1780 -0.1447
 2975THY    HA474368   0.354   8.050   5.107  3.3951 -0.9367 -2.1999
 2975THY    CA574369   0.174   7.938   5.054 -0.4131  0.0913  0.5699
 2975THY    CM174370   0.105   8.062   5.003 -0.2535 -0.1586  0.0574
 2975THY    HM174371   0.160   8.102   4.917  1.6056 -0.1796  1.1978
 2975THY    HM274372   0.003   8.034   4.974  0.1081 -1.0646 -0.3937
 2975THY    HM374373   0.110   8.137   5.082  0.8461  1.2228 -1.2571
 2975THY    CA674374   0.119   7.805   5.046  0.1036 -0.1166 -0.5845
 2975THY    HA674375   0.015   7.799   5.014  0.1503 -1.0533 -0.6075
 2976THY      O74376   3.345   9.857   9.205  0.2092 -0.2461 -0.3103
 2976THY     HO74377   3.428   9.907   9.218 -0.0063 -0.4018  2.1155
 2976THY    CA174378   3.322   9.837   9.332 -0.0028 -0.3308  0.5770
 2976THY    CA274379   3.193   9.797   9.371  0.2335 -0.7604  0.4621
 2976THY    CP174380   3.076   9.792   9.277  0.1667 -0.1407  0.2561
 2976THY    HP174381   3.100   9.837   9.180  0.6055 -1.2767 -0.1812
 2976THY    CP274382   3.058   9.643   9.239  0.2398 -0.2221 -0.1629
 2976THY    HP274383   3.144   9.616   9.177  1.3454  0.9542  0.8200
 2976THY    HP374384   3.041   9.586   9.331 -2.1022 -0.8424 -0.9210
 2976THY    HP474385   2.967   9.621   9.182 -0.4446 -2.2515  1.5991
 2976THY    CP374386   2.944   9.847   9.334 -0.1285 -0.2358 -0.2245
 2976THY    HP574387   2.968   9.938   9.390 -1.7045  0.5984 -0.8363
 2976THY    HP674388   2.884   9.869   9.245 -0.0550  1.9849  0.2376
 2976THY    HP774389   2.895   9.768   9.392 -0.6925  0.1239 -0.2064
 2976THY    CA374390   3.179   9.768   9.506  0.3424  0.0815  0.3438
 2976THY    HA374391   3.086   9.726   9.544 -0.2083  1.2334  0.2948
 2976THY    CA474392   3.274   9.807   9.601  0.5594 -0.1214 -0.1982
 2976THY    HA474393   3.258   9.796   9.708  1.0949  1.5341  0.0846
 2976THY    CA574394   3.395   9.865   9.552  0.5512 -0.1118 -0.4312
 2976THY    CM174395   3.496   9.910   9.661 -0.0009  0.3563  0.8925
 2976THY    HM174396   3.457   9.994   9.720 -2.1830  1.6275 -2.1040
 2976THY    HM274397   3.505   9.818   9.720  0.4748 -0.2923 -0.1570
 2976THY    HM374398   3.596   9.938   9.625 -0.1645  3.2713  2.3712
 2976THY    CA674399   3.416   9.880   9.419 -0.2483  0.2290  0.2331
 2976THY    HA674400   3.511   9.920   9.384  0.2966 -2.7212 -2.0682
 2977THY      O74401   9.541   2.539   1.037  0.3395  0.6919 -0.0474
 2977THY     HO74402   9.625   2.513   1.080  0.4554  1.6754  0.3434
 2977THY    CA174403   9.535   2.676   1.053 -1.0243  0.1375  0.8639
 2977THY    CA274404   9.466   2.760   0.968  0.0821 -0.2591 -0.0685
 2977THY    CP174405   9.393   2.691   0.851  0.1189 -0.7989  0.4716
 2977THY    HP174406   9.374   2.584   0.862 -1.3660 -0.8409 -1.8586
 2977THY    CP274407   9.255   2.752   0.829 -0.6855 -0.0740  0.0047
 2977THY    HP274408   9.209   2.735   0.927  0.8977 -1.9871  0.4851
 2977THY    HP374409   9.258   2.856   0.795  0.5954  0.1010  0.5983
 2977THY    HP474410   9.194   2.690   0.761 -0.2599 -3.5589  2.5141
 2977THY    CP374411   9.478   2.697   0.728 -0.0464 -0.8299  0.9242
 2977THY    HP574412   9.514   2.797   0.701 -5.0358  0.9798 -0.2078
 2977THY    HP674413   9.559   2.623   0.737  0.5478 -0.7747 -2.7272
 2977THY    HP774414   9.413   2.654   0.651  0.6187 -1.2331  0.5811
 2977THY    CA374415   9.477   2.901   0.987 -0.2049  0.3020 -0.1811
 2977THY    HA374416   9.432   2.967   0.914 -2.0169 -0.2025  0.4164
 2977THY    CA474417   9.538   2.951   1.102 -0.2673  0.4482 -0.3482
 2977THY    HA474418   9.554   3.058   1.114 -0.2891  0.1884  3.0265
 2977THY    CA574419   9.598   2.862   1.198 -0.0745 -1.1673 -0.2105
 2977THY    CM174420   9.675   2.920   1.317 -0.6508  0.4060 -0.0080
 2977THY    HM174421   9.711   3.019   1.290 -1.1727  0.4552 -0.5530
 2977THY    HM274422   9.609   2.923   1.405 -0.1154 -1.9688  0.5606
 2977THY    HM374423   9.757   2.858   1.354 -0.9007 -0.9507 -1.6052
 2977THY    CA674424   9.600   2.726   1.164 -0.3279 -0.2942  0.2636
 2977THY    HA674425   9.650   2.661   1.236  0.8342  0.4065  0.1209
 2978THY      O74426   3.705   0.017   2.099 -0.3013 -0.1833 -0.0732
 2978THY     HO74427   3.738   0.016   2.007 -1.6000 -1.1530 -0.5648
 2978THY    CA174428   3.760   0.117   2.172  0.2859 -0.2209  0.1147
 2978THY    CA274429   3.715   0.155   2.294 -0.0264 -0.0495  0.1620
 2978THY    CP174430   3.597   0.080   2.357  0.3399 -0.0185 -0.0027
 2978THY    HP174431   3.534   0.027   2.285 -0.7287 -1.5818  2.0073
 2978THY    CP274432   3.659  -0.033   2.441  0.1851  0.0411  0.4726
 2978THY    HP274433   3.712   0.003   2.530 -0.2992  1.3913  0.2373
 2978THY    HP374434   3.582  -0.101   2.481  0.5501 -2.5685 -2.8525
 2978THY    HP474435   3.734  -0.096   2.393  0.6828  1.0170 -0.0496
 2978THY    CP374436   3.515   0.166   2.445 -0.1193  0.7156 -0.3241
 2978THY    HP574437   3.500   0.265   2.400 -0.3703  0.4502 -0.8279
 2978THY    HP674438   3.414   0.122   2.446  0.0812  0.0521 -2.8969
 2978THY    HP774439   3.552   0.187   2.546 -0.9407 -1.0439  0.3802
 2978THY    CA374440   3.782   0.260   2.358  0.2715  0.9601 -0.4616
 2978THY    HA374441   3.744   0.305   2.449 -2.5243  0.5819 -1.3317
 2978THY    CA474442   3.898   0.320   2.306  0.4465  0.1349  0.3972
 2978THY    HA474443   3.950   0.397   2.364 -1.2809 -0.3412  2.7264
 2978THY    CA574444   3.942   0.272   2.182  0.5950 -0.3140 -0.3059
 2978THY    CM174445   4.058   0.332   2.128 -0.5502  0.0387  0.0652
 2978THY    HM174446   4.083   0.434   2.159  1.1519  0.9066 -3.6077
 2978THY    HM274447   4.146   0.267   2.139 -0.6514  0.1428  1.8004
 2978THY    HM374448   4.053   0.350   2.020  1.4734 -1.9340 -0.4404
 2978THY    CA674449   3.872   0.171   2.113 -0.5082 -0.2274  0.3290
 2978THY    HA674450   3.907   0.139   2.015 -0.9352  1.5594 -0.4510
 2979THY      O74451   5.431   8.929   8.697  0.1250 -0.2224  0.3880
 2979THY     HO74452   5.358   8.990   8.676 -2.6977 -3.3983  0.1103
 2979THY    CA174453   5.544   8.991   8.735 -0.6644 -0.2894 -0.7196
 2979THY    CA274454   5.671   8.945   8.701 -0.1742 -0.1734 -0.1070
 2979THY    CP174455   5.696   8.825   8.607  1.0377 -0.3409  0.0211
 2979THY    HP174456   5.603   8.767   8.606  0.4587  0.2845  4.0081
 2979THY    CP274457   5.740   8.868   8.464 -0.2228 -0.1071  0.0374
 2979THY    HP274458   5.655   8.922   8.422  1.7303  0.3404 -3.8355
 2979THY    HP374459   5.826   8.934   8.480 -1.1478  1.9152 -2.7055
 2979THY    HP474460   5.756   8.773   8.410  0.5591  0.3417 -0.5449
 2979THY    CP374461   5.804   8.740   8.657 -0.3814  0.4436 -0.2895
 2979THY    HP574462   5.910   8.760   8.635 -0.2536  0.6425  0.4800
 2979THY    HP674463   5.801   8.735   8.766  1.5699  1.8590 -0.1176
 2979THY    HP774464   5.797   8.638   8.617 -0.8646 -0.2267  1.4417
 2979THY    CA374465   5.784   9.010   8.749 -0.2482  0.0315  0.0732
 2979THY    HA374466   5.885   8.981   8.721  0.5376  1.5623  1.1986
 2979THY    CA474467   5.773   9.128   8.822  0.6716 -0.2994 -0.1547
 2979THY    HA474468   5.859   9.183   8.859  1.5933 -0.7506 -1.5494
 2979THY    CA574469   5.648   9.176   8.859  1.1251  0.2523 -0.0870
 2979THY    CM174470   5.621   9.303   8.944 -0.2777  0.7522 -0.4212
 2979THY    HM174471   5.518   9.294   8.981 -0.6385  1.0856 -1.2980
 2979THY    HM274472   5.689   9.315   9.028  1.2895 -0.8456 -1.3862
 2979THY    HM374473   5.628   9.388   8.875  0.7728 -0.4280 -1.8659
 2979THY    CA674474   5.536   9.102   8.817  0.9233  0.0018 -0.2452
 2979THY    HA674475   5.436   9.135   8.842  1.7454  1.5159  1.2344
 2980THY      O74476   0.159   9.807   6.758 -0.2182 -0.0030 -0.3435
 2980THY     HO74477   0.104   9.798   6.678 -0.1966  2.4295 -0.6947
 2980THY    CA174478   0.076   9.769   6.861 -0.2020  0.7262  0.6475
 2980THY    CA274479   0.051   9.640   6.902 -0.7701  0.8283  0.1138
 2980THY    CP174480   0.109   9.518   6.828  0.5434 -0.1555 -0.4193
 2980THY    HP174481   0.160   9.549   6.735  1.2635  0.4728  0.1698
 2980THY    CP274482   0.215   9.452   6.918 -0.2707  0.3032  0.3329
 2980THY    HP274483   0.261   9.368   6.865  0.0421 -0.3197  1.5588
 2980THY    HP374484   0.285   9.524   6.961  0.4232 -1.1728  1.7928
 2980THY    HP474485   0.164   9.400   7.000 -1.6596 -0.3081 -0.8668
 2980THY    CP374486   0.001   9.413   6.783 -0.5114  0.1941  0.1171
 2980THY    HP574487  -0.048   9.366   6.869 -0.5966  0.7137  0.3551
 2980THY    HP674488  -0.085   9.452   6.728 -0.8873 -0.2461  0.3858
 2980THY    HP774489   0.052   9.339   6.720  0.8159  2.9765 -2.2873
 2980THY    CA374490  -0.038   9.618   7.007  0.5851  0.0295 -0.0948
 2980THY    HA374491  -0.050   9.513   7.032  2.0677 -0.0616  0.2894
 2980THY    CA474492  -0.103   9.729   7.074  0.3361 -0.0825  0.1114
 2980THY    HA474493  -0.156   9.706   7.165  1.4344 -1.5121  0.4314
 2980THY    CA574494  -0.079   9.857   7.030  0.1372  1.0552 -0.2140
 2980THY    CM174495  -0.128   9.973   7.100 -1.1485 -0.1613 -0.0311
 2980THY    HM174496  -0.211   9.950   7.168  0.3361 -0.1564  1.8687
 2980THY    HM274497  -0.045   9.992   7.170  0.9374 -0.4045 -2.2995
 2980THY    HM374498  -0.156  10.055   7.033 -0.9080  1.0735  1.3332
 2980THY    CA674499   0.012   9.879   6.925  0.9521  0.1815  1.0565
 2980THY    HA674500   0.028   9.980   6.891  0.0310 -0.1705 -0.4847
 2981THY      O74501   6.050   9.610   3.985 -0.4120 -0.6003 -0.7630
 2981THY     HO74502   6.030   9.515   3.992  0.8529 -0.7664  2.1961
 2981THY    CA174503   6.181   9.628   3.983  0.1647  0.0570 -0.2606
 2981THY    CA274504   6.228   9.759   3.985  0.2988  0.5848 -0.3420
 2981THY    CP174505   6.148   9.885   3.952 -0.5017 -0.3063 -0.5000
 2981THY    HP174506   6.041   9.865   3.964 -0.3246 -0.8474  0.2791
 2981THY    CP274507   6.177   9.994   4.060  0.4543  0.0025  0.3666
 2981THY    HP274508   6.100  10.072   4.058  0.3318 -0.0010  2.6212
 2981THY    HP374509   6.175   9.949   4.160 -0.0482  0.1077  0.4068
 2981THY    HP474510   6.282  10.024   4.048  0.6511 -1.1562 -1.0360
 2981THY    CP374511   6.169   9.935   3.806 -0.2766 -0.1662  0.3393
 2981THY    HP574512   6.276   9.944   3.786  0.0139 -1.1361  1.3223
 2981THY    HP674513   6.114   9.872   3.735 -2.7680  1.2686  0.8864
 2981THY    HP774514   6.131  10.036   3.793  1.5031  0.3935 -0.7962
 2981THY    CA374515   6.368   9.774   3.985 -0.5289  0.3642 -0.3006
 2981THY    HA374516   6.413   9.872   3.969 -0.1387  0.1636 -0.4675
 2981THY    CA474517   6.456   9.660   3.982 -0.1110  0.0914 -0.3547
 2981THY    HA474518   6.562   9.677   3.971  0.1796 -0.1781  1.5852
 2981THY    CA574519   6.405   9.531   3.979 -0.1505  0.3496  1.3405
 2981THY    CM174520   6.493   9.415   3.962 -0.8049  0.3705 -0.2718
 2981THY    HM174521   6.469   9.326   4.023  0.5496 -0.8596 -1.4758
 2981THY    HM274522   6.505   9.388   3.857 -0.8349 -0.4747 -0.0682
 2981THY    HM374523   6.596   9.433   3.993 -0.3524 -0.1450 -1.4202
 2981THY    CA674524   6.266   9.516   3.988  0.6105  0.6490 -0.2943
 2981THY    HA674525   6.222   9.416   3.989  0.0306  0.8755 -1.4509
 2982THY      O74526   4.009   9.879   2.128  0.4506 -0.1293  0.1680
 2982THY     HO74527   3.952   9.955   2.147  3.0152  1.7054  1.0583
 2982THY    CA174528   4.046   9.834   2.249  0.2405 -0.3630  0.4284
 2982THY    CA274529   4.126   9.718   2.267 -0.0763 -0.0107  0.1911
 2982THY    CP174530   4.214   9.658   2.160  0.5249  0.1603  0.1556
 2982THY    HP174531   4.182   9.692   2.061  3.6145  1.8046 -0.3977
 2982THY    CP274532   4.363   9.699   2.180 -0.0061 -0.2482  0.3695
 2982THY    HP274533   4.427   9.662   2.099  0.4925  0.0355  0.6307
 2982THY    HP374534   4.371   9.808   2.170  1.3612 -0.0664  2.8275
 2982THY    HP474535   4.400   9.683   2.282  0.6332 -0.2575  0.1437
 2982THY    CP374536   4.215   9.508   2.163  0.5291  0.6343 -0.1920
 2982THY    HP574537   4.265   9.467   2.251  0.5772  0.1034 -0.4641
 2982THY    HP674538   4.114   9.467   2.163  1.0006 -0.5770  0.6753
 2982THY    HP774539   4.261   9.468   2.072 -0.3082  0.1942 -0.4369
 2982THY    CA374540   4.141   9.657   2.392 -0.4625 -0.6152  0.1269
 2982THY    HA374541   4.212   9.577   2.413  1.8375  1.0199 -0.9513
 2982THY    CA474542   4.099   9.735   2.501  0.6577 -0.5233 -0.1988
 2982THY    HA474543   4.119   9.698   2.601 -0.4073 -1.6826 -0.3796
 2982THY    CA574544   4.032   9.852   2.485 -0.2658 -0.3879  0.3595
 2982THY    CM174545   3.989   9.942   2.602 -0.2739 -0.2738 -0.0127
 2982THY    HM174546   4.071   9.996   2.649  0.3330 -2.1915  1.2702
 2982THY    HM274547   3.916  10.018   2.573 -1.0645 -0.5103  1.2488
 2982THY    HM374548   3.929   9.879   2.669 -0.5753 -1.3786 -1.2737
 2982THY    CA674549   4.002   9.897   2.361 -0.0235 -0.1327  0.2965
 2982THY    HA674550   3.948   9.991   2.352 -1.3620 -0.8422  0.6930
 2983THY      O74551   4.919   7.771   2.121  0.0377 -0.0838 -0.0951
 2983THY     HO74552   4.919   7.702   2.190  3.0975 -2.3449 -2.0882
 2983THY    CA174553   4.795   7.824   2.110 -0.3816  0.1365  0.1212
 2983THY    CA274554   4.758   7.909   2.006  0.9861 -0.5620  0.2110
 2983THY    CP174555   4.860   7.934   1.898  0.0953 -0.3878 -0.0518
 2983THY    HP174556   4.964   7.936   1.931 -0.2028  1.0821  0.9011
 2983THY    CP274557   4.867   7.828   1.785 -0.2319 -0.4239 -0.2089
 2983THY    HP274558   4.775   7.826   1.726 -1.4650 -0.5261  1.6221
 2983THY    HP374559   4.947   7.855   1.715 -1.4520  1.1259 -1.0730
 2983THY    HP474560   4.893   7.728   1.821  2.7852  0.0880 -0.6997
 2983THY    CP374561   4.835   8.083   1.842  0.5504  0.8691  0.2953
 2983THY    HP574562   4.926   8.127   1.800  0.0275  3.5421  1.7415
 2983THY    HP674563   4.746   8.081   1.777  0.1447 -1.1626  0.8381
 2983THY    HP774564   4.810   8.150   1.925 -2.7501 -0.1572  0.2906
 2983THY    CA374565   4.626   7.959   1.993 -0.1803  0.6213 -0.1660
 2983THY    HA374566   4.594   8.024   1.912  0.6652  0.2868 -0.7877
 2983THY    CA474567   4.536   7.931   2.098 -0.0118 -0.1128 -0.5764
 2983THY    HA474568   4.437   7.975   2.100 -1.1945 -2.5548  2.1899
 2983THY    CA574569   4.576   7.855   2.211 -0.0531 -0.0744  0.2552
 2983THY    CM174570   4.478   7.841   2.326  0.5856  1.1502 -0.2402
 2983THY    HM174571   4.473   7.735   2.355  1.5313  1.1431 -0.0622
 2983THY    HM274572   4.529   7.884   2.413  0.8096 -2.0199  1.3461
 2983THY    HM374573   4.377   7.881   2.309  0.4270  0.5764 -0.6768
 2983THY    CA674574   4.703   7.801   2.215 -1.0673 -0.3428 -0.3236
 2983THY    HA674575   4.725   7.734   2.298 -1.5281 -1.2939 -0.9515
 2984THY      O74576   1.557   8.700   4.035  0.5606 -0.2133 -0.2165
 2984THY     HO74577   1.594   8.713   3.946  1.2158 -3.3410 -0.5114
 2984THY    CA174578   1.636   8.609   4.108  0.1702 -0.3637 -0.1416
 2984THY    CA274579   1.571   8.538   4.211 -1.0387  0.9633 -0.2533
 2984THY    CP174580   1.430   8.568   4.255  0.3461 -0.0572  0.1608
 2984THY    HP174581   1.400   8.674   4.256 -0.1545 -0.1975  0.1099
 2984THY    CP274582   1.333   8.498   4.161 -0.2621  0.4532 -0.2058
 2984THY    HP274583   1.234   8.498   4.207 -1.6103 -0.0841 -2.8831
 2984THY    HP374584   1.317   8.543   4.062 -1.0135  0.2073 -0.1997
 2984THY    HP474585   1.367   8.395   4.146 -0.2114  0.7359 -2.4504
 2984THY    CP374586   1.393   8.532   4.392  0.2908  0.0291  0.9078
 2984THY    HP574587   1.299   8.578   4.425 -0.2475 -0.4985  0.1373
 2984THY    HP674588   1.386   8.427   4.421  0.5007 -0.5680 -1.0784
 2984THY    HP774589   1.468   8.581   4.455 -0.6119  1.3245  1.0284
 2984THY    CA374590   1.637   8.428   4.269  0.7548 -0.0283  0.6602
 2984THY    HA374591   1.583   8.364   4.338 -0.0110  0.1759  0.2593
 2984THY    CA474592   1.761   8.389   4.211  0.3211 -1.0979  0.0814
 2984THY    HA474593   1.796   8.291   4.244 -0.3442 -0.6598  2.2684
 2984THY    CA574594   1.817   8.455   4.102  0.4127  0.2572 -0.4614
 2984THY    CM174595   1.957   8.420   4.053  0.5094 -0.8185 -0.3814
 2984THY    HM174596   1.947   8.381   3.951 -0.6356  0.0921 -0.6470
 2984THY    HM274597   2.025   8.505   4.060 -0.1463 -0.2608 -0.6599
 2984THY    HM374598   1.993   8.360   4.137  2.0314  1.4438  0.6816
 2984THY    CA674599   1.761   8.574   4.057  0.0336 -0.0408  0.1813
 2984THY    HA674600   1.806   8.637   3.981  3.6566 -0.5620  1.7264
 2985THY      O74601   7.492   3.006   6.025  0.0915  0.5904 -0.4544
 2985THY     HO74602   7.577   3.039   5.992  0.1904 -1.1622 -2.1102
 2985THY    CA174603   7.468   3.038   6.157  0.3638 -0.4022  0.8224
 2985THY    CA274604   7.359   2.975   6.219 -0.4988 -0.6258  0.2293
 2985THY    CP174605   7.256   2.893   6.130  0.1378 -0.3924  0.3507
 2985THY    HP174606   7.288   2.891   6.025 -0.5025  1.0066  0.1091
 2985THY    CP274607   7.227   2.746   6.179 -0.0749  0.0755  0.3991
 2985THY    HP274608   7.192   2.680   6.098 -1.6561 -2.5358  2.9908
 2985THY    HP374609   7.328   2.708   6.199  0.1787 -0.3389 -1.4438
 2985THY    HP474610   7.158   2.745   6.264 -1.7164  2.1548 -0.8108
 2985THY    CP374611   7.129   2.967   6.124 -0.5820 -0.2466  0.2845
 2985THY    HP574612   7.070   2.919   6.045  1.8131  0.1749 -1.9265
 2985THY    HP674613   7.075   2.971   6.219 -0.3042  0.6290  0.4102
 2985THY    HP774614   7.138   3.072   6.096 -0.5221 -0.3759 -0.2034
 2985THY    CA374615   7.345   2.978   6.357  0.6185  0.0766  0.0070
 2985THY    HA374616   7.261   2.926   6.402 -0.1165  2.2763  1.3277
 2985THY    CA474617   7.426   3.058   6.432  0.7361  0.7043 -0.1435
 2985THY    HA474618   7.422   3.071   6.540 -0.3370 -0.8902  0.0556
 2985THY    CA574619   7.538   3.118   6.368  0.3205  0.3846 -0.3273
 2985THY    CM174620   7.634   3.205   6.444  0.4017  0.1739 -0.3700
 2985THY    HM174621   7.729   3.154   6.464 -0.8621 -2.0089  0.3582
 2985THY    HM274622   7.653   3.296   6.387 -1.8074 -0.2998 -2.0126
 2985THY    HM374623   7.589   3.225   6.542 -2.1457 -2.8905 -0.7330
 2985THY    CA674624   7.564   3.109   6.234  0.0349  0.6544  0.2337
 2985THY    HA674625   7.654   3.158   6.198 -0.6104  2.5835  1.1046
 2986THY      O74626   3.229   1.284   1.953 -0.3114  0.2675 -0.1021
 2986THY     HO74627   3.215   1.189   1.942  0.0410  0.2866 -0.8536
 2986THY    CA174628   3.221   1.327   1.822 -0.2188 -0.1535 -0.6248
 2986THY    CA274629   3.161   1.447   1.781 -0.2588 -0.1122  0.6428
 2986THY    CP174630   3.104   1.546   1.889 -0.8077  0.3901  0.5174
 2986THY    HP174631   3.059   1.479   1.964 -1.2946  0.0155 -0.0952
 2986THY    CP274632   3.236   1.611   1.952  0.2794  0.1124 -0.1068
 2986THY    HP274633   3.213   1.685   2.029  0.7751  0.9583 -0.7507
 2986THY    HP374634   3.300   1.529   1.989  0.1103  0.9467  2.1909
 2986THY    HP474635   3.289   1.671   1.878  2.4111 -0.3634  0.9778
 2986THY    CP374636   2.991   1.640   1.836  0.7816  0.1391 -0.1537
 2986THY    HP574637   3.038   1.728   1.791  1.3582 -0.1134 -0.0603
 2986THY    HP674638   2.934   1.584   1.761 -1.3182 -1.1958  2.2631
 2986THY    HP774639   2.922   1.673   1.915  0.1067  0.9562 -1.0606
 2986THY    CA374640   3.146   1.480   1.643 -1.1462  0.0711 -0.0725
 2986THY    HA374641   3.098   1.569   1.603 -0.8956  0.7343  1.0415
 2986THY    CA474642   3.210   1.398   1.550 -0.5483 -0.2278 -0.5630
 2986THY    HA474643   3.209   1.442   1.450 -1.6373 -0.2878 -0.5931
 2986THY    CA574644   3.281   1.288   1.586  0.4915 -0.6521 -0.4376
 2986THY    CM174645   3.367   1.226   1.484 -0.5895 -0.8338  0.0539
 2986THY    HM174646   3.426   1.304   1.433  0.4605 -0.7971  1.2811
 2986THY    HM274647   3.434   1.143   1.510 -0.7007 -1.4537 -1.4809
 2986THY    HM374648   3.302   1.171   1.415  1.2320  0.4264 -2.8828
 2986THY    CA674649   3.294   1.255   1.721  0.1706 -0.8238  0.0554
 2986THY    HA674650   3.358   1.173   1.752  0.3263 -0.7790 -0.1494
 2987THY      O74651   6.109   4.766   7.932 -0.5336 -0.0199 -0.1399
 2987THY     HO74652   6.105   4.800   8.023  1.3044  0.2525 -0.1097
 2987THY    CA174653   6.080   4.864   7.854  0.9103 -0.3709 -0.0446
 2987THY    CA274654   6.091   4.852   7.712  0.3389 -0.2374  0.1983
 2987THY    CP174655   6.107   4.717   7.645  0.3549 -0.1122 -0.0422
 2987THY    HP174656   6.103   4.632   7.714  0.1024  1.0603  1.4628
 2987THY    CP274657   5.982   4.682   7.567  0.3130 -0.2515 -0.6361
 2987THY    HP274658   5.992   4.590   7.508  0.1104  0.1172 -1.2627
 2987THY    HP374659   5.896   4.688   7.635  1.2501 -1.8780  0.7777
 2987THY    HP474660   5.970   4.755   7.486 -0.6693  0.4056  0.0802
 2987THY    CP374661   6.235   4.705   7.566  0.6829 -0.9900 -0.1182
 2987THY    HP574662   6.318   4.733   7.633 -0.0455 -0.0849  0.4233
 2987THY    HP674663   6.252   4.608   7.516 -0.4727 -0.8788 -0.7467
 2987THY    HP774664   6.241   4.783   7.489 -0.5882 -0.8257 -0.0669
 2987THY    CA374665   6.056   4.965   7.633  0.0854  0.1977 -0.0026
 2987THY    HA374666   6.058   4.960   7.524  2.1941  0.3849 -0.0199
 2987THY    CA474667   6.041   5.087   7.696  0.6818  0.5676 -0.4749
 2987THY    HA474668   6.009   5.172   7.636 -1.7866 -1.4593 -2.2266
 2987THY    CA574669   6.038   5.099   7.835 -0.5903  0.1736 -0.1600
 2987THY    CM174670   5.997   5.227   7.898 -0.1787  0.8989  0.6875
 2987THY    HM174671   6.053   5.306   7.848  0.9223 -0.7464 -0.8258
 2987THY    HM274672   5.890   5.239   7.878 -0.2954 -2.1563 -1.2011
 2987THY    HM374673   6.031   5.232   8.003  1.4786  0.8079  0.1803
 2987THY    CA674674   6.058   4.987   7.911 -1.0442 -0.3046 -0.0924
 2987THY    HA674675   6.059   5.000   8.019 -0.3311  1.4731 -0.2900
 2988THY      O74676   1.150   3.598   0.317  0.3115 -0.9563  0.2970
 2988THY     HO74677   1.127   3.692   0.325 -2.5402 -1.3261 -1.7726
 2988THY    CA174678   1.145   3.549   0.444 -0.1343  0.1447  0.4889
 2988THY    CA274679   1.186   3.414   0.478 -0.2164  0.3579 -0.3693
 2988THY    CP174680   1.240   3.317   0.370 -0.3090  0.5431  0.6615
 2988THY    HP174681   1.226   3.371   0.276 -2.0730 -0.6210  0.1969
 2988THY    CP274682   1.387   3.294   0.385 -0.1386 -0.5865 -0.5863
 2988THY    HP274683   1.439   3.384   0.352 -4.4064  1.8702 -1.3686
 2988THY    HP374684   1.407   3.265   0.489  1.1856 -0.7475 -0.8753
 2988THY    HP474685   1.433   3.227   0.311 -1.8611 -2.3280 -0.1722
 2988THY    CP374686   1.149   3.187   0.363  0.2842 -0.4670 -0.2324
 2988THY    HP574687   1.178   3.118   0.283  0.9896 -0.4722  0.0241
 2988THY    HP674688   1.168   3.135   0.458 -0.2799 -1.1396 -0.4753
 2988THY    HP774689   1.047   3.226   0.347  0.3580 -0.2385 -0.1533
 2988THY    CA374690   1.178   3.373   0.616  0.1537 -0.0258 -0.1138
 2988THY    HA374691   1.214   3.273   0.643 -3.5771 -1.6225 -0.4858
 2988THY    CA474692   1.119   3.456   0.707 -0.1991 -0.0655  0.2488
 2988THY    HA474693   1.115   3.435   0.813  0.4044 -0.1693  0.2564
 2988THY    CA574694   1.093   3.590   0.671  0.0130 -0.0676 -0.6654
 2988THY    CM174695   1.055   3.692   0.777 -0.2302 -0.7980 -0.2142
 2988THY    HM174696   0.947   3.693   0.796 -0.1803  1.0613  0.2180
 2988THY    HM274697   1.097   3.659   0.872  0.8065  1.8952  0.3736
 2988THY    HM374698   1.085   3.796   0.756  0.5101 -1.1071 -0.7438
 2988THY    CA674699   1.108   3.637   0.543 -0.3889 -0.1820 -0.3965
 2988THY    HA674700   1.078   3.738   0.517  0.9663  0.6254  1.0541
 2989THY      O74701   3.935   6.451   6.086  0.7869  0.8919  0.6067
 2989THY     HO74702   3.879   6.386   6.132 -0.0097  1.2563  0.1754
 2989THY    CA174703   3.983   6.525   6.194 -0.2335 -0.8609  0.1550
 2989THY    CA274704   4.099   6.607   6.176  0.0906  0.7257  0.7826
 2989THY    CP174705   4.180   6.613   6.045 -0.3021  0.0201  0.5033
 2989THY    HP174706   4.122   6.573   5.962  1.1929  1.6149 -1.4323
 2989THY    CP274707   4.209   6.759   5.991 -0.3980 -0.5870  0.1635
 2989THY    HP274708   4.229   6.753   5.884 -1.0860 -1.8928  0.0830
 2989THY    HP374709   4.115   6.816   5.991 -0.0904 -0.0661  0.8709
 2989THY    HP474710   4.293   6.800   6.048  0.5620 -2.2245 -0.0058
 2989THY    CP374711   4.303   6.522   6.059  0.2674 -0.4912 -0.0514
 2989THY    HP574712   4.344   6.542   6.159  1.0723  1.6428 -0.7511
 2989THY    HP674713   4.255   6.424   6.047 -1.2306  0.4150 -1.9172
 2989THY    HP774714   4.377   6.551   5.985 -0.5433  0.5268 -0.4930
 2989THY    CA374715   4.143   6.681   6.289 -0.2004  0.0069 -0.1243
 2989THY    HA374716   4.229   6.746   6.279  2.2080 -2.9680  0.0442
 2989THY    CA474717   4.057   6.690   6.403 -0.3301  0.4869  0.4164
 2989THY    HA474718   4.083   6.759   6.483  2.3214 -2.0384  1.9142
 2989THY    CA574719   3.942   6.617   6.409  0.4282  0.4411 -0.5191
 2989THY    CM174720   3.843   6.641   6.515  0.1207 -0.0837 -0.5024
 2989THY    HM174721   3.860   6.724   6.585 -1.8405 -1.8428  2.2690
 2989THY    HM274722   3.750   6.658   6.459  0.1271 -0.5998 -0.6727
 2989THY    HM374723   3.824   6.550   6.572  0.7809  0.0464 -0.0630
 2989THY    CA674724   3.906   6.526   6.305 -0.8740 -0.4959  0.4017
 2989THY    HA674725   3.812   6.472   6.317 -1.5741  0.6965  0.4343
 2990THY      O74726   0.841   2.467   5.690  1.0114  0.1887 -0.4436
 2990THY     HO74727   0.798   2.548   5.722 -1.2608 -1.0473 -0.1626
 2990THY    CA174728   0.755   2.413   5.599 -0.7183  0.2851  0.5872
 2990THY    CA274729   0.810   2.346   5.481 -0.6756  0.5411  0.5894
 2990THY    CP174730   0.963   2.335   5.462  0.1554  0.3793 -0.1613
 2990THY    HP174731   1.005   2.422   5.516 -1.1542  0.8181  0.1773
 2990THY    CP274732   1.023   2.211   5.512 -0.4907  0.0452  0.4074
 2990THY    HP274733   1.133   2.219   5.517 -0.4747  0.0399  0.0786
 2990THY    HP374734   0.998   2.200   5.618  1.6321  1.7846  1.1633
 2990THY    HP474735   0.987   2.121   5.462 -3.7652  0.9758  0.8677
 2990THY    CP374736   1.004   2.347   5.310 -0.2240  0.9927  0.2601
 2990THY    HP574737   1.112   2.364   5.301  0.3273 -1.5964  1.1825
 2990THY    HP674738   0.977   2.258   5.253 -1.0494  0.6945  1.0959
 2990THY    HP774739   0.937   2.421   5.264 -2.3003 -0.3001  1.0846
 2990THY    CA374740   0.719   2.306   5.390 -0.1167 -0.1898  0.1237
 2990THY    HA374741   0.747   2.250   5.300  2.0908  0.7721  0.1697
 2990THY    CA474742   0.581   2.335   5.399 -0.8223  0.7681  0.2209
 2990THY    HA474743   0.512   2.322   5.317 -1.1416 -0.2131  0.6364
 2990THY    CA574744   0.538   2.401   5.512  0.4768  0.2597  0.2202
 2990THY    CM174745   0.392   2.429   5.531  1.2142  0.1401  0.3773
 2990THY    HM174746   0.338   2.378   5.451  0.0436  1.3894  0.3226
 2990THY    HM274747   0.350   2.391   5.625  0.8636 -0.7698 -0.1369
 2990THY    HM374748   0.375   2.536   5.515 -2.4773 -0.4495 -0.4025
 2990THY    CA674749   0.623   2.437   5.617  0.0753 -0.1152 -0.0100
 2990THY    HA674750   0.590   2.482   5.710  0.2149 -2.0117  0.9903
 2991THY      O74751   2.210   2.326   0.471  0.1961  0.0723  0.3693
 2991THY     HO74752   2.120   2.309   0.439 -0.2386  1.4608  0.7990
 2991THY    CA174753   2.295   2.226   0.448 -0.0974 -0.3623  0.2277
 2991THY    CA274754   2.417   2.223   0.522 -0.3520 -0.3860  0.5407
 2991THY    CP174755   2.448   2.340   0.616 -0.3296  0.0662 -0.4314
 2991THY    HP174756   2.402   2.430   0.573  1.2071  2.0935  1.9013
 2991THY    CP274757   2.378   2.328   0.761 -0.5648 -0.2267  0.0878
 2991THY    HP274758   2.269   2.340   0.757 -0.6006 -0.1662  0.9489
 2991THY    HP374759   2.397   2.228   0.800  2.6279  0.5089  0.7489
 2991THY    HP474760   2.405   2.411   0.829 -1.2439 -0.4621  0.6574
 2991THY    CP374761   2.600   2.381   0.621 -0.4141 -0.2625 -0.5528
 2991THY    HP574762   2.659   2.299   0.662 -0.0044  0.5934  0.6463
 2991THY    HP674763   2.625   2.422   0.523 -0.6840  0.8455 -0.1804
 2991THY    HP774764   2.608   2.469   0.687  0.7282 -0.4073 -0.4875
 2991THY    CA374765   2.503   2.119   0.494  0.4502  0.6317 -0.1780
 2991THY    HA374766   2.595   2.101   0.548  0.5526 -0.0928 -0.5887
 2991THY    CA474767   2.463   2.010   0.415 -0.7606 -0.4347 -0.0093
 2991THY    HA474768   2.523   1.920   0.420 -0.0251  0.1273  2.8249
 2991THY    CA574769   2.338   2.010   0.346  0.5522  0.8204 -0.3007
 2991THY    CM174770   2.284   1.896   0.266 -0.1064  0.6074 -0.0062
 2991THY    HM174771   2.368   1.853   0.211  0.2681  1.5072 -0.1522
 2991THY    HM274772   2.245   1.818   0.333  0.0330  2.4067  2.2748
 2991THY    HM374773   2.202   1.914   0.195  1.2251 -1.9709 -2.4059
 2991THY    CA674774   2.257   2.117   0.369  0.6243  0.2160 -0.7633
 2991THY    HA674775   2.153   2.104   0.340  0.8574 -1.8693 -0.8500
 2992THY      O74776   7.083   7.433   5.003  0.3917 -0.2319 -0.3866
 2992THY     HO74777   6.992   7.454   4.980 -0.1303  0.0036  1.6440
 2992THY    CA174778   7.114   7.324   4.933 -0.0928  0.6189  0.3844
 2992THY    CA274779   7.235   7.301   4.876 -0.2570 -0.5071 -0.3617
 2992THY    CP174780   7.338   7.410   4.897 -0.8825  0.7715  0.1053
 2992THY    HP174781   7.299   7.503   4.940  0.6633  1.2273  0.5875
 2992THY    CP274782   7.450   7.382   5.002  0.8638  0.3388 -0.2203
 2992THY    HP274783   7.509   7.474   5.014  1.2088  0.3557 -1.8332
 2992THY    HP374784   7.402   7.363   5.098  1.4950 -1.8674 -0.2861
 2992THY    HP474785   7.517   7.296   4.991  0.0749 -0.3519  0.2673
 2992THY    CP374786   7.414   7.449   4.769 -0.2601 -0.1238 -0.1628
 2992THY    HP574787   7.484   7.368   4.743  1.3111  1.6886 -1.9562
 2992THY    HP674788   7.361   7.487   4.681 -0.4442 -0.5215 -0.2222
 2992THY    HP774789   7.490   7.527   4.785 -1.9086  1.4403  0.3236
 2992THY    CA374790   7.261   7.189   4.805  0.5258 -0.0796 -0.2269
 2992THY    HA374791   7.359   7.166   4.763  0.3894 -0.2915 -0.4297
 2992THY    CA474792   7.165   7.094   4.785 -0.6114 -0.0945  0.2584
 2992THY    HA474793   7.183   7.003   4.729  0.8751  1.0869 -1.2666
 2992THY    CA574794   7.041   7.108   4.861 -0.5918  0.2794  0.1663
 2992THY    CM174795   6.943   6.991   4.859 -0.7782  0.1663  0.7012
 2992THY    HM174796   6.997   6.906   4.817  1.1729  1.9910 -0.7081
 2992THY    HM274797   6.920   6.969   4.964  0.4497 -1.8336  0.5923
 2992THY    HM374798   6.853   7.011   4.799 -0.0398 -1.6341 -1.0849
 2992THY    CA674799   7.019   7.224   4.934  0.5834 -0.1995  0.2641
 2992THY    HA674800   6.931   7.233   4.997  0.3981 -2.1615  0.3467
 2993THY      O74801   1.828   3.508   2.128  0.1375  0.2986  0.1055
 2993THY     HO74802   1.826   3.426   2.076 -3.4065  0.4096 -0.1778
 2993THY    CA174803   1.850   3.465   2.250 -0.6525  0.6671  0.4434
 2993THY    CA274804   1.836   3.559   2.355  0.0762 -0.0290  0.0737
 2993THY    CP174805   1.803   3.704   2.322  1.0540  0.5265 -1.2922
 2993THY    HP174806   1.773   3.718   2.217  2.1162  0.5607 -1.6053
 2993THY    CP274807   1.686   3.754   2.413 -0.3595 -0.3915 -0.6548
 2993THY    HP274808   1.645   3.838   2.356 -0.3758 -1.8582 -2.9329
 2993THY    HP374809   1.612   3.674   2.427  1.2842 -1.9714 -0.5907
 2993THY    HP474810   1.722   3.781   2.513  0.3845 -0.9677 -0.7610
 2993THY    CP374811   1.927   3.796   2.337 -0.2666  0.2409 -0.1624
 2993THY    HP574812   1.972   3.767   2.432  0.2798 -1.9774 -1.0304
 2993THY    HP674813   2.002   3.768   2.262 -1.3461  0.1036 -1.2147
 2993THY    HP774814   1.914   3.905   2.332 -1.0328  0.3371  2.6620
 2993THY    CA374815   1.852   3.505   2.488 -0.3550 -0.0126 -1.2262
 2993THY    HA374816   1.836   3.561   2.580  3.2224 -2.0463  0.8160
 2993THY    CA474817   1.891   3.372   2.513  0.4934 -0.2177  0.0875
 2993THY    HA474818   1.911   3.343   2.615 -0.4668 -1.2800 -0.0043
 2993THY    CA574819   1.904   3.290   2.399 -0.8102  0.2804  0.3727
 2993THY    CM174820   1.953   3.148   2.418 -0.0021 -0.4263  0.6100
 2993THY    HM174821   2.062   3.136   2.426  0.1869  1.7508  1.8167
 2993THY    HM274822   1.912   3.110   2.512  0.1632  1.6668  1.5763
 2993THY    HM374823   1.918   3.084   2.335  1.6087 -1.6042  0.7828
 2993THY    CA674824   1.873   3.332   2.270 -0.0220 -0.2595 -0.1579
 2993THY    HA674825   1.896   3.263   2.190  2.4124  0.3291 -0.0548
 2994THY      O74826   2.995   5.916   6.240 -0.4689 -0.4074  0.0571
 2994THY     HO74827   2.907   5.959   6.240 -0.4800 -0.4070 -0.9939
 2994THY    CA174828   3.066   5.984   6.338 -0.2436  1.3165 -0.0836
 2994THY    CA274829   3.203   5.957   6.362 -0.3970 -0.1504 -0.5102
 2994THY    CP174830   3.285   5.856   6.281  0.7916  0.2393 -0.0704
 2994THY    HP174831   3.247   5.844   6.179 -0.3505 -0.4293  0.4195
 2994THY    CP274832   3.439   5.885   6.275  0.7202  0.1980  0.0061
 2994THY    HP274833   3.491   5.812   6.213  0.6823  1.6494 -1.8122
 2994THY    HP374834   3.450   5.978   6.218  2.1264 -0.4893 -0.8912
 2994THY    HP474835   3.502   5.875   6.365 -0.2823 -3.3028  0.4673
 2994THY    CP374836   3.266   5.717   6.344  0.0672  0.0263 -0.2504
 2994THY    HP574837   3.273   5.717   6.454 -2.6808 -0.8442 -0.0050
 2994THY    HP674838   3.161   5.694   6.326  0.3706 -0.2517 -1.7284
 2994THY    HP774839   3.338   5.643   6.308  0.7190  1.5685 -2.3125
 2994THY    CA374840   3.266   6.031   6.462 -0.5886 -0.7649  0.0701
 2994THY    HA374841   3.364   6.006   6.503 -1.9200  0.1728  4.3904
 2994THY    CA474842   3.198   6.136   6.522 -0.1949  0.5308  0.1693
 2994THY    HA474843   3.240   6.193   6.605  0.3951  0.6995 -0.2417
 2994THY    CA574844   3.069   6.168   6.479  0.3454  0.6119  0.2149
 2994THY    CM174845   2.991   6.281   6.541 -0.4053  0.0449  0.4275
 2994THY    HM174846   2.992   6.381   6.496 -0.0116  0.6063  1.6436
 2994THY    HM274847   2.883   6.263   6.548 -0.3035 -2.0189 -1.8327
 2994THY    HM374848   3.025   6.297   6.644 -0.2763  0.9978  0.2474
 2994THY    CA674849   2.999   6.089   6.391 -0.2215 -0.5695  0.2171
 2994THY    HA674850   2.901   6.120   6.357  0.1000 -0.3257 -0.5024
 2995THY      O74851   3.122   5.023   8.659 -0.1812 -0.0951 -1.0239
 2995THY     HO74852   3.154   4.933   8.641  0.3499  0.0344 -0.7488
 2995THY    CA174853   2.985   5.026   8.644  0.5571 -0.2553 -0.7733
 2995THY    CA274854   2.917   5.129   8.579 -0.0795 -0.0851  0.5204
 2995THY    CP174855   2.989   5.255   8.547 -0.0755  0.0113  0.5198
 2995THY    HP174856   3.098   5.246   8.560  0.0622  1.0807  0.1995
 2995THY    CP274857   2.963   5.319   8.408  0.1834 -0.6082  0.0804
 2995THY    HP274858   3.008   5.267   8.322  0.7246  2.6383 -1.7974
 2995THY    HP374859   2.856   5.340   8.400  0.3085  0.6504  1.3031
 2995THY    HP474860   3.012   5.417   8.399  0.3541 -0.7538 -0.7424
 2995THY    CP374861   2.949   5.356   8.652 -0.0174 -0.0781 -0.1778
 2995THY    HP574862   2.841   5.375   8.645 -0.5750 -2.3000  1.3009
 2995THY    HP674863   2.963   5.316   8.753 -2.0785  0.8129  0.5093
 2995THY    HP774864   2.990   5.456   8.635 -1.5726  0.8599  1.2066
 2995THY    CA374865   2.779   5.124   8.563  0.1691  0.1107 -0.2902
 2995THY    HA374866   2.728   5.207   8.516  2.2471  2.0235  0.6196
 2995THY    CA474867   2.705   5.015   8.609 -0.5484 -0.2269  0.3352
 2995THY    HA474868   2.599   5.005   8.587 -0.5354 -0.5351  0.4003
 2995THY    CA574869   2.776   4.915   8.681  0.2358 -0.5774  0.5045
 2995THY    CM174870   2.706   4.792   8.721 -0.3994 -0.6234 -0.0029
 2995THY    HM174871   2.597   4.798   8.713 -0.6392  1.2828  3.1627
 2995THY    HM274872   2.747   4.711   8.660 -1.1417 -0.1237 -1.1992
 2995THY    HM374873   2.721   4.780   8.829  1.9757  1.3708 -0.0112
 2995THY    CA674874   2.918   4.912   8.696 -0.1963  0.4122 -0.6314
 2995THY    HA674875   2.971   4.829   8.741 -1.5143 -0.5934 -0.8794
 2996THY      O74876   2.281   9.500   6.945  0.5274  0.0342 -0.6611
 2996THY     HO74877   2.280   9.427   6.880  1.2155  0.2491 -0.9254
 2996THY    CA174878   2.174   9.574   6.911 -0.1597 -0.4017  0.1841
 2996THY    CA274879   2.137   9.694   6.983 -0.2787 -0.0181  0.4340
 2996THY    CP174880   2.237   9.756   7.087 -0.7593  0.1544 -0.8617
 2996THY    HP174881   2.333   9.704   7.103  0.3140  2.6115  1.7387
 2996THY    CP274882   2.289   9.897   7.052  1.1438 -0.8008  0.3591
 2996THY    HP274883   2.371   9.931   7.116  1.4348 -0.4890 -0.1777
 2996THY    HP374884   2.332   9.891   6.952  0.1163 -1.0714 -0.0858
 2996THY    HP474885   2.206   9.968   7.037  1.1483 -1.0818 -1.1832
 2996THY    CP374886   2.169   9.766   7.233 -0.5200  0.0529  0.5121
 2996THY    HP574887   2.100   9.852   7.228 -1.8195 -1.0112 -1.1711
 2996THY    HP674888   2.112   9.675   7.256 -0.6332 -0.3827 -1.3235
 2996THY    HP774889   2.240   9.790   7.312  2.0544  0.7917 -1.8810
 2996THY    CA374890   2.021   9.766   6.950  0.2284 -0.3446  0.1181
 2996THY    HA374891   1.983   9.848   7.010  1.0461 -0.5162  0.8910
 2996THY    CA474892   1.936   9.716   6.845  0.2695  0.1232 -0.1122
 2996THY    HA474893   1.832   9.746   6.833  0.6737  2.2550  1.2461
 2996THY    CA574894   1.974   9.613   6.759  0.2395 -0.2002  0.1568
 2996THY    CM174895   1.882   9.575   6.649 -1.2077 -0.2961  0.8506
 2996THY    HM174896   1.926   9.502   6.581 -0.2736  0.9118  0.1200
 2996THY    HM274897   1.800   9.527   6.704 -0.5804 -0.5044  1.6149
 2996THY    HM374898   1.849   9.658   6.585 -0.1579 -0.0530  0.6113
 2996THY    CA674899   2.092   9.537   6.796  0.2397 -0.5510  0.1083
 2996THY    HA674900   2.111   9.446   6.739 -1.9000  0.6286 -2.7354
 2997THY      O74901   4.965   3.440   7.799  0.8254  0.0310  0.0805
 2997THY     HO74902   5.024   3.394   7.737  0.7254 -0.8820  0.6365
 2997THY    CA174903   4.834   3.410   7.773 -0.0197 -0.0239  0.4207
 2997THY    CA274904   4.726   3.485   7.830  0.3333  0.2334  0.4376
 2997THY    CP174905   4.757   3.601   7.921  0.0281  0.5636 -0.4646
 2997THY    HP174906   4.839   3.572   7.987  0.1251  1.9847  0.0926
 2997THY    CP274907   4.798   3.730   7.844 -0.2354 -0.4044  0.0450
 2997THY    HP274908   4.798   3.816   7.912  0.6026 -0.2407 -0.1505
 2997THY    HP374909   4.899   3.723   7.802 -0.2895 -0.4522 -0.0789
 2997THY    HP474910   4.726   3.739   7.762  0.6772  1.4979 -0.5980
 2997THY    CP374911   4.637   3.641   8.011 -0.7275  0.0557  0.3486
 2997THY    HP574912   4.554   3.695   7.965 -1.0366 -1.6029 -1.1493
 2997THY    HP674913   4.589   3.556   8.061  0.4456 -1.2628 -0.6944
 2997THY    HP774914   4.681   3.707   8.087 -3.2529  0.7760  1.2884
 2997THY    CA374915   4.600   3.475   7.770  0.3347 -0.0769 -0.1945
 2997THY    HA374916   4.517   3.535   7.806  1.1433  1.9838 -1.5909
 2997THY    CA474917   4.577   3.369   7.688 -0.2165  0.3187  0.1228
 2997THY    HA474918   4.475   3.347   7.656  0.2442 -1.2999 -0.3581
 2997THY    CA574919   4.671   3.278   7.645  0.1035 -0.2671 -0.2512
 2997THY    CM174920   4.643   3.176   7.547  1.0881 -0.4064  0.2722
 2997THY    HM174921   4.546   3.191   7.499  1.2202  1.9678  0.6274
 2997THY    HM274922   4.719   3.195   7.470 -1.2080  0.8064 -1.8578
 2997THY    HM374923   4.651   3.074   7.586 -1.7218 -0.2765  1.3966
 2997THY    CA674924   4.806   3.301   7.688 -0.3932 -0.2471  0.5536
 2997THY    HA674925   4.886   3.233   7.660 -0.9225 -0.5939 -0.1391
 2998THY      O74926   1.392   8.636   0.377 -0.1657  0.2792  0.2625
 2998THY     HO74927   1.404   8.725   0.340  2.8093 -1.1424 -2.7492
 2998THY    CA174928   1.468   8.624   0.495  0.2172 -0.2464 -0.8203
 2998THY    CA274929   1.429   8.537   0.603 -0.4093 -0.4798 -0.2946
 2998THY    CP174930   1.305   8.457   0.591 -0.1598 -0.0001 -0.1728
 2998THY    HP174931   1.248   8.493   0.504 -0.9950 -1.7080 -0.3731
 2998THY    CP274932   1.342   8.310   0.548  0.3145  0.2572 -0.1303
 2998THY    HP274933   1.247   8.264   0.518  0.9457  0.9887 -3.6543
 2998THY    HP374934   1.416   8.300   0.468  0.2292 -0.1930 -0.1555
 2998THY    HP474935   1.381   8.264   0.639 -1.0358 -0.8633 -0.0828
 2998THY    CP374936   1.219   8.458   0.717  0.6756 -0.3434 -0.0549
 2998THY    HP574937   1.264   8.441   0.815 -0.1780  0.7640  0.5481
 2998THY    HP674938   1.174   8.558   0.717  0.6306 -0.3524 -1.1357
 2998THY    HP774939   1.137   8.389   0.696  1.0884 -1.4460  1.7859
 2998THY    CA374940   1.518   8.527   0.715  0.8364 -0.0212 -0.2273
 2998THY    HA374941   1.491   8.462   0.798 -0.0199 -1.8483 -1.8681
 2998THY    CA474942   1.626   8.617   0.722  0.1334 -0.4240  0.2051
 2998THY    HA474943   1.688   8.613   0.811 -0.6135 -0.0784  0.7534
 2998THY    CA574944   1.663   8.701   0.619  0.1184 -0.8025 -0.2999
 2998THY    CM174945   1.782   8.781   0.635  0.1088  0.4719  0.0116
 2998THY    HM174946   1.869   8.714   0.631 -1.0936 -1.1313  0.0858
 2998THY    HM274947   1.800   8.856   0.557  1.2525 -0.2746 -0.4672
 2998THY    HM374948   1.771   8.839   0.728 -4.1590  0.9881 -0.6474
 2998THY    CA674949   1.583   8.704   0.502 -0.2537  0.4022 -0.1081
 2998THY    HA674950   1.621   8.761   0.418  2.0992  0.2357  0.7671
 2999THY      O74951   1.142   4.400   4.823 -0.7939  0.7824  0.5635
 2999THY     HO74952   1.147   4.452   4.905 -0.4653  0.0382  1.0349
 2999THY    CA174953   1.102   4.475   4.725 -0.0607  0.4553 -0.0317
 2999THY    CA274954   1.123   4.443   4.584 -0.2795  1.2656  0.2794
 2999THY    CP174955   1.196   4.314   4.538  0.2082 -0.7945 -0.5657
 2999THY    HP174956   1.220   4.240   4.615  0.6341 -0.1999 -0.1167
 2999THY    CP274957   1.126   4.238   4.442  0.0401 -0.2173  0.3106
 2999THY    HP274958   1.164   4.136   4.424  0.5461 -0.0715  0.5359
 2999THY    HP374959   1.024   4.225   4.480  0.2322  0.8226  1.2307
 2999THY    HP474960   1.105   4.285   4.346  1.4714  1.4251  0.7584
 2999THY    CP374961   1.335   4.356   4.501  0.5379  0.0814 -0.2528
 2999THY    HP574962   1.335   4.420   4.412  1.1103  0.6849  0.1615
 2999THY    HP674963   1.390   4.405   4.583 -1.0216  0.3446  0.6868
 2999THY    HP774964   1.404   4.273   4.484 -0.7613 -1.2210  0.6501
 2999THY    CA374965   1.086   4.536   4.486  0.2649 -0.4060 -0.2462
 2999THY    HA374966   1.087   4.522   4.379 -0.0621  0.9183 -0.4339
 2999THY    CA474967   1.019   4.649   4.532  0.3305 -0.4166 -0.2886
 2999THY    HA474968   0.964   4.708   4.460 -2.2617 -0.8360  1.2090
 2999THY    CA574969   1.005   4.680   4.670  0.1234 -0.3812  0.1154
 2999THY    CM174970   0.919   4.798   4.704  0.1102  0.2603 -0.1846
 2999THY    HM174971   0.896   4.858   4.615  0.0630 -0.1372 -0.4426
 2999THY    HM274972   0.823   4.769   4.749  0.3249 -0.8206 -0.4051
 2999THY    HM374973   0.980   4.858   4.772 -1.9823  1.1195  1.0405
 2999THY    CA674974   1.046   4.589   4.766  0.1292 -0.1682 -0.2668
 2999THY    HA674975   1.024   4.601   4.871  3.2514 -1.1455  0.6041
 3000THY      O74976   0.317   7.817   4.778  0.4253 -0.9984  0.6035
 3000THY     HO74977   0.302   7.761   4.856 -1.0769  0.1975  1.2355
 3000THY    CA174978   0.235   7.769   4.679 -0.1291  0.4209  0.0929
 3000THY    CA274979   0.203   7.845   4.567 -0.2589 -0.2079 -0.7825
 3000THY    CP174980   0.241   7.988   4.555 -0.5575 -0.0912 -0.4679
 3000THY    HP174981   0.262   8.031   4.653  1.4717 -0.7592 -0.5515
 3000THY    CP274982   0.380   8.004   4.484 -0.0749  0.0315 -0.3972
 3000THY    HP274983   0.409   8.110   4.480  1.8939 -0.2414  3.1323
 3000THY    HP374984   0.454   7.955   4.548  0.0195  1.0843  0.3283
 3000THY    HP474985   0.374   7.958   4.385  1.4606  1.2871 -1.1160
 3000THY    CP374986   0.130   8.077   4.497  0.1994  0.5814 -0.5077
 3000THY    HP574987   0.110   8.060   4.391 -0.3207  0.1375 -0.3480
 3000THY    HP674988   0.039   8.063   4.558  1.9012 -1.3558  1.7771
 3000THY    HP774989   0.157   8.182   4.515 -0.6962  0.2206  4.6459
 3000THY    CA374990   0.131   7.780   4.464 -0.2902 -0.1264 -1.0800
 3000THY    HA374991   0.102   7.836   4.375 -0.0578  1.2786 -0.2992
 3000THY    CA474992   0.096   7.645   4.478 -0.0472  0.0111  0.2026
 3000THY    HA474993   0.040   7.594   4.400  2.2751  0.2226 -1.6969
 3000THY    CA574994   0.119   7.578   4.596  0.5196 -0.0480  0.7024
 3000THY    CM174995   0.066   7.441   4.630  0.5996 -0.4702 -0.1996
 3000THY    HM174996   0.145   7.372   4.662 -0.4065 -0.6916  1.9798
 3000THY    HM274997  -0.015   7.441   4.704  0.3475 -2.1311 -0.4404
 3000THY    HM374998   0.009   7.399   4.546 -1.7796  0.8675  0.6256
 3000THY    CA674999   0.189   7.640   4.694 -0.1126  0.4447  0.4636
 3000THY    HA675000   0.209   7.588   4.788  0.1718  0.2758  0.3118
 3001THY      O75001   2.533   6.399   4.329  0.4426  0.0169 -0.0988
 3001THY     HO75002   2.591   6.420   4.404 -0.7134  1.0406  0.5463
 3001THY    CA175003   2.588   6.452   4.220 -0.2935 -0.2071 -0.2491
 3001THY    CA275004   2.556   6.407   4.092  0.2327 -0.9769  0.3984
 3001THY    CP175005   2.457   6.293   4.080  0.2475 -0.0933  0.3925
 3001THY    HP175006   2.456   6.228   4.168  2.4839  0.2614  0.7284
 3001THY    CP275007   2.314   6.354   4.062  0.4705 -0.0817  0.3449
 3001THY    HP275008   2.237   6.276   4.058  0.7083 -0.3564  0.9534
 3001THY    HP375009   2.293   6.429   4.140  0.8428 -0.7585  1.1075
 3001THY    HP475010   2.313   6.409   3.967  0.5101  0.8251  0.8530
 3001THY    CP375011   2.476   6.197   3.955 -0.4959 -0.7553  0.3133
 3001THY    HP575012   2.444   6.100   3.995  0.0192 -0.2978  1.9020
 3001THY    HP675013   2.435   6.225   3.858  1.3431 -1.5849 -0.7596
 3001THY    HP775014   2.584   6.191   3.940 -0.2998 -0.0862  1.3335
 3001THY    CA375015   2.604   6.476   3.981 -0.2060 -0.0012  0.2891
 3001THY    HA375016   2.578   6.444   3.881  0.1495  2.5998 -0.7301
 3001THY    CA475017   2.690   6.590   4.006 -0.3431 -0.5595 -0.1153
 3001THY    HA475018   2.733   6.643   3.922  0.8005  1.1482  1.4583
 3001THY    CA575019   2.725   6.621   4.138  0.0913  0.5072  0.5402
 3001THY    CM175020   2.813   6.740   4.163  0.1062  0.5301  0.0781
 3001THY    HM175021   2.762   6.836   4.175 -0.6175 -0.0784  2.4169
 3001THY    HM275022   2.877   6.731   4.252  2.1859  1.4803 -1.2251
 3001THY    HM375023   2.885   6.757   4.082 -0.2903  4.1719  0.3381
 3001THY    CA675024   2.678   6.551   4.243 -0.7707 -0.8188  0.3273
 3001THY    HA675025   2.706   6.589   4.341  1.4334  0.9105 -0.8837
 3002THY      O75026   6.346   0.526   3.200  0.3195  0.1339  0.3369
 3002THY     HO75027   6.273   0.463   3.187  1.2839 -1.3533  1.7582
 3002THY    CA175028   6.331   0.587   3.317 -0.0708 -0.3636 -0.3052
 3002THY    CA275029   6.446   0.635   3.391  0.1466 -0.5824  0.8697
 3002THY    CP175030   6.585   0.585   3.349 -0.1449 -0.3861 -0.2060
 3002THY    HP175031   6.567   0.591   3.241 -0.0911  2.4423 -0.1273
 3002THY    CP275032   6.696   0.693   3.368  0.0615  0.2555  0.3194
 3002THY    HP275033   6.786   0.674   3.309 -0.8386 -0.9112 -0.7307
 3002THY    HP375034   6.655   0.786   3.329 -1.2975  0.0172  1.0949
 3002THY    HP475035   6.726   0.722   3.470 -0.9845  1.4544  0.3105
 3002THY    CP375036   6.601   0.437   3.395 -0.2894 -0.2332  0.4971
 3002THY    HP575037   6.565   0.431   3.498 -1.4870 -1.6505  0.0326
 3002THY    HP675038   6.538   0.380   3.325  1.7235 -0.8675 -0.8840
 3002THY    HP775039   6.706   0.407   3.384  0.0689 -0.2340  3.3398
 3002THY    CA375040   6.437   0.710   3.508 -0.3975  0.0483  0.1909
 3002THY    HA375041   6.521   0.726   3.575  0.6476 -0.8859 -0.8376
 3002THY    CA475042   6.311   0.764   3.539  0.1241 -0.2678  0.1479
 3002THY    HA475043   6.291   0.828   3.624  0.4480  0.3749 -0.2613
 3002THY    CA575044   6.195   0.721   3.468  0.0018 -0.2051 -0.1571
 3002THY    CM175045   6.065   0.772   3.515  0.2511 -0.3459  0.8680
 3002THY    HM175046   6.067   0.794   3.622  1.3126  0.8218  0.6244
 3002THY    HM275047   6.029   0.859   3.458 -0.9208 -1.7396 -0.6392
 3002THY    HM375048   5.977   0.707   3.500  0.1086 -0.0729  0.5051
 3002THY    CA675049   6.208   0.631   3.361 -0.1627  0.6760  0.1769
 3002THY    HA675050   6.127   0.593   3.299  0.7760 -0.3017 -0.4890
 3003THY      O75051   4.455   1.481   9.786 -0.2242 -0.2723  0.4517
 3003THY     HO75052   4.465   1.518   9.697 -0.5230 -1.6164 -0.1624
 3003THY    CA175053   4.475   1.571   9.884  0.3426 -0.1984  0.2562
 3003THY    CA275054   4.481   1.541  10.021  0.7777 -0.3720  0.6353
 3003THY    CP175055   4.453   1.397  10.078 -0.8598  0.3102 -0.1965
 3003THY    HP175056   4.433   1.320  10.002 -0.8939 -3.7326  3.5445
 3003THY    CP275057   4.575   1.332  10.141  0.1004 -0.5836  0.2641
 3003THY    HP275058   4.658   1.363  10.076 -1.0950  0.8645 -0.6603
 3003THY    HP375059   4.600   1.380  10.236  1.2486 -1.2462  0.3142
 3003THY    HP475060   4.555   1.225  10.149  1.8630 -0.8597  1.5977
 3003THY    CP375061   4.325   1.405  10.170  0.1020  0.8763 -0.6349
 3003THY    HP575062   4.307   1.304  10.209 -2.1807  1.8829  1.1819
 3003THY    HP675063   4.337   1.475  10.254 -0.2688 -0.4605  0.5751
 3003THY    HP775064   4.234   1.432  10.115  0.4935 -2.3797 -3.1991
 3003THY    CA375065   4.504   1.647  10.109 -0.7239  0.4571 -1.0599
 3003THY    HA375066   4.503   1.629  10.216 -1.1582  1.5183 -0.8787
 3003THY    CA475067   4.518   1.778  10.067 -0.2575  0.8662 -0.3472
 3003THY    HA475068   4.532   1.859  10.138  1.6474 -0.2459  0.6347
 3003THY    CA575069   4.522   1.799   9.933  0.7414 -0.3259  0.0987
 3003THY    CM175070   4.544   1.939   9.889 -0.2022  0.3486 -0.1560
 3003THY    HM175071   4.592   1.943   9.790  0.0073  2.9366  0.0015
 3003THY    HM275072   4.447   1.989   9.879  0.4391  1.6637 -0.0232
 3003THY    HM375073   4.598   1.990   9.969 -0.2410 -0.2315  0.2461
 3003THY    CA675074   4.498   1.700   9.843  0.3016 -0.2896 -0.4159
 3003THY    HA675075   4.504   1.716   9.736 -3.2661 -0.3478 -0.7510
 3004THY      O75076   9.254   0.009   2.824  0.0543 -0.5572  0.1094
 3004THY     HO75077   9.328   0.072   2.816 -0.1159 -0.5428 -1.6947
 3004THY    CA175078   9.272  -0.043   2.949 -0.5401 -0.4619 -0.4905
 3004THY    CA275079   9.191  -0.148   2.988 -0.4630  0.6133  0.4927
 3004THY    CP175080   9.082  -0.207   2.896 -0.0304 -0.4202 -0.4835
 3004THY    HP175081   9.085  -0.179   2.790 -0.3975 -0.7131 -0.5726
 3004THY    CP275082   9.077  -0.363   2.901 -0.5425 -0.8940  0.1283
 3004THY    HP275083   9.175  -0.409   2.879 -0.2257 -0.1837  0.0292
 3004THY    HP375084   9.057  -0.389   3.005  0.1571  1.3457  0.8736
 3004THY    HP475085   9.001  -0.392   2.828 -0.0149  3.3193 -2.4133
 3004THY    CP375086   8.952  -0.157   2.954 -0.2301  0.6205 -0.6294
 3004THY    HP575087   8.931  -0.196   3.054 -2.7261 -1.0472 -1.6973
 3004THY    HP675088   8.968  -0.049   2.950 -1.9962  0.8955 -1.0155
 3004THY    HP775089   8.867  -0.166   2.885 -0.6693  2.4613 -0.3636
 3004THY    CA375090   9.208  -0.192   3.126  0.5175 -0.0760 -0.0539
 3004THY    HA375091   9.151  -0.276   3.164  1.3095  0.4733  2.5691
 3004THY    CA475092   9.306  -0.139   3.211  0.1048  0.4368 -0.6180
 3004THY    HA475093   9.326  -0.185   3.308  0.7102 -0.3499 -1.0991
 3004THY    CA575094   9.384  -0.032   3.157 -0.0644  0.5658 -0.2486
 3004THY    CM175095   9.482   0.049   3.237  0.0260 -0.2493  0.1779
 3004THY    HM175096   9.524  -0.015   3.315 -0.0592 -2.7217 -1.7060
 3004THY    HM275097   9.566   0.086   3.176  0.9566  0.5778  1.9001
 3004THY    HM375098   9.440   0.140   3.281  0.8188  1.7689 -2.8905
 3004THY    CA675099   9.366   0.018   3.025 -0.3084  0.3191 -0.5506
 3004THY    HA675100   9.416   0.109   2.991 -0.4196  0.3366 -0.6682
 3005THY      O75101   4.866   1.008   7.558 -0.3479  0.0685 -0.2739
 3005THY     HO75102   4.909   0.924   7.535 -2.0175 -0.2283 -2.6719
 3005THY    CA175103   4.931   1.056   7.669  0.1182  0.1869  0.2231
 3005THY    CA275104   4.906   1.185   7.718  0.7320  0.5601 -0.1780
 3005THY    CP175105   4.812   1.274   7.640  0.8831 -0.0337  0.0404
 3005THY    HP175106   4.750   1.216   7.571 -0.3338 -0.7642  1.6739
 3005THY    CP275107   4.722   1.345   7.742  0.4972 -0.3015 -0.3563
 3005THY    HP275108   4.655   1.277   7.795  1.1890 -0.9067 -0.2372
 3005THY    HP375109   4.769   1.408   7.818 -1.1762  0.0603  0.4100
 3005THY    HP475110   4.668   1.417   7.679  1.5304  0.7306 -0.0890
 3005THY    CP375111   4.893   1.370   7.549  0.1483 -0.8229 -0.5090
 3005THY    HP575112   4.948   1.442   7.610  0.2008 -0.9219 -0.4404
 3005THY    HP675113   4.960   1.310   7.485 -2.4493 -1.9457 -2.3608
 3005THY    HP775114   4.834   1.422   7.472 -1.8044  0.7207  1.9000
 3005THY    CA375115   4.986   1.224   7.834  0.3038 -0.4538  0.2207
 3005THY    HA375116   4.994   1.323   7.878  1.2822 -1.2401  1.8904
 3005THY    CA475117   5.070   1.132   7.898 -0.0803 -0.8330  0.5283
 3005THY    HA475118   5.136   1.158   7.979  2.5241  0.2001 -1.7751
 3005THY    CA575119   5.079   1.002   7.852 -0.9967  0.4502 -0.4263
 3005THY    CM175120   5.165   0.898   7.909  0.0354  0.7111 -0.0946
 3005THY    HM175121   5.272   0.904   7.883  0.1466  1.6512  0.5176
 3005THY    HM275122   5.165   0.908   8.018  2.4984  1.2193 -0.0810
 3005THY    HM375123   5.113   0.805   7.885  0.2648  0.3719  0.6868
 3005THY    CA675124   5.007   0.967   7.739  0.4624  0.3288 -0.3784
 3005THY    HA675125   5.013   0.862   7.710  0.5836 -0.2255  1.5408
 3006THY      O75126   4.491   2.949   2.289  0.3207 -0.3867 -0.1412
 3006THY     HO75127   4.405   2.914   2.316  0.3894 -0.8551 -0.5185
 3006THY    CA175128   4.505   3.071   2.348  0.4207  0.5067  0.5063
 3006THY    CA275129   4.562   3.179   2.280  0.2542 -0.1049  0.1825
 3006THY    CP175130   4.596   3.156   2.136 -0.6201 -0.0423  0.7797
 3006THY    HP175131   4.527   3.081   2.095  0.9294 -1.9029  1.4546
 3006THY    CP275132   4.589   3.275   2.040 -0.5113 -0.1475  0.4446
 3006THY    HP275133   4.490   3.319   2.026 -0.4692 -0.9753 -3.8599
 3006THY    HP375134   4.649   3.358   2.079 -0.0339  1.0793 -2.6181
 3006THY    HP475135   4.626   3.248   1.940  0.5521 -1.3929  1.1442
 3006THY    CP375136   4.733   3.097   2.100 -0.2394  0.2631  0.2180
 3006THY    HP575137   4.739   3.076   1.992 -2.2645  0.1652  0.0748
 3006THY    HP675138   4.812   3.163   2.136 -0.3437 -0.6314  2.2158
 3006THY    HP775139   4.746   3.000   2.150  1.1409  1.6964  2.8475
 3006THY    CA375140   4.602   3.292   2.351  0.3660 -0.3387  0.0243
 3006THY    HA375141   4.656   3.375   2.306  0.6604  0.1435  1.2211
 3006THY    CA475142   4.558   3.301   2.488 -0.0215 -0.2912 -0.3376
 3006THY    HA475143   4.576   3.386   2.553 -0.6580 -0.9321  0.6969
 3006THY    CA575144   4.488   3.194   2.550 -0.3394 -0.0906 -0.2077
 3006THY    CM175145   4.456   3.198   2.698  0.2627 -0.6965  0.4333
 3006THY    HM175146   4.487   3.109   2.754  1.6749 -1.2322 -1.1013
 3006THY    HM275147   4.518   3.276   2.743  3.3408 -2.3877 -0.5711
 3006THY    HM375148   4.352   3.226   2.716  0.4717  0.4862 -0.1045
 3006THY    CA675149   4.463   3.079   2.480 -0.2863  0.7337  0.6024
 3006THY    HA675150   4.418   2.987   2.515 -0.7466  0.0128 -1.7104
 3007THY      O75151   2.914   7.125   1.463  0.6348  0.5222  0.1268
 3007THY     HO75152   2.912   7.221   1.476  0.7507  0.3820  1.3202
 3007THY    CA175153   2.986   7.097   1.361  0.1326  0.2016  0.4907
 3007THY    CA275154   3.027   6.966   1.337 -0.1162 -0.7649 -0.0052
 3007THY    CP175155   2.995   6.856   1.438  0.3970 -0.2508 -0.2384
 3007THY    HP175156   2.924   6.882   1.518  0.5862 -0.4584 -0.0019
 3007THY    CP275157   2.924   6.735   1.374  0.3034 -0.2487  0.3950
 3007THY    HP275158   2.987   6.696   1.293  1.7595  0.3466  1.1964
 3007THY    HP375159   2.906   6.645   1.433 -0.5507 -1.5045 -1.6628
 3007THY    HP475160   2.825   6.767   1.339  0.5655 -0.3730 -0.4767
 3007THY    CP375161   3.113   6.799   1.517 -0.0602  0.3651 -0.0361
 3007THY    HP575162   3.075   6.716   1.579 -1.1469 -0.9903 -2.3470
 3007THY    HP675163   3.188   6.750   1.454  0.9145  2.0163 -0.1946
 3007THY    HP775164   3.161   6.875   1.579  2.7855 -2.5102  1.5921
 3007THY    CA375165   3.125   6.943   1.235 -0.5082 -0.4631  0.0503
 3007THY    HA375166   3.161   6.843   1.215  1.1061  0.0723  0.0886
 3007THY    CA475167   3.162   7.048   1.147 -0.0093 -0.5936  0.2283
 3007THY    HA475168   3.231   7.036   1.064 -0.1358  0.8734 -0.1262
 3007THY    CA575169   3.103   7.172   1.158  0.2709  0.1711 -0.1939
 3007THY    CM175170   3.141   7.276   1.062  0.5952 -0.3175  0.2435
 3007THY    HM175171   3.100   7.267   0.961 -0.1818 -2.3347  0.6843
 3007THY    HM275172   3.117   7.377   1.098  0.6742  0.3296 -1.4324
 3007THY    HM375173   3.249   7.274   1.043  1.0896  2.1294  2.2639
 3007THY    CA675174   3.022   7.198   1.271  0.2747 -0.3463  0.0891
 3007THY    HA675175   2.992   7.302   1.282  1.2503 -0.1083  0.6244
 3008THY      O75176   1.119   7.722   2.816  0.0193 -0.3553 -0.1706
 3008THY     HO75177   1.196   7.757   2.864 -0.3548  1.5836 -0.8987
 3008THY    CA175178   1.026   7.707   2.911 -0.3365 -0.0531 -0.1326
 3008THY    CA275179   0.905   7.645   2.888  0.0021  0.7176  0.1174
 3008THY    CP175180   0.882   7.603   2.739  0.7405  0.4853 -0.5542
 3008THY    HP175181   0.982   7.596   2.693  1.7831 -0.3793  1.7217
 3008THY    CP275182   0.809   7.471   2.726  0.1512 -0.3394  0.1156
 3008THY    HP275183   0.709   7.482   2.769  0.7550 -0.9451  1.7733
 3008THY    HP375184   0.794   7.444   2.621 -0.7362  1.8728 -0.3759
 3008THY    HP475185   0.842   7.380   2.779 -1.1212 -0.2390  1.1341
 3008THY    CP375186   0.793   7.711   2.667  0.5324  0.0704  0.1363
 3008THY    HP575187   0.777   7.692   2.560 -1.2393  0.7271  0.2535
 3008THY    HP675188   0.693   7.705   2.712  0.4167  1.4880  0.1233
 3008THY    HP775189   0.826   7.813   2.688 -0.0073  0.3097 -0.1437
 3008THY    CA375190   0.810   7.625   2.983 -0.1286  0.1696  0.7319
 3008THY    HA375191   0.718   7.572   2.959  0.3385 -0.3923  0.1340
 3008THY    CA475192   0.837   7.683   3.108 -0.4943 -0.2229 -0.0194
 3008THY    HA475193   0.756   7.677   3.181 -2.5458  0.7022 -2.0918
 3008THY    CA575194   0.957   7.741   3.138 -0.9363 -0.2504  0.2250
 3008THY    CM175195   0.989   7.788   3.274  0.0690  0.3124 -0.3159
 3008THY    HM175196   1.072   7.733   3.319 -0.4611  0.3158  0.7043
 3008THY    HM275197   1.022   7.892   3.266  2.1426 -0.4315 -2.4090
 3008THY    HM375198   0.899   7.780   3.338 -0.4666 -1.5183 -1.2345
 3008THY    CA675199   1.056   7.755   3.034  0.0578 -0.2453 -0.1141
 3008THY    HA675200   1.154   7.796   3.057 -0.2837  0.8802 -0.5724
 3009THY      O75201   0.019   6.360   8.077  0.3073 -0.0766 -0.4228
 3009THY     HO75202  -0.077   6.352   8.089  0.1723 -0.1563 -1.4538
 3009THY    CA175203   0.084   6.242   8.103  0.5208  0.3384 -0.4801
 3009THY    CA275204   0.197   6.209   8.028 -0.1304 -0.0217  0.0869
 3009THY    CP175205   0.259   6.307   7.926  0.0465  0.6517 -0.1875
 3009THY    HP175206   0.175   6.363   7.886 -0.5396  0.0468  0.1780
 3009THY    CP275207   0.344   6.425   7.989 -0.5485  0.4345 -0.2096
 3009THY    HP275208   0.345   6.513   7.925  1.4911  0.1902 -0.5863
 3009THY    HP375209   0.298   6.443   8.087  0.1462  1.8678 -0.1210
 3009THY    HP475210   0.444   6.384   8.005 -0.5455  0.5970  0.1942
 3009THY    CP375211   0.334   6.258   7.806 -0.0827 -0.3716  0.5477
 3009THY    HP575212   0.432   6.224   7.840 -0.4645 -3.8451 -1.2969
 3009THY    HP675213   0.290   6.180   7.742  0.6391  1.4736 -2.3851
 3009THY    HP775214   0.342   6.351   7.748  2.0929  0.3643  1.9467
 3009THY    CA375215   0.265   6.086   8.058 -0.7765  0.4906  0.8284
 3009THY    HA375216   0.353   6.072   7.996 -1.1616  1.1776  0.1042
 3009THY    CA475217   0.210   5.994   8.152 -0.2432  0.9345 -1.1101
 3009THY    HA475218   0.255   5.899   8.180  0.1793  1.4654  0.0217
 3009THY    CA575219   0.092   6.028   8.218  0.2847  0.2701 -0.3823
 3009THY    CM175220   0.022   5.928   8.305  0.2300  0.2521 -0.2730
 3009THY    HM175221  -0.065   5.965   8.360  0.3469 -1.4591  1.1719
 3009THY    HM275222  -0.007   5.841   8.245 -0.6016 -0.0226  0.5000
 3009THY    HM375223   0.101   5.891   8.372  0.1924  2.1068  0.8788
 3009THY    CA675224   0.028   6.153   8.194 -0.3438 -0.1382  0.4146
 3009THY    HA675225  -0.062   6.179   8.250 -0.1999  1.3013  0.0063
 3010THY      O75226   9.036   4.759   0.216 -0.3937 -0.5231 -0.5564
 3010THY     HO75227   9.095   4.719   0.150 -0.3705 -1.2493 -0.1109
 3010THY    CA175228   8.939   4.832   0.161  0.0553  0.2151  0.7709
 3010THY    CA275229   8.833   4.885   0.230  0.7231 -0.6422 -0.1159
 3010THY    CP175230   8.811   4.856   0.384  0.5690 -0.1837  0.5625
 3010THY    HP175231   8.888   4.794   0.431  0.5737 -1.9734 -1.6325
 3010THY    CP275232   8.802   4.985   0.462 -0.3686 -0.0678  0.5877
 3010THY    HP275233   8.790   4.978   0.571 -0.5954 -1.6832  0.4753
 3010THY    HP375234   8.898   5.037   0.451  0.1859 -1.4789 -2.0242
 3010THY    HP475235   8.722   5.053   0.429  0.5921  0.9320  0.2309
 3010THY    CP375236   8.687   4.768   0.402 -0.1472  0.1572  0.1498
 3010THY    HP575237   8.647   4.771   0.504  0.5854 -2.4321  0.5733
 3010THY    HP675238   8.612   4.806   0.332  0.7674 -0.5392 -1.2421
 3010THY    HP775239   8.698   4.665   0.369  0.8417  0.6630 -1.1754
 3010THY    CA375240   8.753   4.984   0.160  0.0158 -0.5021 -0.3862
 3010THY    HA375241   8.676   5.037   0.216  2.0371  0.7967  1.3305
 3010THY    CA475242   8.766   5.009   0.026  0.6197  0.1787  0.5704
 3010THY    HA475243   8.693   5.075  -0.019  1.4325  0.9406  0.3286
 3010THY    CA575244   8.867   4.939  -0.047 -0.1020  0.1510  0.2597
 3010THY    CM175245   8.878   4.959  -0.195 -0.2710 -0.5007 -0.9009
 3010THY    HM175246   8.829   4.884  -0.257 -0.1573  0.8047 -2.6473
 3010THY    HM275247   8.838   5.056  -0.228 -0.6076  0.2320  1.4687
 3010THY    HM375248   8.982   4.969  -0.229 -0.8986 -2.2855 -3.5837
 3010THY    CA675249   8.953   4.850   0.018 -0.7805  0.6829 -0.2549
 3010THY    HA675250   9.027   4.803  -0.046  0.4135 -0.5115  1.8897
 3011THY      O75251   3.249   0.940   4.944  0.3515  0.5836 -0.6536
 3011THY     HO75252   3.210   1.019   4.903 -0.2901  0.8494  0.4484
 3011THY    CA175253   3.170   0.911   5.046 -0.0701  0.8499 -0.7517
 3011THY    CA275254   3.203   0.813   5.143 -0.2192 -0.2266  0.0989
 3011THY    CP175255   3.328   0.722   5.119 -0.9040  1.0883 -0.2619
 3011THY    HP175256   3.360   0.717   5.014  0.1803  1.2121  0.0444
 3011THY    CP275257   3.446   0.771   5.208 -0.5247 -0.7016  0.3123
 3011THY    HP275258   3.534   0.706   5.215 -2.9032 -4.2751 -0.2559
 3011THY    HP375259   3.494   0.854   5.156  1.3646 -0.2471  2.6051
 3011THY    HP475260   3.415   0.809   5.306 -0.1230 -0.6285  0.4119
 3011THY    CP375261   3.302   0.584   5.159 -0.6063 -0.3321 -0.3859
 3011THY    HP575262   3.308   0.566   5.267  2.1250  0.2475 -0.3772
 3011THY    HP675263   3.210   0.544   5.115  1.2231 -1.8402 -3.1200
 3011THY    HP775264   3.388   0.529   5.119  0.2679  1.1514 -0.6062
 3011THY    CA375265   3.130   0.795   5.267 -0.2085  0.2025  0.2821
 3011THY    HA375266   3.156   0.714   5.334 -0.0186 -2.6472 -3.0206
 3011THY    CA475267   3.028   0.889   5.282  0.1626 -0.5778 -0.2986
 3011THY    HA475268   2.975   0.875   5.376 -0.9177 -0.0792 -0.8174
 3011THY    CA575269   2.999   0.988   5.189  0.1243  0.4651  0.3388
 3011THY    CM175270   2.899   1.092   5.219 -0.0593 -0.4163 -0.0486
 3011THY    HM175271   2.831   1.067   5.302  2.3448  1.3209  2.6228
 3011THY    HM275272   2.947   1.186   5.249 -3.9787  1.3189  1.4884
 3011THY    HM375273   2.847   1.102   5.123  0.4064 -3.9597 -0.8354
 3011THY    CA675274   3.072   1.003   5.072  0.8904  0.6479 -0.2697
 3011THY    HA675275   3.044   1.074   4.995 -2.9873 -0.6538 -0.3107
 3012THY      O75276   7.377   1.136   7.233  0.1159  0.1289  0.1538
 3012THY     HO75277   7.281   1.127   7.246 -0.1625  0.1355 -1.6787
 3012THY    CA175278   7.406   1.214   7.342  0.8590 -0.3556  0.0192
 3012THY    CA275279   7.526   1.208   7.409 -0.3991  0.1455  0.5100
 3012THY    CP175280   7.638   1.126   7.338 -0.9776 -0.2139  0.0380
 3012THY    HP175281   7.627   1.120   7.229  1.3404 -1.5591 -0.2089
 3012THY    CP275282   7.785   1.174   7.366  1.0150  0.8296  1.0301
 3012THY    HP275283   7.784   1.283   7.365  0.8282  0.9206 -2.2672
 3012THY    HP375284   7.813   1.143   7.467  1.5295 -0.9517  0.3814
 3012THY    HP475285   7.855   1.135   7.291 -0.9813  0.5675 -0.8464
 3012THY    CP375286   7.630   0.977   7.382 -0.4938  0.8411  0.1332
 3012THY    HP575287   7.547   0.967   7.453  0.8757 -1.1086  1.5762
 3012THY    HP675288   7.611   0.909   7.298 -1.7841  1.2768  0.0506
 3012THY    HP775289   7.723   0.945   7.431  0.3186  1.3725 -1.0183
 3012THY    CA375290   7.541   1.277   7.529 -0.8541 -0.4991  0.3916
 3012THY    HA375291   7.635   1.261   7.579  0.4162  1.5883 -1.1622
 3012THY    CA475292   7.437   1.359   7.578 -0.3912  0.7019 -0.5300
 3012THY    HA475293   7.456   1.421   7.665 -0.4566  1.8485 -1.3012
 3012THY    CA575294   7.316   1.366   7.507 -0.0214  0.1982  0.5700
 3012THY    CM175295   7.200   1.452   7.554  0.2109 -0.0958  0.2106
 3012THY    HM175296   7.230   1.557   7.564 -1.1464  0.3135  0.1317
 3012THY    HM275297   7.128   1.455   7.472 -0.4644  0.7631  0.8197
 3012THY    HM375298   7.168   1.413   7.652 -0.2459  2.1154  0.9965
 3012THY    CA675299   7.301   1.291   7.392  0.1675  0.2413  0.3934
 3012THY    HA675300   7.201   1.284   7.349  0.2365 -1.4470  0.4360
 3013THY      O75301   7.470   6.083   4.111 -0.3195  0.7203 -0.4635
 3013THY     HO75302   7.508   6.121   4.030 -1.8283  0.0326 -1.5412
 3013THY    CA175303   7.462   6.186   4.201 -0.5618  0.4264  0.2615
 3013THY    CA275304   7.453   6.155   4.339  0.0432  0.0328  0.0820
 3013THY    CP175305   7.493   6.012   4.392  0.1889 -0.6453  0.1353
 3013THY    HP175306   7.511   5.935   4.317 -2.0138  0.4540 -1.6711
 3013THY    CP275307   7.626   6.028   4.477  0.0837  0.2922  0.5075
 3013THY    HP275308   7.600   6.089   4.564  2.6305 -0.4235  1.8910
 3013THY    HP375309   7.652   5.932   4.523  0.4841  0.7736  1.3009
 3013THY    HP475310   7.700   6.075   4.411  0.7254 -0.3867  0.7196
 3013THY    CP375311   7.385   5.941   4.472  0.2495  0.2022 -0.2672
 3013THY    HP575312   7.319   5.891   4.400 -0.0196 -0.7373  0.6127
 3013THY    HP675313   7.419   5.867   4.545 -0.6447  0.6240  0.6025
 3013THY    HP775314   7.329   6.009   4.537  0.2827 -0.2007  0.1909
 3013THY    CA375315   7.440   6.260   4.430 -0.6947 -0.4133 -0.2871
 3013THY    HA375316   7.432   6.242   4.536 -1.1939 -0.8322 -0.3927
 3013THY    CA475317   7.426   6.396   4.385 -0.4434  0.1545 -0.0760
 3013THY    HA475318   7.406   6.481   4.450  2.0276  0.5912  0.2040
 3013THY    CA575319   7.439   6.422   4.249  0.3520 -0.1789  0.0679
 3013THY    CM175320   7.448   6.567   4.203  0.7525 -0.1678 -0.3765
 3013THY    HM175321   7.540   6.620   4.229  1.6392 -1.2651 -1.1501
 3013THY    HM275322   7.456   6.555   4.094 -0.6906 -0.4181 -0.4778
 3013THY    HM375323   7.358   6.628   4.211  1.1548  0.4188 -0.2701
 3013THY    CA675324   7.456   6.318   4.158  0.6134 -0.4361 -0.2610
 3013THY    HA675325   7.462   6.344   4.053  2.0416  0.2494 -0.0414
 3014THY      O75326   8.598   1.851   7.061 -0.4631  0.1500  0.1414
 3014THY     HO75327   8.583   1.760   7.030  0.9789 -0.0385 -0.1013
 3014THY    CA175328   8.615   1.858   7.194 -0.5214  0.5281  0.6646
 3014THY    CA275329   8.615   1.983   7.265  0.2540  0.5832  0.0427
 3014THY    CP175330   8.599   2.115   7.193  0.1243 -0.7072  0.1321
 3014THY    HP175331   8.628   2.115   7.087 -2.1049  1.6971 -0.5664
 3014THY    CP275332   8.452   2.150   7.198 -0.8331  0.0641  0.4820
 3014THY    HP275333   8.425   2.248   7.157  0.1216  0.3819  0.5865
 3014THY    HP375334   8.384   2.082   7.146  0.9675 -1.4724  0.0685
 3014THY    HP475335   8.415   2.147   7.302 -1.0522 -0.4547  0.3935
 3014THY    CP375336   8.689   2.232   7.257 -0.2329 -0.1764 -0.5065
 3014THY    HP575337   8.653   2.270   7.353  1.0442 -3.5577  1.4564
 3014THY    HP675338   8.785   2.188   7.286  0.6548  0.5347 -2.2068
 3014THY    HP775339   8.701   2.315   7.186  1.6777  0.9961  1.0726
 3014THY    CA375340   8.635   1.978   7.409 -0.1473 -0.0367  0.6208
 3014THY    HA375341   8.640   2.075   7.456  0.0160  0.7073 -0.8573
 3014THY    CA475342   8.631   1.849   7.468  0.0396 -0.7526 -1.2484
 3014THY    HA475343   8.649   1.828   7.573  2.4278 -1.3219 -1.7243
 3014THY    CA575344   8.623   1.735   7.396  0.5511  0.3059  0.3461
 3014THY    CM175345   8.623   1.600   7.459  0.7535  0.1882 -0.7759
 3014THY    HM175346   8.721   1.578   7.504  0.5107  2.5286  1.0993
 3014THY    HM275347   8.554   1.597   7.544  0.2608 -1.0154 -1.2020
 3014THY    HM375348   8.588   1.525   7.387  0.6189  1.2354 -1.8336
 3014THY    CA675349   8.614   1.736   7.259  0.4608 -0.7324  0.1692
 3014THY    HA675350   8.612   1.645   7.200  2.0940 -1.3971  1.0720
 3015THY      O75351   4.244   2.542   0.938 -0.3056  0.3176  0.1804
 3015THY     HO75352   4.296   2.605   0.991  1.7686 -0.3643 -0.9637
 3015THY    CA175353   4.254   2.575   0.804  0.2356  0.0581 -0.2925
 3015THY    CA275354   4.238   2.482   0.702  0.4107 -0.6256 -0.1380
 3015THY    CP175355   4.248   2.332   0.740  0.4463  0.4140 -0.0621
 3015THY    HP175356   4.226   2.320   0.846 -2.6301  1.4843 -0.4811
 3015THY    CP275357   4.135   2.253   0.673  0.6308 -0.2915 -0.4471
 3015THY    HP275358   4.138   2.147   0.702 -0.4260 -0.2118  0.0040
 3015THY    HP375359   4.040   2.299   0.700 -0.1634 -3.8783  4.3271
 3015THY    HP475360   4.155   2.266   0.566  0.9324 -0.0492 -0.3629
 3015THY    CP375361   4.375   2.259   0.696  0.6386  0.0973  0.0922
 3015THY    HP575362   4.381   2.153   0.722  1.1299  0.1408  0.1711
 3015THY    HP675363   4.373   2.271   0.587  0.7428 -1.1704 -0.0652
 3015THY    HP775364   4.462   2.315   0.732  0.0263  0.0294  1.7590
 3015THY    CA375365   4.262   2.527   0.572 -0.4170  0.4632 -0.4906
 3015THY    HA375366   4.268   2.456   0.490  0.0349  0.6751 -0.6480
 3015THY    CA475367   4.265   2.664   0.544 -0.0144 -0.2495  0.1424
 3015THY    HA475368   4.255   2.700   0.442  1.2239 -1.4102 -0.4168
 3015THY    CA575369   4.272   2.754   0.651  0.1494 -0.5928  0.1555
 3015THY    CM175370   4.287   2.903   0.630  0.5241 -0.3067  0.2103
 3015THY    HM175371   4.330   2.924   0.531  1.2120 -0.2289  0.5138
 3015THY    HM275372   4.194   2.955   0.653  0.2019 -0.0807 -1.5132
 3015THY    HM375373   4.367   2.946   0.691 -0.7603  3.4867 -0.5039
 3015THY    CA675374   4.270   2.707   0.782  0.3920  0.0520 -0.2988
 3015THY    HA675375   4.266   2.775   0.866  0.5296  0.4960 -0.6454
 3016THY      O75376   7.331   2.403   5.083  0.1832 -0.2075  0.2076
 3016THY     HO75377   7.394   2.414   5.157 -0.5573  0.9090  0.6928
 3016THY    CA175378   7.367   2.489   4.983 -0.4350  0.0804  0.4141
 3016THY    CA275379   7.286   2.512   4.870  0.5196  0.1930 -0.7893
 3016THY    CP175380   7.158   2.431   4.854  0.3559  1.2260 -0.5416
 3016THY    HP175381   7.134   2.386   4.952 -1.7272  0.6824 -1.2553
 3016THY    CP275382   7.039   2.507   4.805  0.5542  0.1938  0.2669
 3016THY    HP275383   7.023   2.596   4.867 -0.1612 -0.4323  1.0040
 3016THY    HP375384   7.052   2.539   4.701  0.3171  0.0318  0.1860
 3016THY    HP475385   6.944   2.453   4.804 -0.0921  1.2856 -0.8638
 3016THY    CP375386   7.187   2.297   4.774 -0.4695 -0.3989  0.1115
 3016THY    HP575387   7.280   2.250   4.807 -1.4047 -2.8912 -0.6096
 3016THY    HP675388   7.101   2.229   4.774  0.2042 -1.2665  0.2046
 3016THY    HP775389   7.206   2.324   4.670  1.0898 -0.1375  0.4474
 3016THY    CA375390   7.321   2.617   4.781 -0.2827 -0.1389 -0.5263
 3016THY    HA375391   7.250   2.655   4.707 -2.3467  2.1067  2.3854
 3016THY    CA475392   7.442   2.688   4.799 -0.4820  0.1385  0.0460
 3016THY    HA475393   7.474   2.764   4.728 -3.2386  0.9170 -0.4870
 3016THY    CA575394   7.520   2.657   4.915  0.2089  0.2492  0.4728
 3016THY    CM175395   7.655   2.718   4.927 -0.2805  0.3357 -0.1294
 3016THY    HM175396   7.657   2.825   4.905  4.5230  0.0458 -2.5120
 3016THY    HM275397   7.687   2.709   5.032 -2.5847  1.6069  0.7511
 3016THY    HM375398   7.727   2.668   4.861  0.0365  1.1603 -0.4155
 3016THY    CA675399   7.486   2.560   5.009  0.0037  0.3930  0.1005
 3016THY    HA675400   7.539   2.542   5.102 -2.3824 -2.5574  1.0535
 3017THY      O75401   3.514   3.962   4.252  0.1429 -0.3960 -0.3638
 3017THY     HO75402   3.485   4.017   4.327 -0.1264 -1.4137  0.3093
 3017THY    CA175403   3.492   3.837   4.295 -0.3046 -0.6995 -0.2333
 3017THY    CA275404   3.522   3.723   4.222 -0.0732 -0.1725  0.2433
 3017THY    CP175405   3.597   3.729   4.086  0.4987 -0.2951  0.1831
 3017THY    HP175406   3.635   3.831   4.080 -0.5768  0.3047  2.3347
 3017THY    CP275407   3.720   3.643   4.082 -0.1384  1.0344 -0.3681
 3017THY    HP275408   3.776   3.666   3.990 -0.1546  1.1153 -0.3576
 3017THY    HP375409   3.783   3.662   4.169 -0.5613  0.7777 -0.0013
 3017THY    HP475410   3.691   3.537   4.089 -1.3584  1.4139  0.6138
 3017THY    CP375411   3.504   3.708   3.967  0.5514  0.6987  0.7136
 3017THY    HP575412   3.424   3.783   3.977 -1.8836 -1.4821 -0.8270
 3017THY    HP675413   3.561   3.726   3.876 -0.9159  0.8437 -0.2163
 3017THY    HP775414   3.460   3.608   3.960 -0.1966  1.1241 -1.2668
 3017THY    CA375415   3.482   3.599   4.269  0.3712 -0.5009 -0.5119
 3017THY    HA375416   3.492   3.508   4.211  2.1513 -1.5425  1.3399
 3017THY    CA475417   3.399   3.593   4.375 -0.1129  0.6984  0.0185
 3017THY    HA475418   3.357   3.497   4.401  1.3606  0.2234  0.7328
 3017THY    CA575419   3.354   3.706   4.443  0.0245 -0.3054 -0.5069
 3017THY    CM175420   3.254   3.698   4.548 -0.0906  0.6802  0.4551
 3017THY    HM175421   3.302   3.730   4.641 -1.2173  1.2721  0.8547
 3017THY    HM275422   3.178   3.773   4.520 -0.0558  0.0577 -1.4170
 3017THY    HM375423   3.217   3.596   4.566  1.7911  0.2369  2.1772
 3017THY    CA675424   3.406   3.828   4.404 -0.3266  0.5634 -0.1458
 3017THY    HA675425   3.366   3.917   4.453  1.1946  1.9974 -1.3923
 3018THY      O75426   5.304   7.155   3.909  0.0368  0.0243  0.0492
 3018THY     HO75427   5.365   7.202   3.968 -0.0306 -0.3420  0.4177
 3018THY    CA175428   5.203   7.127   3.993 -0.2918  0.3593  0.1453
 3018THY    CA275429   5.094   7.046   3.954 -0.5049 -0.9041 -0.1415
 3018THY    CP175430   5.088   7.003   3.802  0.2146  0.2853  0.2950
 3018THY    HP175431   5.183   7.020   3.750  0.1500 -0.3086 -0.0187
 3018THY    CP275432   5.055   6.854   3.798  0.1317 -0.1661 -0.4236
 3018THY    HP275433   5.128   6.799   3.858 -0.5718 -0.3700  0.2653
 3018THY    HP375434   4.961   6.828   3.848  1.5236 -1.2083  1.7913
 3018THY    HP475435   5.069   6.818   3.695  0.9927  0.4842 -0.5422
 3018THY    CP375436   4.976   7.081   3.722 -0.1687 -0.5829 -0.8544
 3018THY    HP575437   4.961   7.048   3.619 -1.3312 -2.0914 -0.2346
 3018THY    HP675438   4.881   7.065   3.774 -0.1871 -1.3206 -1.1041
 3018THY    HP775439   5.001   7.188   3.729 -3.4047  0.2030  0.3948
 3018THY    CA375440   4.988   7.018   4.035 -0.3600 -0.3390  0.9368
 3018THY    HA375441   4.898   6.961   4.013 -1.9230  1.9388  0.9482
 3018THY    CA475442   4.981   7.071   4.167 -0.0509  0.5554  0.3186
 3018THY    HA475443   4.918   7.040   4.250  0.7566 -0.7633  0.4736
 3018THY    CA575444   5.089   7.154   4.203 -0.2987 -0.1227 -0.5143
 3018THY    CM175445   5.107   7.185   4.348  0.4748 -0.7289 -0.2567
 3018THY    HM175446   5.175   7.269   4.366  0.9618 -1.3900  1.1398
 3018THY    HM275447   5.018   7.210   4.405  2.4229 -0.1467  2.7484
 3018THY    HM375448   5.142   7.100   4.408 -3.1483 -0.0398  3.2679
 3018THY    CA675449   5.203   7.175   4.121 -0.4309 -0.5118 -0.1100
 3018THY    HA675450   5.279   7.245   4.155 -0.5315  0.9112 -2.5176
 3019THY      O75451   2.987   7.620   2.225 -0.2663 -0.0355 -0.1404
 3019THY     HO75452   3.072   7.657   2.196  0.1133  0.0488  1.0132
 3019THY    CA175453   2.991   7.539   2.335  0.5796 -0.3062  0.3234
 3019THY    CA275454   2.882   7.460   2.371  0.5390  0.5864  1.4569
 3019THY    CP175455   2.756   7.466   2.284 -0.0795 -0.0224  0.1235
 3019THY    HP175456   2.752   7.556   2.223  2.3097 -1.2390 -2.0510
 3019THY    CP275457   2.749   7.352   2.183  0.2683  0.1560 -0.0804
 3019THY    HP275458   2.812   7.375   2.097 -0.7854  0.2999 -0.8254
 3019THY    HP375459   2.785   7.261   2.233 -0.7982  1.0533  2.4594
 3019THY    HP475460   2.648   7.335   2.145 -0.5681 -0.4632  2.2325
 3019THY    CP375461   2.629   7.459   2.374  0.2154 -0.4143 -0.1963
 3019THY    HP575462   2.635   7.376   2.446  0.4684 -0.5632 -0.3861
 3019THY    HP675463   2.611   7.551   2.431 -2.5534 -1.1558  0.2578
 3019THY    HP775464   2.543   7.450   2.307 -0.6465  2.3041  0.4289
 3019THY    CA375465   2.901   7.375   2.482 -0.5111  0.5149  0.2231
 3019THY    HA375466   2.829   7.307   2.527  0.5324  0.2369  1.5187
 3019THY    CA475467   3.025   7.380   2.557 -1.2365 -0.0384  0.3269
 3019THY    HA475468   3.029   7.324   2.651 -0.5331  0.0351  0.3397
 3019THY    CA575469   3.126   7.460   2.515  0.0146 -0.3201  1.0003
 3019THY    CM175470   3.250   7.463   2.591  0.0965 -0.7083 -0.1749
 3019THY    HM175471   3.234   7.519   2.684  0.7373  1.2429 -1.1799
 3019THY    HM275472   3.278   7.360   2.615  1.1931 -0.3605  0.1016
 3019THY    HM375473   3.341   7.495   2.539  0.1110  0.7798  0.7111
 3019THY    CA675474   3.110   7.547   2.408  0.0450  0.3576  0.6057
 3019THY    HA675475   3.184   7.618   2.372  2.4299 -2.2064  0.1236
 3020THY      O75476   3.502   8.647   1.705  0.6887 -0.0043  0.3366
 3020THY     HO75477   3.581   8.592   1.716  0.5236 -0.8492 -2.1689
 3020THY    CA175478   3.398   8.583   1.778  0.5907  0.0301 -0.1910
 3020THY    CA275479   3.288   8.650   1.828  0.0081  0.3943  0.5796
 3020THY    CP175480   3.272   8.803   1.805  0.5698  0.3720  0.2288
 3020THY    HP175481   3.373   8.844   1.792 -0.4097  2.6860 -0.7239
 3020THY    CP275482   3.182   8.847   1.678  0.5446  0.2612  0.1370
 3020THY    HP275483   3.214   8.823   1.575 -0.5132  0.6943 -0.3024
 3020THY    HP375484   3.082   8.804   1.688  1.4562 -2.5862 -1.4635
 3020THY    HP475485   3.171   8.955   1.671 -2.2272  0.1581  1.6712
 3020THY    CP375486   3.223   8.880   1.930 -0.3431  1.1856  0.8858
 3020THY    HP575487   3.115   8.867   1.944 -0.5596  1.1918 -0.5582
 3020THY    HP675488   3.287   8.847   2.012 -0.2594  0.6299  0.6067
 3020THY    HP775489   3.240   8.988   1.927  0.3696  1.0576 -0.6093
 3020THY    CA375490   3.183   8.575   1.885  0.3722  0.2597  0.5287
 3020THY    HA375491   3.085   8.608   1.919  0.2670 -0.7299  1.2359
 3020THY    CA475492   3.201   8.437   1.914 -0.5920  0.1731 -0.2527
 3020THY    HA475493   3.128   8.379   1.969  1.4455 -0.7100  1.6690
 3020THY    CA575494   3.315   8.376   1.875 -0.5356 -0.0284  0.5186
 3020THY    CM175495   3.319   8.232   1.866  0.2371  0.3245 -0.2455
 3020THY    HM175496   3.420   8.193   1.884 -0.3522 -1.2490 -0.1859
 3020THY    HM275497   3.257   8.179   1.939  1.8272 -1.2795  0.0235
 3020THY    HM375498   3.290   8.204   1.764 -0.5827 -0.2263  0.1268
 3020THY    CA675499   3.412   8.452   1.802  0.3819  0.0910 -0.2376
 3020THY    HA675500   3.503   8.405   1.765  0.9611 -0.3669  1.6660
 3021THY      O75501   7.965   8.043   7.921 -0.0915  0.3431 -0.3267
 3021THY     HO75502   7.905   7.967   7.919  0.1243  0.1230  0.8041
 3021THY    CA175503   7.903   8.149   7.985  0.5487  0.4025  0.8814
 3021THY    CA275504   7.959   8.234   8.071 -0.8503 -0.4130  1.2423
 3021THY    CP175505   8.108   8.231   8.096 -0.5068  0.0969  0.9294
 3021THY    HP175506   8.151   8.145   8.042 -0.6026  1.7328 -1.9189
 3021THY    CP275507   8.183   8.354   8.038 -0.5910  0.5642 -0.1908
 3021THY    HP275508   8.291   8.338   8.033 -0.8562 -1.9523  0.7969
 3021THY    HP375509   8.153   8.350   7.933  0.8268  1.1534 -0.6377
 3021THY    HP475510   8.152   8.450   8.081 -2.4749 -0.4035  0.7433
 3021THY    CP375511   8.140   8.222   8.238 -0.7183 -1.0292 -1.3774
 3021THY    HP575512   8.244   8.212   8.269 -0.3141  2.3685 -1.1966
 3021THY    HP675513   8.117   8.321   8.279 -0.6110 -2.0932  1.4622
 3021THY    HP775514   8.077   8.153   8.295 -0.9318  1.8704  2.2826
 3021THY    CA375515   7.882   8.347   8.120 -0.0082 -0.2974 -0.2089
 3021THY    HA375516   7.930   8.412   8.193 -1.3629 -1.9676  2.2983
 3021THY    CA475517   7.742   8.348   8.103  0.3505  0.5322 -0.4554
 3021THY    HA475518   7.686   8.418   8.164  0.2948 -1.8642  2.4670
 3021THY    CA575519   7.687   8.253   8.011  0.2361  0.5772 -0.5409
 3021THY    CM175520   7.542   8.267   7.988 -0.6737 -0.3622  0.6133
 3021THY    HM175521   7.491   8.325   8.066  0.4686 -0.7046  1.6435
 3021THY    HM275522   7.524   8.320   7.893 -0.1545 -2.0169 -0.4540
 3021THY    HM375523   7.493   8.169   7.982 -0.8021 -0.2855  0.3945
 3021THY    CA675524   7.763   8.152   7.959 -0.8552  0.4996 -0.5208
 3021THY    HA675525   7.721   8.082   7.887 -1.8153  0.7043 -0.1855
 3022THY      O75526   5.712   6.325   3.495 -0.9380  0.0222 -0.3199
 3022THY     HO75527   5.685   6.382   3.421 -3.4050 -0.9385 -0.2561
 3022THY    CA175528   5.600   6.321   3.578 -0.3658  0.6608  0.2954
 3022THY    CA275529   5.562   6.202   3.637  0.1353 -0.2000  0.5267
 3022THY    CP175530   5.634   6.063   3.599 -0.4808  0.0347 -0.1510
 3022THY    HP175531   5.728   6.080   3.546 -0.7360 -2.0130 -1.4100
 3022THY    CP275532   5.671   5.985   3.731 -0.3455  0.3707  0.0917
 3022THY    HP275533   5.578   5.938   3.764 -0.0009  0.7096  1.6326
 3022THY    HP375534   5.741   5.905   3.706  0.0196  1.3752 -2.3642
 3022THY    HP475535   5.719   6.046   3.809 -0.7718 -0.3537  0.9351
 3022THY    CP375536   5.539   5.992   3.505  0.6209  0.1286 -0.6212
 3022THY    HP575537   5.538   6.055   3.416  0.3002 -1.3553 -1.7041
 3022THY    HP675538   5.580   5.898   3.466  1.4515  0.6276 -0.9870
 3022THY    HP775539   5.441   5.985   3.553  1.0608 -1.1531  0.1332
 3022THY    CA375540   5.450   6.204   3.726  0.8952 -0.4011  0.3253
 3022THY    HA375541   5.431   6.113   3.783  0.6864 -1.2751 -1.0672
 3022THY    CA475542   5.373   6.324   3.740  0.0080  0.3855  0.1136
 3022THY    HA475543   5.280   6.322   3.796  0.2961 -3.4658  0.6832
 3022THY    CA575544   5.409   6.434   3.667 -0.8523  0.3466 -0.1332
 3022THY    CM175545   5.316   6.558   3.674  0.1798 -1.4730  0.3064
 3022THY    HM175546   5.332   6.626   3.758  0.3174  1.5502 -1.9939
 3022THY    HM275547   5.333   6.612   3.580  4.3424 -1.1854  1.0435
 3022THY    HM375548   5.211   6.529   3.655 -0.4553  1.8992 -2.1194
 3022THY    CA675549   5.522   6.432   3.593 -1.1445 -0.1235  0.2165
 3022THY    HA675550   5.554   6.525   3.545 -0.3548  0.7432  2.3129
 3023THY      O75551   1.677   8.965   2.561  0.5680  0.0806  0.4645
 3023THY     HO75552   1.683   8.976   2.658  2.5872  0.5811  0.3265
 3023THY    CA175553   1.642   8.838   2.546 -0.0379 -0.1000  0.5801
 3023THY    CA275554   1.662   8.767   2.426  0.4628  0.0617  0.4980
 3023THY    CP175555   1.748   8.837   2.320  0.6350 -0.5330  0.3011
 3023THY    HP175556   1.743   8.946   2.320  3.5491 -0.2477 -2.6926
 3023THY    CP275557   1.898   8.806   2.334  0.2039  0.7103  0.3843
 3023THY    HP275558   1.911   8.698   2.333  0.7687  0.7755 -0.3714
 3023THY    HP375559   1.959   8.851   2.254 -1.0387  1.2624 -0.2737
 3023THY    HP475560   1.937   8.853   2.425 -2.4698  2.8330  0.5487
 3023THY    CP375561   1.703   8.783   2.180  0.6197 -0.0784 -0.6026
 3023THY    HP575562   1.594   8.800   2.188  0.4751 -0.8761 -0.8524
 3023THY    HP675563   1.744   8.830   2.090  1.7497 -2.2452 -1.2842
 3023THY    HP775564   1.720   8.675   2.185  0.3384 -0.1036 -0.1203
 3023THY    CA375565   1.611   8.635   2.418  0.3301 -0.0306 -0.0556
 3023THY    HA375566   1.629   8.569   2.334 -1.0357  0.0834 -0.4600
 3023THY    CA475567   1.544   8.581   2.531  0.0548  0.0626  0.3348
 3023THY    HA475568   1.511   8.478   2.528 -0.8854  0.3769 -1.3248
 3023THY    CA575569   1.523   8.647   2.645 -0.1278  0.2030 -0.0820
 3023THY    CM175570   1.458   8.575   2.770  0.3757  0.3478 -0.2128
 3023THY    HM175571   1.405   8.644   2.837  0.0941 -2.8810  3.2953
 3023THY    HM275572   1.405   8.484   2.741 -0.7920  0.9457  0.0186
 3023THY    HM375573   1.534   8.538   2.840  2.3919  1.3832 -1.7479
 3023THY    CA675574   1.571   8.778   2.649 -0.1312  0.5695  0.3697
 3023THY    HA675575   1.551   8.829   2.743 -3.4461 -0.6844  0.4892
 3024THY      O75576   0.618   2.903   0.490  0.3205  0.2930  0.1116
 3024THY     HO75577   0.713   2.884   0.491  0.1962 -0.8529 -2.1594
 3024THY    CA175578   0.598   2.988   0.383  0.1329 -0.3484 -1.1552
 3024THY    CA275579   0.473   3.035   0.350 -0.2361  0.3392 -0.2376
 3024THY    CP175580   0.356   3.009   0.444  0.4074  0.1890 -0.7739
 3024THY    HP175581   0.382   2.949   0.531 -0.2691  1.5310  0.3881
 3024THY    CP275582   0.285   3.127   0.501  0.2467  0.2636 -0.1404
 3024THY    HP275583   0.352   3.191   0.559 -1.0596 -0.0713  1.8280
 3024THY    HP375584   0.239   3.187   0.422 -0.5687  2.7516  2.0671
 3024THY    HP475585   0.205   3.097   0.570 -0.5867 -0.4855 -1.3890
 3024THY    CP375586   0.257   2.920   0.373  0.5894  0.5545  0.2083
 3024THY    HP575587   0.317   2.835   0.340  0.3170  0.6726 -0.5993
 3024THY    HP675588   0.179   2.891   0.444  1.6207 -0.5260  0.9418
 3024THY    HP775589   0.203   2.961   0.287 -1.8811 -0.0868  1.3466
 3024THY    CA375590   0.470   3.117   0.235  0.0322 -0.2235 -0.6644
 3024THY    HA375591   0.377   3.170   0.213  0.4366  2.0142  2.3377
 3024THY    CA475592   0.583   3.137   0.161  0.1084  0.3388 -0.5805
 3024THY    HA475593   0.583   3.203   0.075  2.6465  1.7761  0.4386
 3024THY    CA575594   0.704   3.085   0.200 -0.0783 -0.3710  0.0600
 3024THY    CM175595   0.831   3.125   0.122  0.3489 -0.1552 -0.4065
 3024THY    HM175596   0.821   3.088   0.020  3.2378 -2.9353  0.1632
 3024THY    HM275597   0.834   3.235   0.129  0.1979 -0.2407  1.9486
 3024THY    HM375598   0.917   3.076   0.171 -0.1197 -2.0987 -1.4311
 3024THY    CA675599   0.711   3.010   0.317 -0.4902 -0.5528  0.5621
 3024THY    HA675600   0.808   2.973   0.347  0.5665  2.3817  1.1537
 3025THY      O75601   8.679   5.874   4.703  0.5014 -0.0863 -0.6037
 3025THY     HO75602   8.654   5.967   4.700 -1.0854 -0.5023 -0.9444
 3025THY    CA175603   8.766   5.837   4.613  0.2246  0.5721 -0.7217
 3025THY    CA275604   8.814   5.710   4.597  0.8080  0.2480  0.6948
 3025THY    CP175605   8.772   5.591   4.689  0.6395 -0.7204  0.2817
 3025THY    HP175606   8.707   5.623   4.771  1.1550  2.4269 -0.4244
 3025THY    CP275607   8.700   5.473   4.614 -0.2732  0.1096 -0.1892
 3025THY    HP275608   8.763   5.418   4.543  1.1310  0.5667  0.6497
 3025THY    HP375609   8.667   5.396   4.685  0.8992 -0.2995 -0.0536
 3025THY    HP475610   8.617   5.518   4.560  0.4061  1.0037 -0.5119
 3025THY    CP375611   8.903   5.528   4.748  0.2660 -0.1846 -0.2594
 3025THY    HP575612   8.962   5.602   4.804 -1.3513 -0.1471  1.4859
 3025THY    HP675613   8.870   5.447   4.814  0.5251  0.8694  1.2129
 3025THY    HP775614   8.954   5.483   4.662 -1.4788 -2.1653 -0.3180
 3025THY    CA375615   8.871   5.679   4.470  0.4698 -0.2485 -0.2247
 3025THY    HA375616   8.907   5.578   4.453 -1.3846 -1.0593  0.3707
 3025THY    CA475617   8.904   5.777   4.375 -0.1244 -0.3013 -0.0855
 3025THY    HA475618   8.965   5.758   4.287 -2.0261 -0.7572 -1.3441
 3025THY    CA575619   8.865   5.910   4.402  0.3898 -0.5907 -0.0251
 3025THY    CM175620   8.906   6.023   4.310 -0.1552  0.2704 -0.1451
 3025THY    HM175621   8.833   6.061   4.238 -0.2565 -0.9202 -0.7024
 3025THY    HM275622   8.938   6.109   4.370  0.0666 -0.1814  0.4063
 3025THY    HM375623   8.992   5.987   4.253  0.2157 -1.6495  1.5132
 3025THY    CA675624   8.791   5.937   4.518  0.7572 -0.1996  0.0828
 3025THY    HA675625   8.758   6.040   4.520 -1.0735 -0.6019 -3.1834
 3026THY      O75626   7.677   2.428   1.537  0.3863 -0.1850  0.0392
 3026THY     HO75627   7.583   2.423   1.562  0.0706  1.1234 -0.7483
 3026THY    CA175628   7.676   2.355   1.425  0.7149 -0.7280 -0.0426
 3026THY    CA275629   7.777   2.261   1.398  0.2065  0.0517  0.0727
 3026THY    CP175630   7.895   2.249   1.502  0.0260  0.1078  0.2165
 3026THY    HP175631   7.896   2.331   1.575 -0.7592 -0.2608  0.6557
 3026THY    CP275632   7.883   2.109   1.583 -0.6671  0.1111 -0.3493
 3026THY    HP275633   7.905   2.021   1.521  2.6194 -1.9299  3.2785
 3026THY    HP375634   7.950   2.108   1.670 -0.4164 -1.8106 -0.5113
 3026THY    HP475635   7.782   2.098   1.622 -0.4102  0.7940  0.5490
 3026THY    CP375636   8.040   2.268   1.439 -0.1965  0.4602 -0.3472
 3026THY    HP575637   8.052   2.207   1.349  0.1533  0.7002 -0.4622
 3026THY    HP675638   8.044   2.371   1.403 -1.7135  0.9866  0.8505
 3026THY    HP775639   8.122   2.259   1.511 -0.0848 -1.9702 -0.6784
 3026THY    CA375640   7.765   2.176   1.281  1.2859 -0.2784  0.0289
 3026THY    HA375641   7.849   2.118   1.244  1.6434  0.6404 -0.6182
 3026THY    CA475642   7.645   2.184   1.208  0.4672  0.8867  0.1620
 3026THY    HA475643   7.617   2.135   1.115 -0.1446  0.8819  0.3467
 3026THY    CA575644   7.548   2.275   1.242 -0.2230  0.1155  0.3663
 3026THY    CM175645   7.425   2.271   1.161  0.1845 -0.2946 -0.1273
 3026THY    HM175646   7.448   2.268   1.054 -2.2716 -0.5991 -0.7087
 3026THY    HM275647   7.374   2.179   1.192  0.1181  0.0700  0.8928
 3026THY    HM375648   7.372   2.365   1.181  3.1902  1.9456 -1.8750
 3026THY    CA675649   7.559   2.360   1.358  0.3596 -0.2616  0.2798
 3026THY    HA675650   7.483   2.431   1.389  0.8778  0.3965  0.0650
 3027THY      O75651   7.285   6.895   8.416  0.0875  0.4030  0.4162
 3027THY     HO75652   7.295   6.969   8.354  3.3341 -0.0920  0.1560
 3027THY    CA175653   7.149   6.883   8.454  0.1029  0.8394  0.2307
 3027THY    CA275654   7.100   6.776   8.534  0.0789 -0.1171  0.1566
 3027THY    CP175655   7.188   6.654   8.565 -0.6109  0.3850  0.9673
 3027THY    HP175656   7.286   6.698   8.585 -0.3636 -0.4370  1.6249
 3027THY    CP275657   7.145   6.582   8.689  0.0712 -0.1549 -0.3379
 3027THY    HP275658   7.138   6.662   8.764  0.4970 -0.3273 -0.1077
 3027THY    HP375659   7.045   6.538   8.678 -0.9472  2.1946 -1.0179
 3027THY    HP475660   7.221   6.513   8.728  0.3478  0.7851  0.8262
 3027THY    CP375661   7.195   6.561   8.435 -0.1376  0.6497 -0.0471
 3027THY    HP575662   7.247   6.623   8.361  0.2516  0.7455  0.3095
 3027THY    HP675663   7.257   6.474   8.458  0.2321  0.6610 -0.9416
 3027THY    HP775664   7.093   6.540   8.400  0.0826 -0.0893 -0.2649
 3027THY    CA375665   6.957   6.771   8.559 -0.9901 -0.5680 -0.0039
 3027THY    HA375666   6.907   6.690   8.610  1.2338 -1.8462  0.2812
 3027THY    CA475667   6.878   6.873   8.513 -0.4219 -0.5041  0.8519
 3027THY    HA475668   6.770   6.877   8.521 -0.4580 -0.6175  0.4657
 3027THY    CA575669   6.936   6.974   8.434  0.4896 -0.6804  0.0817
 3027THY    CM175670   6.842   7.081   8.382 -0.0249  0.0361  0.6979
 3027THY    HM175671   6.852   7.101   8.275 -1.3687  0.6569  0.6651
 3027THY    HM275672   6.742   7.042   8.403  1.2788 -2.9394  1.9854
 3027THY    HM375673   6.857   7.177   8.433 -0.2464  1.9578 -2.5693
 3027THY    CA675674   7.070   6.977   8.404 -0.2349  0.4910 -0.0954
 3027THY    HA675675   7.107   7.054   8.337 -3.8759  2.4260 -0.1310
 3028THY      O75676   8.448   6.208   0.875  0.3615 -0.2999 -0.1103
 3028THY     HO75677   8.422   6.141   0.809  0.8804  0.0238 -0.6515
 3028THY    CA175678   8.478   6.322   0.806 -0.5961  0.7631  0.4047
 3028THY    CA275679   8.575   6.410   0.846 -0.2273  0.4619 -0.5695
 3028THY    CP175680   8.645   6.384   0.983 -0.5281  0.2411  0.2594
 3028THY    HP175681   8.585   6.325   1.053  1.2934  2.1837  3.8009
 3028THY    CP275682   8.774   6.294   0.973  0.7569  0.1995  0.3763
 3028THY    HP275683   8.810   6.278   1.075 -1.4424 -1.1357  1.0228
 3028THY    HP375684   8.746   6.196   0.934 -0.3388  0.7618 -0.3076
 3028THY    HP475685   8.850   6.342   0.911  0.5210  0.8227  0.5604
 3028THY    CP375686   8.679   6.515   1.055 -0.8948 -0.0545  0.5481
 3028THY    HP575687   8.773   6.555   1.017 -0.1739 -0.9254  1.3820
 3028THY    HP675688   8.602   6.590   1.032  1.2148  1.7201 -1.2777
 3028THY    HP775689   8.688   6.504   1.164 -0.9294  0.1070  0.5685
 3028THY    CA375690   8.608   6.520   0.763 -0.1224  0.1195 -0.8616
 3028THY    HA375691   8.694   6.582   0.787 -0.3633 -0.1441  0.7560
 3028THY    CA475692   8.543   6.534   0.643 -0.0762 -0.4183 -0.8098
 3028THY    HA475693   8.567   6.621   0.583  1.2120  0.5564  1.0265
 3028THY    CA575694   8.439   6.446   0.606 -0.2940 -0.1673 -0.6205
 3028THY    CM175695   8.357   6.465   0.485 -0.0049  0.3769 -0.1639
 3028THY    HM175696   8.251   6.479   0.513  0.4078  0.2110  1.5710
 3028THY    HM275697   8.405   6.539   0.420  1.9079  1.9330  2.8144
 3028THY    HM375698   8.356   6.372   0.427 -0.7487 -0.0182  0.4587
 3028THY    CA675699   8.420   6.337   0.683 -0.2138 -0.7009  0.1746
 3028THY    HA675700   8.336   6.274   0.656 -0.3884  0.0775 -1.1733
 3029THY      O75701   8.860   1.070   4.628  0.2933 -0.5938  0.1394
 3029THY     HO75702   8.890   1.066   4.720 -0.2413  3.6365  0.6703
 3029THY    CA175703   8.829   1.200   4.615  0.5040 -0.6977  0.1122
 3029THY    CA275704   8.764   1.255   4.503 -0.0404 -0.1126 -0.2710
 3029THY    CP175705   8.716   1.164   4.391 -0.5267 -0.2489  0.3967
 3029THY    HP175706   8.745   1.060   4.407  0.7066  0.0904  0.4475
 3029THY    CP275707   8.564   1.165   4.367  0.2178 -0.3863  0.1873
 3029THY    HP275708   8.505   1.149   4.458  0.4949  3.4206  1.1982
 3029THY    HP375709   8.543   1.264   4.326  0.1988 -0.9009 -1.0744
 3029THY    HP475710   8.531   1.083   4.302 -0.8475 -0.9105  1.3448
 3029THY    CP375711   8.778   1.222   4.260  0.3094 -0.0968  0.7712
 3029THY    HP575712   8.762   1.155   4.174 -3.5984 -0.2679  1.4530
 3029THY    HP675713   8.740   1.320   4.229 -1.0739 -1.0225 -0.6305
 3029THY    HP775714   8.886   1.225   4.278  0.3924 -2.2980  0.9261
 3029THY    CA375715   8.746   1.397   4.495 -0.3875  0.7009 -0.4855
 3029THY    HA375716   8.709   1.440   4.403  1.6160  0.0116 -1.6739
 3029THY    CA475717   8.780   1.483   4.611  0.0041  0.2332 -0.0397
 3029THY    HA475718   8.765   1.590   4.609  0.8115  0.3872  1.0985
 3029THY    CA575719   8.831   1.416   4.724 -0.2016 -0.3140 -0.6171
 3029THY    CM175720   8.890   1.486   4.839 -0.1772  0.2137 -0.3726
 3029THY    HM175721   9.000   1.490   4.845 -0.2320  1.8766 -0.2175
 3029THY    HM275722   8.853   1.588   4.851  2.7623  1.3420  0.0851
 3029THY    HM375723   8.860   1.440   4.934 -0.1150  2.4156  0.7614
 3029THY    CA675724   8.860   1.278   4.723  0.6650 -0.2818  0.1245
 3029THY    HA675725   8.916   1.242   4.808  1.0767  2.2173  0.9820
 3030THY      O75726   5.912   6.558   0.305  0.3515 -0.5403  0.0267
 3030THY     HO75727   5.948   6.550   0.395  1.4364 -1.9771 -0.4898
 3030THY    CA175728   5.946   6.679   0.254  0.2492 -0.2810  0.3811
 3030THY    CA275729   5.881   6.727   0.142 -0.4901  0.5138  0.5797
 3030THY    CP175730   5.777   6.643   0.070 -0.4785  0.0475 -0.1362
 3030THY    HP175731   5.757   6.544   0.114 -1.0298  0.4776  0.6024
 3030THY    CP275732   5.640   6.703   0.087  0.4711  0.7079  0.3984
 3030THY    HP275733   5.619   6.685   0.193  1.2999 -0.9672  0.3084
 3030THY    HP375734   5.640   6.812   0.075 -1.0066  0.5634 -1.3377
 3030THY    HP475735   5.573   6.654   0.015  2.8477 -0.7246 -0.9546
 3030THY    CP375736   5.817   6.615  -0.074  0.0943  0.3251 -0.4300
 3030THY    HP575737   5.918   6.573  -0.069  0.0045  0.2202  0.5732
 3030THY    HP675738   5.751   6.536  -0.112 -1.2011  0.3268  1.7011
 3030THY    HP775739   5.820   6.704  -0.138 -0.3149  0.1258 -0.7323
 3030THY    CA375740   5.918   6.853   0.087 -0.3071  0.3337  0.0229
 3030THY    HA375741   5.863   6.892   0.002  1.2223 -0.8426 -1.6089
 3030THY    CA475742   6.018   6.923   0.159 -0.1298  0.3328  0.6276
 3030THY    HA475743   6.043   7.026   0.135  1.5056  0.0095  0.8554
 3030THY    CA575744   6.086   6.869   0.268 -0.3862 -0.7033 -0.1497
 3030THY    CM175745   6.198   6.944   0.343  0.4828  0.0827 -0.3210
 3030THY    HM175746   6.285   6.880   0.357 -0.2657 -0.4275  2.7964
 3030THY    HM275747   6.230   7.039   0.299  1.2163  0.6651  1.3947
 3030THY    HM375748   6.174   6.984   0.442  0.4596  0.5951 -0.5259
 3030THY    CA675749   6.044   6.748   0.323  0.3279 -0.2232 -0.2325
 3030THY    HA675750   6.092   6.708   0.412  1.4487  0.7929 -0.3477
 3031THY      O75751   1.926   7.366   8.248 -0.0291 -0.3194  0.7043
 3031THY     HO75752   1.860   7.371   8.319 -2.0758 -1.7291 -0.9545
 3031THY    CA175753   1.978   7.491   8.257 -0.7475  0.3389  0.7160
 3031THY    CA275754   2.119   7.510   8.245 -0.3060 -0.7549  0.4311
 3031THY    CP175755   2.217   7.408   8.179  0.0973 -0.1252 -0.4030
 3031THY    HP175756   2.168   7.318   8.140  0.7674 -0.7884  0.2663
 3031THY    CP275757   2.294   7.467   8.063  0.2792 -0.2748  0.4698
 3031THY    HP275758   2.338   7.377   8.018 -0.1537 -1.2145  1.8577
 3031THY    HP375759   2.224   7.506   7.988  1.4199 -0.0156 -0.4924
 3031THY    HP475760   2.374   7.539   8.082 -1.4312  1.7665  0.2545
 3031THY    CP375761   2.319   7.363   8.288 -0.1935  1.3868  1.3010
 3031THY    HP575762   2.258   7.322   8.370  1.3812  1.5450  2.6191
 3031THY    HP675763   2.393   7.289   8.254  0.9363  0.8631  4.5125
 3031THY    HP775764   2.382   7.444   8.328  1.0061  1.6343 -0.9774
 3031THY    CA375765   2.168   7.629   8.291  0.2309  0.1585 -0.6248
 3031THY    HA375766   2.273   7.653   8.282  0.0407  0.8737 -0.9742
 3031THY    CA475767   2.081   7.731   8.338 -0.7333  0.4271 -0.3946
 3031THY    HA475768   2.126   7.827   8.362  0.8559 -0.6478  1.1744
 3031THY    CA575769   1.948   7.710   8.360  0.7395  0.0490  0.4754
 3031THY    CM175770   1.847   7.808   8.413 -0.1605  0.1216 -0.7484
 3031THY    HM175771   1.878   7.912   8.401  1.1089 -0.0075  1.0637
 3031THY    HM275772   1.743   7.786   8.386  0.5353 -1.8296 -2.1423
 3031THY    HM375773   1.862   7.786   8.519  0.8995 -0.6863 -1.0480
 3031THY    CA675774   1.896   7.585   8.321 -0.6141 -0.4662 -0.4174
 3031THY    HA675775   1.792   7.563   8.342 -0.8074  0.6256 -0.1851
 3032THY      O75776   3.832   0.259   1.758 -0.0381 -0.0428  0.0369
 3032THY     HO75777   3.792   0.171   1.753  4.0521 -2.1163 -0.3382
 3032THY    CA175778   3.807   0.323   1.647  0.3116 -0.7220  0.3999
 3032THY    CA275779   3.870   0.450   1.619 -0.4337  0.2957 -0.3054
 3032THY    CP175780   3.982   0.507   1.716 -0.6954 -0.2645 -0.5107
 3032THY    HP175781   3.956   0.480   1.819 -1.8836  0.1428 -0.6812
 3032THY    CP275782   4.112   0.436   1.686  0.5602 -0.4071 -0.2292
 3032THY    HP275783   4.124   0.447   1.578 -1.9875  3.0729 -0.3257
 3032THY    HP375784   4.199   0.479   1.737 -0.4183  0.1654  1.0247
 3032THY    HP475785   4.112   0.328   1.706 -3.2787 -0.3755  0.6308
 3032THY    CP375786   4.007   0.658   1.698  0.2170  0.2972 -0.0229
 3032THY    HP575787   3.910   0.710   1.702 -0.9492 -1.7601 -0.4761
 3032THY    HP675788   4.058   0.680   1.792 -1.2787 -1.2579  1.2085
 3032THY    HP775789   4.066   0.687   1.610  1.2368  0.7247  0.7773
 3032THY    CA375790   3.831   0.517   1.505 -0.4934 -0.5071 -0.0445
 3032THY    HA375791   3.869   0.618   1.493 -0.0120 -0.6458  0.2664
 3032THY    CA475792   3.743   0.464   1.417  0.1948  0.8284  0.4266
 3032THY    HA475793   3.709   0.513   1.326 -1.0501 -1.7270 -0.5792
 3032THY    CA575794   3.691   0.333   1.438 -0.6402 -0.4087  0.5498
 3032THY    CM175795   3.610   0.273   1.330  1.1643  0.1501  0.2899
 3032THY    HM175796   3.661   0.281   1.234 -0.6243 -1.4854 -0.8709
 3032THY    HM275797   3.606   0.164   1.339 -0.3537  0.1840  0.2094
 3032THY    HM375798   3.510   0.316   1.324 -0.5506 -3.4326  0.3374
 3032THY    CA675799   3.720   0.270   1.554  0.4229  0.8185 -0.5753
 3032THY    HA675800   3.672   0.178   1.586 -0.3688  1.4273 -0.0165
 3033THY      O75801   9.736   3.340   9.643 -0.1474  1.0500  0.2904
 3033THY     HO75802   9.796   3.416   9.640 -0.5979  1.6135  3.0336
 3033THY    CA175803   9.713   3.294   9.512 -0.2128 -0.9701 -0.4193
 3033THY    CA275804   9.629   3.177   9.483  0.1244 -0.1389 -0.3501
 3033THY    CP175805   9.569   3.096   9.594  0.6991  0.5305 -0.0730
 3033THY    HP175806   9.625   3.106   9.687  0.6895  2.0205 -0.2134
 3033THY    CP275807   9.433   3.149   9.638 -0.2403 -0.9654 -0.4002
 3033THY    HP275808   9.427   3.256   9.662  0.0447 -0.9766 -0.2775
 3033THY    HP375809   9.365   3.127   9.554 -1.2569 -1.1974  0.4685
 3033THY    HP475810   9.400   3.096   9.728  1.7155  0.3581  1.1856
 3033THY    CP375811   9.554   2.949   9.547 -0.3163 -0.2916  0.2843
 3033THY    HP575812   9.482   2.928   9.467 -0.4401 -1.3389  0.6465
 3033THY    HP675813   9.649   2.896   9.532 -1.8748 -3.3343  0.2786
 3033THY    HP775814   9.506   2.896   9.630  0.9577 -0.3008  1.0498
 3033THY    CA375815   9.616   3.150   9.352 -0.6180  0.5908 -0.5978
 3033THY    HA375816   9.566   3.059   9.323  1.0054 -0.5080 -0.0966
 3033THY    CA475817   9.685   3.219   9.251 -1.2835  0.9665 -0.6083
 3033THY    HA475818   9.679   3.180   9.150  1.3709  0.1012 -0.5212
 3033THY    CA575819   9.778   3.308   9.284 -0.2752 -0.7134 -0.1011
 3033THY    CM175820   9.860   3.373   9.184 -0.6505  0.3081 -0.1082
 3033THY    HM175821   9.963   3.346   9.208 -1.1404 -0.7680  0.9366
 3033THY    HM275822   9.835   3.333   9.085 -1.2776  1.7527 -0.5556
 3033THY    HM375823   9.844   3.481   9.172 -0.9172  0.3881  0.8905
 3033THY    CA675824   9.787   3.354   9.412 -0.3571  0.8497  0.4616
 3033THY    HA675825   9.857   3.435   9.429  2.2719 -1.0192 -0.6933
 3034THY      O75826   5.960   4.660   1.270 -0.2238  0.2187  0.0530
 3034THY     HO75827   5.950   4.564   1.278 -0.4759 -0.0905 -2.9343
 3034THY    CA175828   5.959   4.706   1.397 -0.1798 -0.1095 -0.8036
 3034THY    CA275829   5.900   4.827   1.421 -0.0754 -0.1262 -0.7130
 3034THY    CP175830   5.871   4.916   1.306 -0.5560 -0.1439  0.1992
 3034THY    HP175831   5.824   4.857   1.226 -4.3266  0.1739  1.9641
 3034THY    CP275832   5.763   5.014   1.335  0.4909  0.7922  0.2268
 3034THY    HP275833   5.668   4.968   1.366  1.0177 -1.1514 -0.8132
 3034THY    HP375834   5.793   5.078   1.419  0.0395  0.5346  0.5892
 3034THY    HP475835   5.738   5.079   1.250  0.4495  1.6660  0.8955
 3034THY    CP375836   5.993   4.987   1.243 -0.5199 -0.2485  0.0232
 3034THY    HP575837   5.972   5.063   1.167  1.1806  0.7962  0.5317
 3034THY    HP675838   6.058   5.039   1.315  1.2457 -1.4674 -0.6182
 3034THY    HP775839   6.060   4.914   1.198  0.3612  2.1701 -2.8903
 3034THY    CA375840   5.884   4.863   1.559  0.3880  0.4795  0.6797
 3034THY    HA375841   5.845   4.961   1.586  1.0918  0.9250  0.1191
 3034THY    CA475842   5.939   4.785   1.660 -0.0079 -0.1742 -0.3440
 3034THY    HA475843   5.910   4.803   1.763 -1.5662 -0.5034 -0.6981
 3034THY    CA575844   5.999   4.663   1.627  0.2186  0.1461 -0.0092
 3034THY    CM175845   6.036   4.568   1.741  0.3793  0.3375 -0.0906
 3034THY    HM175846   6.107   4.613   1.811  0.6609 -0.6491  0.2603
 3034THY    HM275847   5.945   4.537   1.794 -1.2884  2.3481 -1.5630
 3034THY    HM375848   6.090   4.477   1.713 -0.5296 -0.4361  0.6180
 3034THY    CA675849   6.009   4.627   1.497 -0.3794 -0.0034 -0.5743
 3034THY    HA675850   6.047   4.527   1.478 -0.6899 -0.8813  2.7201
 3035THY      O75851   0.630   6.132   2.301  0.5148 -0.3721 -0.7910
 3035THY     HO75852   0.630   6.200   2.230  0.5166  2.8028  2.0116
 3035THY    CA175853   0.722   6.175   2.384  0.1884 -0.3720 -0.3466
 3035THY    CA275854   0.743   6.121   2.514  0.3602 -0.2363  0.4903
 3035THY    CP175855   0.652   6.005   2.566  0.0371 -0.2967 -0.2208
 3035THY    HP175856   0.564   5.991   2.504  0.3971  0.0831 -0.8253
 3035THY    CP275857   0.723   5.871   2.536  0.0502 -0.2648  0.4418
 3035THY    HP275858   0.783   5.889   2.446 -2.2729  2.2898 -0.7139
 3035THY    HP375859   0.786   5.835   2.617  1.5557 -0.8908 -0.9423
 3035THY    HP475860   0.643   5.797   2.525 -0.1536 -0.0699  0.6150
 3035THY    CP375861   0.604   6.011   2.712 -0.3360 -0.5025 -0.0851
 3035THY    HP575862   0.536   6.097   2.712  1.0129  0.6164  1.0036
 3035THY    HP675863   0.544   5.928   2.750 -0.1835 -0.6067 -0.0695
 3035THY    HP775864   0.688   6.024   2.782 -0.3912  1.9897 -0.3850
 3035THY    CA375865   0.847   6.165   2.596  0.5340 -0.1331 -0.2795
 3035THY    HA375866   0.865   6.125   2.696 -2.6014  2.8806  1.7311
 3035THY    CA475867   0.933   6.274   2.547  0.5560  0.0740  0.6008
 3035THY    HA475868   1.019   6.302   2.606  0.1993 -1.9042  2.1803
 3035THY    CA575869   0.905   6.328   2.424  0.5425  0.0030 -0.2206
 3035THY    CM175870   0.984   6.441   2.367  0.3545 -0.5567  0.2729
 3035THY    HM175871   1.090   6.419   2.353  0.2890  0.7904 -3.5142
 3035THY    HM275872   0.952   6.461   2.264  1.7513 -1.7968 -0.4346
 3035THY    HM375873   0.976   6.534   2.425 -2.2664  1.6390 -3.2489
 3035THY    CA675874   0.796   6.282   2.344 -0.0802 -0.8741 -0.0303
 3035THY    HA675875   0.766   6.344   2.260  0.9000  1.7607  1.4298
 3036THY      O75876   5.339   1.116   8.884  0.5100  0.6438 -0.5353
 3036THY     HO75877   5.320   1.033   8.837  2.3290 -0.0636 -0.1109
 3036THY    CA175878   5.241   1.205   8.862 -0.4280 -0.4129  0.1267
 3036THY    CA275879   5.218   1.315   8.950 -0.3100  0.7531 -0.5010
 3036THY    CP175880   5.303   1.327   9.074 -0.5572  0.7571 -0.3089
 3036THY    HP175881   5.378   1.248   9.084  1.5365  2.8110  1.5133
 3036THY    CP275882   5.395   1.450   9.080  0.2785  0.0088  0.0881
 3036THY    HP275883   5.432   1.482   8.982 -2.8744 -0.4745 -1.3458
 3036THY    HP375884   5.340   1.543   9.100  1.4017  0.8393 -0.5724
 3036THY    HP475885   5.477   1.448   9.154  1.0734  2.3004 -0.6312
 3036THY    CP375886   5.220   1.328   9.202  0.5060 -0.1530  0.1645
 3036THY    HP575887   5.171   1.233   9.226 -0.2414  0.4553  1.1220
 3036THY    HP675888   5.279   1.349   9.292  0.4239  0.1364  0.1527
 3036THY    HP775889   5.142   1.404   9.187  0.7742  0.2934  0.9883
 3036THY    CA375890   5.110   1.399   8.917 -0.3537  0.2070  0.6398
 3036THY    HA375891   5.085   1.487   8.974 -2.1031  0.4542 -0.4149
 3036THY    CA475892   5.038   1.371   8.799 -0.2181 -0.8177  0.0316
 3036THY    HA475893   4.958   1.441   8.775 -0.6744 -1.2055  0.4079
 3036THY    CA575894   5.065   1.267   8.715 -0.3833  0.4653 -0.0232
 3036THY    CM175895   4.987   1.259   8.585  0.0669 -0.1164  0.4974
 3036THY    HM175896   4.967   1.358   8.542 -0.1169 -0.5987 -0.5639
 3036THY    HM275897   5.036   1.195   8.511 -0.2676  0.7093 -0.4544
 3036THY    HM375898   4.894   1.201   8.595  1.2185 -1.8505  1.7965
 3036THY    CA675899   5.176   1.186   8.738 -0.0873 -0.3777 -0.3299
 3036THY    HA675900   5.194   1.104   8.669 -2.0148  1.0792 -2.7544
 3037THY      O75901   9.919   3.826   3.028  0.0027 -0.3007  0.0750
 3037THY     HO75902   9.954   3.763   2.963  1.8820 -0.7945  1.4992
 3037THY    CA175903  10.032   3.854   3.096 -0.2939 -0.2007  0.6884
 3037THY    CA275904  10.043   3.837   3.229 -0.5268 -0.4005  0.3777
 3037THY    CP175905   9.916   3.790   3.306 -0.5008 -0.7997  0.8199
 3037THY    HP175906   9.830   3.847   3.268 -0.9253 -1.9448  0.0230
 3037THY    CP275907   9.875   3.637   3.269 -0.0954 -0.6596 -0.8929
 3037THY    HP275908   9.958   3.583   3.317 -1.6322 -1.9452  0.4604
 3037THY    HP375909   9.784   3.602   3.319  0.8735  0.4409  1.8329
 3037THY    HP475910   9.868   3.618   3.162 -0.1555 -1.2901 -0.7842
 3037THY    CP375911   9.925   3.809   3.456  0.4507  0.2337  0.5433
 3037THY    HP575912   9.833   3.758   3.489  0.0304 -0.6094 -1.7697
 3037THY    HP675913  10.009   3.758   3.504  0.2586  0.2436  0.8946
 3037THY    HP775914   9.923   3.914   3.488 -0.8399  0.3076  0.2641
 3037THY    CA375915  10.167   3.871   3.287 -0.1727  0.5601 -0.4451
 3037THY    HA375916  10.183   3.875   3.395 -1.1738 -0.8677 -0.2260
 3037THY    CA475917  10.270   3.920   3.208 -0.0500 -0.0292 -0.0291
 3037THY    HA475918  10.362   3.953   3.256 -0.4416  0.3388  0.4787
 3037THY    CA575919  10.253   3.935   3.067  0.2935 -0.6222 -0.8268
 3037THY    CM175920  10.361   4.009   2.993  0.2707 -0.2885 -0.4227
 3037THY    HM175921  10.354   4.116   3.017  1.6661 -0.7919  2.7363
 3037THY    HM275922  10.465   3.996   3.025  0.9003  2.0710 -1.2719
 3037THY    HM375923  10.353   3.994   2.885  1.0408  1.2511 -0.7178
 3037THY    CA675924  10.130   3.910   3.015  0.4939 -0.4589 -0.2215
 3037THY    HA675925  10.107   3.937   2.912  0.7809  0.1275 -0.1365
 3038THY      O75926   1.515   9.107   0.266 -0.1770  0.5615 -0.5294
 3038THY     HO75927   1.606   9.138   0.248 -0.0325 -1.2658 -3.5902
 3038THY    CA175928   1.505   8.989   0.208  0.3117  0.0995  0.6798
 3038THY    CA275929   1.383   8.933   0.165 -0.2024  0.4636 -0.8945
 3038THY    CP175930   1.253   9.008   0.180 -0.3964  0.7029 -0.7518
 3038THY    HP175931   1.258   9.066   0.273  2.4870 -0.4291 -0.0909
 3038THY    CP275932   1.219   9.093   0.059  0.3525  0.5227  0.2062
 3038THY    HP275933   1.190   9.038  -0.032  1.1999  1.5047 -0.6905
 3038THY    HP375934   1.139   9.163   0.085  0.7606  1.6966 -1.4444
 3038THY    HP475935   1.311   9.143   0.026  0.4102 -0.1674 -0.7230
 3038THY    CP375936   1.136   8.905   0.202 -0.0759 -0.1805  0.0718
 3038THY    HP575937   1.063   8.946   0.272  1.0031 -0.3562  1.3414
 3038THY    HP675938   1.091   8.864   0.111 -0.4361  3.1305 -1.3858
 3038THY    HP775939   1.181   8.823   0.260  2.1871  0.8653 -0.1000
 3038THY    CA375940   1.389   8.804   0.101  0.4543  0.3316  0.5443
 3038THY    HA375941   1.307   8.753   0.050  2.3089 -2.0694 -0.2484
 3038THY    CA475942   1.508   8.734   0.086  0.0295  0.0336 -0.3891
 3038THY    HA475943   1.516   8.637   0.039 -0.4452 -0.4212  0.4606
 3038THY    CA575944   1.627   8.788   0.136 -0.1783 -0.1403  0.5329
 3038THY    CM175945   1.748   8.706   0.134 -0.1897  0.8954  0.2646
 3038THY    HM175946   1.828   8.772   0.098  0.2693  0.7611  1.0016
 3038THY    HM275947   1.771   8.661   0.232 -1.3448 -1.7279 -0.5702
 3038THY    HM375948   1.742   8.623   0.063 -0.5004  1.2153 -0.0866
 3038THY    CA675949   1.623   8.913   0.193  0.0261  0.3163  0.7361
 3038THY    HA675950   1.717   8.952   0.230  1.6932 -0.8441 -1.9734
 3039THY      O75951   4.116   1.642   2.106 -0.2524  0.3240  0.5349
 3039THY     HO75952   4.210   1.658   2.126  0.3411 -0.0236 -1.6907
 3039THY    CA175953   4.118   1.608   1.977  0.3439  0.1940  0.0116
 3039THY    CA275954   4.019   1.646   1.882  0.8306  1.0430 -0.2035
 3039THY    CP175955   3.898   1.729   1.938 -0.6941 -0.5426  0.3995
 3039THY    HP175956   3.891   1.725   2.048 -1.8558  0.5709  0.3869
 3039THY    CP275957   3.906   1.875   1.897 -0.8826  0.2996 -0.1333
 3039THY    HP275958   3.992   1.920   1.948  0.7945 -0.0602 -2.4500
 3039THY    HP375959   3.921   1.889   1.789  1.4285 -1.4690 -0.1261
 3039THY    HP475960   3.817   1.928   1.932 -1.2173  1.1317 -2.0941
 3039THY    CP375961   3.766   1.701   1.865 -0.5688  0.3158 -0.1589
 3039THY    HP575962   3.684   1.748   1.919  0.0043  0.5814  0.4997
 3039THY    HP675963   3.753   1.718   1.758 -0.5318 -2.2215 -0.6366
 3039THY    HP775964   3.756   1.593   1.879 -0.8841  0.4087  0.3217
 3039THY    CA375965   4.041   1.614   1.745  0.4662 -0.3021 -0.2812
 3039THY    HA375966   3.973   1.652   1.669 -1.7694  0.3751  1.9347
 3039THY    CA475967   4.160   1.560   1.700  0.5477  0.1218  0.0343
 3039THY    HA475968   4.181   1.552   1.594 -0.2050  2.6124 -0.3723
 3039THY    CA575969   4.256   1.523   1.793 -1.0652  0.6036 -0.4057
 3039THY    CM175970   4.386   1.454   1.748  0.3987 -0.5783 -0.2767
 3039THY    HM175971   4.442   1.437   1.841  0.2072  0.7428  0.1058
 3039THY    HM275972   4.361   1.360   1.698  1.9217 -0.6708 -0.9252
 3039THY    HM375973   4.434   1.528   1.683  4.2487 -0.4063  2.3891
 3039THY    CA675974   4.234   1.539   1.929  0.1830 -0.0482 -0.2628
 3039THY    HA675975   4.299   1.501   2.007 -1.1748  1.3528  1.6492
 3040THY      O75976   5.441   8.165   9.602  0.0003  0.2076 -0.0329
 3040THY     HO75977   5.417   8.226   9.674  1.0689  0.2625  0.2993
 3040THY    CA175978   5.323   8.134   9.546  0.0672 -1.1682 -0.1998
 3040THY    CA275979   5.209   8.197   9.594 -0.4283  0.0990 -0.5819
 3040THY    CP175980   5.217   8.279   9.722  0.5289 -0.0665 -0.3664
 3040THY    HP175981   5.307   8.250   9.777  1.2175  0.0370 -1.4086
 3040THY    CP275982   5.216   8.432   9.687 -0.2764 -0.2299  0.0483
 3040THY    HP275983   5.123   8.452   9.633  0.6095  3.2305 -0.3873
 3040THY    HP375984   5.231   8.487   9.780 -2.1024  0.4423 -0.0305
 3040THY    HP475985   5.308   8.448   9.630 -0.3885 -0.5476 -0.2287
 3040THY    CP375986   5.092   8.259   9.818  0.2724  0.0223 -0.2088
 3040THY    HP575987   5.069   8.152   9.828  0.8704 -0.1485 -0.6005
 3040THY    HP675988   5.114   8.307   9.914 -1.5536  0.5933 -0.0360
 3040THY    HP775989   5.007   8.312   9.774 -0.5289 -0.7393  0.3537
 3040THY    CA375990   5.088   8.156   9.539  0.0535 -0.2314 -0.2792
 3040THY    HA375991   4.994   8.191   9.581 -0.5747 -1.0954 -0.9381
 3040THY    CA475992   5.084   8.056   9.438 -0.2277 -0.2751 -0.6601
 3040THY    HA475993   4.988   8.015   9.410 -0.3338 -2.4303  2.3942
 3040THY    CA575994   5.209   7.996   9.392  0.1689 -0.5317  0.1410
 3040THY    CM175995   5.213   7.879   9.301  0.0363 -0.8801 -0.0407
 3040THY    HM175996   5.258   7.793   9.352  0.5486 -0.7803 -0.3132
 3040THY    HM275997   5.109   7.860   9.274 -0.5785  2.7436 -0.7859
 3040THY    HM375998   5.265   7.911   9.210 -0.0394 -1.0780 -0.1512
 3040THY    CA675999   5.326   8.040   9.442 -0.3334  0.9348  0.6307
 3040THY    HA676000   5.420   7.995   9.411 -0.7646 -0.6329  1.5145
 3041THY      O76001   3.265   5.134   9.741 -0.7792  0.9526  0.0716
 3041THY     HO76002   3.246   5.222   9.704 -5.2524  0.9832  1.8743
 3041THY    CA176003   3.306   5.073   9.634 -0.0005  0.0068 -0.0102
 3041THY    CA276004   3.358   4.941   9.638  0.2108  0.1091  0.2781
 3041THY    CP176005   3.372   4.863   9.769  0.6108  0.0658 -0.5864
 3041THY    HP176006   3.375   4.932   9.855 -0.2807 -0.7193  0.0964
 3041THY    CP276007   3.243   4.784   9.806 -0.0158 -0.0806  0.1642
 3041THY    HP276008   3.220   4.704   9.735  0.7833 -0.4954  0.3556
 3041THY    HP376009   3.238   4.733   9.903  2.3211 -0.5155  0.1062
 3041THY    HP476010   3.150   4.842   9.810 -0.8605 -1.2283 -1.5262
 3041THY    CP376011   3.498   4.775   9.779  0.2880 -0.1447  0.2861
 3041THY    HP576012   3.591   4.824   9.747 -0.1373 -1.6030 -3.8061
 3041THY    HP676013   3.511   4.712   9.868 -1.5224 -0.3657  0.4255
 3041THY    HP776014   3.485   4.694   9.706 -0.3277  1.0379 -0.9574
 3041THY    CA376015   3.388   4.882   9.514  0.0071  0.1132 -0.7944
 3041THY    HA376016   3.426   4.781   9.509 -1.0878 -0.2781 -1.3852
 3041THY    CA476017   3.383   4.958   9.399 -0.1517  0.0933  0.6760
 3041THY    HA476018   3.426   4.928   9.304  1.5338  2.2827  0.6635
 3041THY    CA576019   3.318   5.082   9.396 -0.8055 -0.4929 -0.2741
 3041THY    CM176020   3.296   5.154   9.265  0.5125 -0.5600  0.2585
 3041THY    HM176021   3.304   5.085   9.181  1.5276 -1.4297  1.0395
 3041THY    HM276022   3.203   5.211   9.259  0.7654 -0.1861 -0.1757
 3041THY    HM376023   3.366   5.239   9.262  0.8085 -0.7728  0.9176
 3041THY    CA676024   3.278   5.138   9.515 -0.1572  0.2280  0.6178
 3041THY    HA676025   3.238   5.239   9.509 -0.3671  0.4190  3.5720
 3042THY      O76026   0.924   1.026   0.384 -0.0227  0.3425 -0.1922
 3042THY     HO76027   1.012   1.021   0.344  0.5194 -1.1479  1.0798
 3042THY    CA176028   0.849   1.089   0.299  0.7839  0.4482  0.1666
 3042THY    CA276029   0.718   1.123   0.326 -0.8622  0.6235  0.3876
 3042THY    CP176030   0.655   1.065   0.453 -0.5158 -0.9135  0.4969
 3042THY    HP176031   0.721   1.065   0.541 -0.1104  0.4115  0.2156
 3042THY    CP276032   0.528   1.142   0.490  0.4287  0.3738  0.4930
 3042THY    HP276033   0.497   1.104   0.588 -0.1006 -1.4729 -0.3240
 3042THY    HP376034   0.567   1.244   0.484  0.9528  0.3571  2.9460
 3042THY    HP476035   0.442   1.121   0.425  1.0802  1.7369 -0.8690
 3042THY    CP376036   0.620   0.921   0.427  0.4219  0.2549 -0.2908
 3042THY    HP576037   0.688   0.858   0.369 -2.5979 -3.2906 -0.3497
 3042THY    HP676038   0.620   0.874   0.526  2.2994  0.8845  0.0393
 3042THY    HP776039   0.514   0.912   0.398  0.5239  1.6237 -1.1771
 3042THY    CA376040   0.639   1.196   0.233 -0.1821 -0.0929  0.5175
 3042THY    HA376041   0.533   1.218   0.244 -1.0103 -2.4947 -1.6565
 3042THY    CA476042   0.703   1.253   0.122 -0.1872  0.5577  0.3556
 3042THY    HA476043   0.639   1.314   0.058 -0.8488 -0.6602 -0.1664
 3042THY    CA576044   0.837   1.229   0.092 -0.3861  0.8192 -0.2264
 3042THY    CM176045   0.917   1.282  -0.022 -0.0292  0.0522 -0.5630
 3042THY    HM176046   0.992   1.354   0.013  0.8787 -0.6079 -1.1189
 3042THY    HM276047   0.968   1.197  -0.068 -0.5499 -0.3707 -0.3784
 3042THY    HM376048   0.852   1.327  -0.098 -0.8611  1.4376  0.8964
 3042THY    CA676049   0.907   1.148   0.188  0.1628 -0.4191  0.9601
 3042THY    HA676050   1.011   1.125   0.167 -0.3886 -0.2493 -2.5285
 3043THY      O76051   4.483   5.754   7.293 -0.1171 -0.2729  0.0198
 3043THY     HO76052   4.443   5.744   7.381  3.0168 -1.2839  1.5004
 3043THY    CA176053   4.392   5.852   7.243  0.0568 -0.6138  0.0837
 3043THY    CA276054   4.448   5.953   7.159  0.1200  0.2644 -0.2234
 3043THY    CP176055   4.601   5.963   7.123  0.1783  0.1250  0.5499
 3043THY    HP176056   4.649   5.865   7.135 -0.7498 -0.5153 -0.7646
 3043THY    CP276057   4.629   6.004   6.982  0.1097 -0.8410  0.3418
 3043THY    HP276058   4.722   5.953   6.952  0.4698  0.3827 -0.7051
 3043THY    HP376059   4.551   5.974   6.911 -0.0649  1.2506 -0.3943
 3043THY    HP476060   4.650   6.109   6.959  0.9069 -0.7537  1.4231
 3043THY    CP376061   4.659   6.051   7.229 -0.0490 -0.1368 -0.2823
 3043THY    HP576062   4.654   5.990   7.321 -2.1148  0.8209  0.3077
 3043THY    HP676063   4.757   6.081   7.193 -1.1599  0.6652 -2.8898
 3043THY    HP776064   4.593   6.136   7.247  0.0345  0.2927 -1.9211
 3043THY    CA376065   4.360   6.057   7.126  0.0740 -0.0198  0.0710
 3043THY    HA376066   4.394   6.144   7.071  1.8938  0.9834  2.5806
 3043THY    CA476067   4.223   6.056   7.168 -0.5971  0.0624  0.0120
 3043THY    HA476068   4.157   6.133   7.128 -0.8307  0.1337  0.5355
 3043THY    CA576069   4.170   5.946   7.237 -0.0848  0.2432 -0.4590
 3043THY    CM176070   4.021   5.942   7.269 -0.3041  0.4508  0.2491
 3043THY    HM176071   3.988   5.838   7.283 -1.2697  0.5055 -1.3999
 3043THY    HM276072   3.996   5.996   7.361 -2.8422  0.9995 -0.6821
 3043THY    HM376073   3.976   5.995   7.184  0.4402  0.3164 -0.2464
 3043THY    CA676074   4.258   5.851   7.285  0.0922  0.0621 -0.8879
 3043THY    HA676075   4.217   5.760   7.330  0.8912  0.8769  1.7065
 3044THY      O76076   1.721   2.084   1.933 -0.2747 -0.1438  0.2403
 3044THY     HO76077   1.806   2.083   1.979  0.3090 -1.1582 -0.8032
 3044THY    CA176078   1.618   2.116   2.023 -0.4648 -0.0264  0.2421
 3044THY    CA276079   1.491   2.138   1.976 -0.4633  0.4987  0.5574
 3044THY    CP176080   1.457   2.115   1.837 -0.0969  0.2324 -0.1375
 3044THY    HP176081   1.542   2.092   1.771  1.0379  1.4146  0.8555
 3044THY    CP276082   1.378   1.983   1.827 -0.8050  0.4107 -0.1467
 3044THY    HP276083   1.446   1.902   1.858  0.5275  2.6205  3.3026
 3044THY    HP376084   1.289   1.970   1.889 -0.7262  0.3459 -0.0445
 3044THY    HP476085   1.348   1.976   1.722 -0.3174  1.4688 -0.3676
 3044THY    CP376086   1.373   2.224   1.771 -0.0639  0.8162 -0.1139
 3044THY    HP576087   1.356   2.200   1.665  1.3503 -0.5927 -0.0482
 3044THY    HP676088   1.279   2.229   1.827 -1.2699 -2.8842 -1.5032
 3044THY    HP776089   1.422   2.322   1.779 -3.1957  2.4704  0.3602
 3044THY    CA376090   1.390   2.155   2.074  0.3405 -0.0523  0.1471
 3044THY    HA376091   1.285   2.159   2.045 -0.4622  1.8237  2.9106
 3044THY    CA476092   1.419   2.172   2.210 -0.2871 -0.3862 -0.4495
 3044THY    HA476093   1.336   2.173   2.280 -2.1009  1.9143 -2.4419
 3044THY    CA576094   1.556   2.161   2.252  0.2111  0.6939  0.1827
 3044THY    CM176095   1.592   2.169   2.396 -0.8192  0.4197  0.2884
 3044THY    HM176096   1.578   2.273   2.427  0.5398  1.5206 -2.4413
 3044THY    HM276097   1.549   2.090   2.459 -0.3349 -0.3839 -0.3676
 3044THY    HM376098   1.701   2.161   2.400 -0.9613 -1.9564  0.4962
 3044THY    CA676099   1.654   2.131   2.155  0.5878 -1.1546 -0.8411
 3044THY    HA676100   1.758   2.123   2.183  0.3771 -2.0101 -0.2903
 3045THY      O76101   4.682   9.433   4.484  0.2433 -0.0136  0.3025
 3045THY     HO76102   4.658   9.351   4.531  1.2172 -0.5577 -0.1146
 3045THY    CA176103   4.624   9.535   4.550 -0.1511  0.6252 -0.3880
 3045THY    CA276104   4.658   9.668   4.521  0.0609 -0.2459  0.0783
 3045THY    CP176105   4.755   9.709   4.408  0.0350  0.4054 -0.6157
 3045THY    HP176106   4.779   9.620   4.349  1.1572 -0.8583  1.6231
 3045THY    CP276107   4.709   9.819   4.313  0.0256  0.8903  0.4530
 3045THY    HP276108   4.611   9.796   4.272  0.0434 -0.5890  1.1909
 3045THY    HP376109   4.705   9.917   4.364 -0.4420  1.1474 -0.0705
 3045THY    HP476110   4.770   9.822   4.222 -1.5003 -0.5368 -0.6532
 3045THY    CP376111   4.890   9.738   4.473  0.4109  0.3922  0.4849
 3045THY    HP576112   4.972   9.741   4.401  2.4063  1.9170  2.6509
 3045THY    HP676113   4.879   9.834   4.526 -2.1266 -0.8274  2.3924
 3045THY    HP776114   4.904   9.656   4.544 -1.9929 -1.2556 -0.8126
 3045THY    CA376115   4.584   9.775   4.579  0.2912  0.6807 -0.3827
 3045THY    HA376116   4.608   9.879   4.562  0.8399  0.9829  1.9540
 3045THY    CA476117   4.484   9.741   4.671 -0.4550  0.3671  0.2420
 3045THY    HA476118   4.424   9.818   4.719 -0.7291  1.4046 -1.6454
 3045THY    CA576119   4.453   9.609   4.708 -0.1776  0.0370  0.2496
 3045THY    CM176120   4.345   9.588   4.820 -0.5215  0.7882  0.3732
 3045THY    HM176121   4.273   9.511   4.791 -0.2915  0.6249  0.2252
 3045THY    HM276122   4.398   9.555   4.910  0.5507 -0.8457 -0.7747
 3045THY    HM376123   4.286   9.678   4.840 -2.7710 -1.1994  3.6259
 3045THY    CA676124   4.533   9.503   4.652 -0.0839 -0.1654 -0.4922
 3045THY    HA676125   4.509   9.398   4.668 -1.1787  0.2380  0.5665
 3046THY      O76126   9.690   0.775   7.740  0.7235  0.0862  0.8473
 3046THY     HO76127   9.595   0.758   7.756  0.2163 -0.6367 -2.2878
 3046THY    CA176128   9.721   0.898   7.789  0.2729  0.2105  0.2846
 3046THY    CA276129   9.835   0.963   7.764 -0.7728 -0.5474  0.3025
 3046THY    CP176130   9.945   0.899   7.676 -0.4569 -0.1337  0.6609
 3046THY    HP176131   9.917   0.796   7.650 -0.2569  0.0661 -0.4264
 3046THY    CP276132   9.961   0.978   7.539  0.2845  0.1767 -0.3618
 3046THY    HP276133   9.860   0.980   7.495 -0.5723  0.5527  1.5223
 3046THY    HP376134   9.994   1.081   7.554  1.8636 -0.3383 -0.0802
 3046THY    HP476135  10.025   0.926   7.467  1.7156  0.4577  0.6650
 3046THY    CP376136  10.087   0.906   7.736 -0.1453 -0.6750 -0.2329
 3046THY    HP576137  10.076   0.852   7.831  0.1587  0.9901  0.7855
 3046THY    HP676138  10.153   0.849   7.669  1.0487 -0.2366  0.5491
 3046THY    HP776139  10.137   1.002   7.754  0.3357 -1.1273  0.9538
 3046THY    CA376140   9.860   1.091   7.817  0.6687  0.2770 -0.1333
 3046THY    HA376141   9.947   1.150   7.792  0.1030  1.1631 -0.0555
 3046THY    CA476142   9.764   1.143   7.909 -0.8343  0.1146  0.5170
 3046THY    HA476143   9.771   1.243   7.951 -2.1974 -0.7794  3.0312
 3046THY    CA576144   9.656   1.071   7.951  0.2694  0.1921 -0.5341
 3046THY    CM176145   9.556   1.141   8.036  0.0968 -0.4291  0.0476
 3046THY    HM176146   9.490   1.071   8.088  3.4522 -2.0116  2.5214
 3046THY    HM276147   9.608   1.205   8.109  0.9675 -0.4152 -0.5612
 3046THY    HM376148   9.497   1.212   7.975  0.7758 -0.3432 -0.5238
 3046THY    CA676149   9.635   0.948   7.888  0.0215  0.8300  0.0712
 3046THY    HA676150   9.552   0.882   7.908  0.5708 -0.1822 -0.8684
 3047THY      O76151   0.283   6.850   0.140  0.0500  0.0827 -0.4622
 3047THY     HO76152   0.313   6.757   0.146  0.4052  0.2691  1.3090
 3047THY    CA176153   0.346   6.904   0.028 -0.1426 -0.4772 -0.0618
 3047THY    CA276154   0.362   7.047   0.004  0.1040 -1.0369  0.6005
 3047THY    CP176155   0.311   7.154   0.106  0.3398  0.3900 -0.1227
 3047THY    HP176156   0.239   7.100   0.169  1.5153  0.1476  1.0359
 3047THY    CP276157   0.434   7.212   0.190  0.3453 -0.3221  0.8206
 3047THY    HP276158   0.483   7.128   0.239 -0.1880 -0.1443  1.6860
 3047THY    HP376159   0.507   7.264   0.127 -0.0255 -0.5356  0.2051
 3047THY    HP476160   0.398   7.282   0.267  1.0621  0.7319  0.2281
 3047THY    CP376161   0.222   7.260   0.051 -0.2009  0.2899 -0.3961
 3047THY    HP576162   0.175   7.305   0.139  0.4307  0.3755 -0.0912
 3047THY    HP676163   0.279   7.328  -0.014  2.4558 -1.5056 -0.1231
 3047THY    HP776164   0.151   7.213  -0.018 -0.2564  1.0079 -0.8368
 3047THY    CA376165   0.422   7.082  -0.120  0.1621  0.6699 -0.5869
 3047THY    HA376166   0.418   7.187  -0.146 -4.1267  0.9081  0.3916
 3047THY    CA476167   0.468   6.985  -0.210  0.4243 -0.1913  0.5551
 3047THY    HA476168   0.501   7.019  -0.307  0.9731  1.0723  1.1603
 3047THY    CA576169   0.458   6.849  -0.191 -0.1927 -0.4741 -0.7690
 3047THY    CM176170   0.511   6.759  -0.291  0.7316  0.2392 -0.0257
 3047THY    HM176171   0.570   6.677  -0.248  0.7372  0.6531  0.7752
 3047THY    HM276172   0.437   6.725  -0.365 -1.0636 -0.1323  1.8232
 3047THY    HM376173   0.585   6.820  -0.343  2.4256  0.5423  2.5670
 3047THY    CA676174   0.389   6.809  -0.068 -0.5007  0.5324  0.2191
 3047THY    HA676175   0.378   6.704  -0.042 -0.9629  1.0222  2.2406
 3048THY      O76176   7.344   0.698   5.888  0.0254  0.2383  0.0657
 3048THY     HO76177   7.363   0.702   5.983  0.2581  2.4928 -0.0307
 3048THY    CA176178   7.462   0.669   5.826 -0.2648 -0.1603 -1.5344
 3048THY    CA276179   7.493   0.537   5.797  0.0280  0.0751 -0.3907
 3048THY    CP176180   7.384   0.433   5.821 -0.2025 -0.6938  0.1856
 3048THY    HP176181   7.285   0.479   5.822  0.6809  1.3117  2.0598
 3048THY    CP276182   7.388   0.331   5.703 -0.7407 -0.1029 -0.4215
 3048THY    HP276183   7.362   0.384   5.610  1.5301 -1.9212 -2.2436
 3048THY    HP376184   7.487   0.285   5.692 -0.5248  0.8013 -2.9451
 3048THY    HP476185   7.322   0.246   5.722  0.3690 -1.1669 -1.1323
 3048THY    CP376186   7.407   0.352   5.949 -0.1499 -0.2776  0.1944
 3048THY    HP576187   7.510   0.319   5.935  0.3661  1.7977 -1.3595
 3048THY    HP676188   7.395   0.422   6.033 -1.8904 -1.6114  1.1388
 3048THY    HP776189   7.325   0.279   5.954 -0.4072 -0.0160 -0.1332
 3048THY    CA376190   7.617   0.504   5.740 -0.0825 -0.2182 -0.4260
 3048THY    HA376191   7.656   0.406   5.713  2.3055  1.0935 -2.0498
 3048THY    CA476192   7.710   0.602   5.710 -0.5396  0.1934 -0.4171
 3048THY    HA476193   7.804   0.581   5.661 -1.2396 -3.4592 -0.4864
 3048THY    CA576194   7.681   0.735   5.753  0.2721  0.1820  0.6795
 3048THY    CM176195   7.782   0.842   5.725  0.1313  0.6507 -0.3533
 3048THY    HM176196   7.793   0.918   5.803  2.1638 -0.7612  0.8321
 3048THY    HM276197   7.877   0.790   5.710 -0.4005 -0.2233 -0.7614
 3048THY    HM376198   7.749   0.904   5.641 -2.0122 -0.6092 -0.5041
 3048THY    CA676199   7.560   0.767   5.818 -0.4386  1.1935  0.1414
 3048THY    HA676200   7.533   0.871   5.833 -2.3001  0.5648  1.4515
 3049THY      O76201   4.771   8.334   7.930 -1.0882 -1.0661 -0.4402
 3049THY     HO76202   4.747   8.339   8.024  0.9365 -0.4832  0.1099
 3049THY    CA176203   4.762   8.204   7.898  0.4074  0.5153  0.2068
 3049THY    CA276204   4.858   8.148   7.813 -0.4068  1.1264 -0.6208
 3049THY    CP176205   4.972   8.226   7.758  0.2541  0.2818  0.2370
 3049THY    HP176206   4.972   8.331   7.789  2.3578  1.1486 -2.3684
 3049THY    CP276207   5.108   8.172   7.802 -0.3967  0.8219  0.7976
 3049THY    HP276208   5.116   8.157   7.910 -1.2741 -0.5096  0.7000
 3049THY    HP376209   5.121   8.069   7.764  1.4037  0.9180  1.0512
 3049THY    HP476210   5.194   8.232   7.772 -0.8407  0.6632 -0.8831
 3049THY    CP376211   4.967   8.236   7.609 -0.0319  0.5015  0.5025
 3049THY    HP576212   4.874   8.285   7.580  0.3938 -0.0684 -2.0264
 3049THY    HP676213   5.047   8.301   7.570  1.1494 -0.6964  0.8382
 3049THY    HP776214   4.975   8.139   7.558  2.3017  0.4150  0.9185
 3049THY    CA376215   4.847   8.009   7.798 -0.0630  0.7706  1.1338
 3049THY    HA376216   4.913   7.949   7.737 -2.7138 -0.5957 -0.5811
 3049THY    CA476217   4.735   7.937   7.844  0.1158 -0.1412 -0.3989
 3049THY    HA476218   4.726   7.830   7.830 -1.0717  0.2082 -2.9922
 3049THY    CA576219   4.638   7.998   7.916 -0.0385 -0.2630 -0.9671
 3049THY    CM176220   4.520   7.933   7.983 -0.5785 -0.1112  0.7326
 3049THY    HM176221   4.539   7.934   8.091  3.7960 -0.9680  0.1714
 3049THY    HM276222   4.426   7.986   7.967 -0.4932 -0.4710 -1.2586
 3049THY    HM376223   4.516   7.829   7.947 -1.1849  0.9379 -2.6233
 3049THY    CA676224   4.654   8.135   7.950  0.5987 -0.2571 -0.0993
 3049THY    HA676225   4.576   8.180   8.011 -1.2250 -1.5113 -1.3709
 3050THY      O76226   0.573   8.673   8.528  0.8303 -0.6207  0.3622
 3050THY     HO76227   0.579   8.622   8.610  0.7700 -1.0187  0.1234
 3050THY    CA176228   0.645   8.622   8.427 -0.8471  0.0852  0.3457
 3050THY    CA276229   0.669   8.691   8.301  0.1910  0.3992 -0.2327
 3050THY    CP176230   0.607   8.824   8.279 -0.3997 -0.1103 -0.2699
 3050THY    HP176231   0.622   8.881   8.371  0.8091 -0.2438 -0.3772
 3050THY    CP276232   0.689   8.904   8.188  0.0679  0.1431 -0.4371
 3050THY    HP276233   0.669   8.863   8.088 -1.4568 -3.6572  1.2423
 3050THY    HP376234   0.649   9.007   8.188 -0.3094  0.0194  1.0702
 3050THY    HP476235   0.795   8.897   8.212 -0.1821 -2.0402  0.2411
 3050THY    CP376236   0.455   8.820   8.238  1.0620 -0.1574  0.2673
 3050THY    HP576237   0.414   8.919   8.214  1.5741  0.1428  0.6185
 3050THY    HP676238   0.439   8.755   8.152 -0.4861 -0.9940  1.1327
 3050THY    HP776239   0.396   8.769   8.315 -0.3080 -1.2357 -1.4166
 3050THY    CA376240   0.750   8.626   8.207 -0.2243 -0.2936  0.5185
 3050THY    HA376241   0.757   8.651   8.101  1.2782 -2.7813 -0.0493
 3050THY    CA476242   0.815   8.499   8.237  0.1234 -0.3386  0.4618
 3050THY    HA476243   0.889   8.464   8.165 -1.9571  0.1810 -2.0567
 3050THY    CA576244   0.786   8.437   8.356  0.0881 -0.1392  0.1302
 3050THY    CM176245   0.854   8.315   8.393  0.4486 -0.6350 -0.1360
 3050THY    HM176246   0.855   8.302   8.502  1.1972 -1.9412 -0.2807
 3050THY    HM276247   0.807   8.238   8.332 -3.0702  1.4257 -0.2873
 3050THY    HM376248   0.957   8.317   8.356  0.1872 -0.7609 -0.8840
 3050THY    CA676249   0.696   8.499   8.448  0.0645  0.5558 -0.4532
 3050THY    HA676250   0.677   8.436   8.535 -3.4392 -0.1408 -1.5690
 3051THY      O76251   1.226   7.889   8.824 -0.4097  0.1648 -0.0098
 3051THY     HO76252   1.152   7.940   8.788  1.6010  3.2798 -0.0742
 3051THY    CA176253   1.248   7.775   8.750 -1.4037  0.8223 -0.4092
 3051THY    CA276254   1.379   7.714   8.735  0.3711  0.1619  0.0981
 3051THY    CP176255   1.500   7.777   8.809  0.1323 -0.1527  0.3967
 3051THY    HP176256   1.476   7.831   8.901  2.8088 -0.1259  1.1640
 3051THY    CP276257   1.597   7.667   8.856  0.6607 -0.4740  0.4992
 3051THY    HP276258   1.647   7.618   8.772  0.5207  0.1952  0.0176
 3051THY    HP376259   1.672   7.718   8.917  0.7996  1.7239 -1.3704
 3051THY    HP476260   1.548   7.588   8.914 -1.9488  0.2298 -0.5628
 3051THY    CP376261   1.569   7.877   8.722  0.7272  0.1877  0.5234
 3051THY    HP576262   1.501   7.952   8.680  2.4858  2.9446  2.3287
 3051THY    HP676263   1.647   7.925   8.782  1.7694 -1.1346  0.2808
 3051THY    HP776264   1.617   7.830   8.635  1.1057  1.2783  0.1284
 3051THY    CA376265   1.389   7.604   8.645  0.6267 -0.3746  1.0949
 3051THY    HA376266   1.484   7.556   8.624  1.5438  1.5630  0.5952
 3051THY    CA476267   1.277   7.546   8.588 -0.0253  0.3806 -0.5094
 3051THY    HA476268   1.289   7.453   8.534  0.7953  0.5509 -0.6365
 3051THY    CA576269   1.154   7.602   8.619  0.8677  0.6975 -0.1113
 3051THY    CM176270   1.025   7.522   8.584 -0.6507  0.2165  0.5161
 3051THY    HM176271   0.960   7.515   8.672 -1.7422  0.1118 -0.2772
 3051THY    HM276272   0.966   7.576   8.509  1.7308 -0.8450 -2.2900
 3051THY    HM376273   1.047   7.427   8.534 -2.6039 -0.3332  0.5820
 3051THY    CA676274   1.139   7.719   8.697 -0.2147 -0.4442  0.3278
 3051THY    HA676275   1.039   7.755   8.719  0.4756  3.2629 -1.7548
 3052THY      O76276   5.273   1.700   6.007  0.4432  0.1065 -0.2400
 3052THY     HO76277   5.216   1.763   6.054 -1.0734  0.3661 -2.2712
 3052THY    CA176278   5.223   1.578   6.038 -0.6436 -0.2328  0.4511
 3052THY    CA276279   5.221   1.480   5.933  0.1792  0.8346  0.1300
 3052THY    CP176280   5.242   1.511   5.791 -0.5635  0.0892  0.5669
 3052THY    HP176281   5.251   1.620   5.782  1.1518 -0.1505 -1.2784
 3052THY    CP276282   5.369   1.446   5.735  0.0987 -0.1984 -0.0763
 3052THY    HP276283   5.380   1.467   5.628  1.8798 -0.7041 -0.0104
 3052THY    HP376284   5.457   1.481   5.790 -1.1615  1.0308  1.2507
 3052THY    HP476285   5.360   1.338   5.749 -1.9440 -0.0045  0.4018
 3052THY    CP376286   5.121   1.488   5.704 -0.5107  0.3750  0.5417
 3052THY    HP576287   5.094   1.384   5.683  1.8897 -0.0840 -0.5253
 3052THY    HP676288   5.039   1.546   5.748  0.6229  2.1378  0.4121
 3052THY    HP776289   5.130   1.528   5.603 -0.9875 -0.3719  0.1937
 3052THY    CA376290   5.178   1.348   5.969  0.8220  0.1229 -0.2808
 3052THY    HA376291   5.177   1.266   5.899  1.7859  0.7218 -1.0243
 3052THY    CA476292   5.131   1.330   6.100  0.4661  0.5468  0.8755
 3052THY    HA476293   5.098   1.230   6.125 -2.7945  1.3612  0.2492
 3052THY    CA576294   5.134   1.425   6.195  0.5940 -0.4930 -0.0155
 3052THY    CM176295   5.089   1.394   6.333 -0.4608  0.6261  0.0380
 3052THY    HM176296   4.987   1.432   6.350 -0.2067  1.0459  0.6504
 3052THY    HM276297   5.098   1.288   6.359  2.2155  0.7703 -0.0794
 3052THY    HM376298   5.162   1.448   6.394 -0.1763 -0.5813  0.7839
 3052THY    CA676299   5.177   1.551   6.167 -0.9944 -0.2114  0.3313
 3052THY    HA676300   5.180   1.627   6.245 -1.9531  2.3136 -1.9126
 3053THY      O76301   3.170   8.255   6.777 -0.4661 -0.6703 -0.4556
 3053THY     HO76302   3.153   8.326   6.841 -0.6305 -1.2006  0.1027
 3053THY    CA176303   3.051   8.206   6.747 -0.0143  0.3213  0.1132
 3053THY    CA276304   3.006   8.191   6.609  0.6763 -0.3072  0.9015
 3053THY    CP176305   3.098   8.240   6.498 -0.8946 -0.7845 -0.2755
 3053THY    HP176306   3.147   8.332   6.529 -1.1686  0.0509 -2.1516
 3053THY    CP276307   3.190   8.130   6.450 -0.2865 -0.1805 -1.1053
 3053THY    HP276308   3.150   8.030   6.472  2.3709 -1.3396 -1.1491
 3053THY    HP376309   3.219   8.136   6.345  1.0960  2.2452 -0.6659
 3053THY    HP476310   3.282   8.143   6.507 -0.3839  0.9708 -1.1901
 3053THY    CP376311   3.014   8.302   6.377  0.4518  0.0769  0.3188
 3053THY    HP576312   3.070   8.331   6.287 -0.1466  1.0054  0.2346
 3053THY    HP676313   2.937   8.235   6.339 -0.1722 -0.1602  1.9291
 3053THY    HP776314   2.968   8.394   6.417  2.1146  0.4792  1.4417
 3053THY    CA376315   2.884   8.134   6.584 -0.9112 -0.1776  0.2569
 3053THY    HA376316   2.862   8.100   6.483 -1.2884  0.3343  0.1654
 3053THY    CA476317   2.808   8.091   6.697  0.6570 -0.0021  0.0158
 3053THY    HA476318   2.715   8.038   6.676  0.1073  0.9669 -0.0634
 3053THY    CA576319   2.840   8.106   6.828 -0.1418 -0.6046 -0.5709
 3053THY    CM176320   2.755   8.057   6.942 -0.2110 -0.4224  0.6159
 3053THY    HM176321   2.774   7.950   6.951 -0.2767 -0.8364 -2.8420
 3053THY    HM276322   2.770   8.096   7.043  1.8712  0.4217  0.0384
 3053THY    HM376323   2.649   8.063   6.914 -0.1017 -1.1647  0.0220
 3053THY    CA676324   2.962   8.162   6.853 -0.0517  0.6569 -0.3690
 3053THY    HA676325   2.987   8.184   6.956 -0.8764 -0.2494  0.0421
 3054THY      O76326   9.259   8.986   1.629 -0.4927  0.0037 -0.3101
 3054THY     HO76327   9.333   8.972   1.690 -0.6970  2.6685  0.7094
 3054THY    CA176328   9.154   8.944   1.699  0.0913  0.7569 -0.2264
 3054THY    CA276329   9.029   8.912   1.643  0.1077  0.3671  0.1941
 3054THY    CP176330   8.999   8.939   1.493  0.7423 -1.0028  0.3273
 3054THY    HP176331   9.066   9.014   1.449 -0.2592  0.6836  1.5277
 3054THY    CP276332   9.012   8.804   1.412 -0.1378  0.2519 -0.2595
 3054THY    HP276333   8.933   8.737   1.448 -0.2141  1.0219  1.0658
 3054THY    HP376334   8.999   8.820   1.305  0.6491  3.6932  0.0439
 3054THY    HP476335   9.109   8.763   1.442 -0.0919  1.3305  1.1809
 3054THY    CP376336   8.863   8.997   1.470 -0.2592  0.5340  0.2209
 3054THY    HP576337   8.863   9.098   1.514  0.0832  0.4328  0.4530
 3054THY    HP676338   8.834   9.013   1.365  0.5315 -0.3046 -0.1334
 3054THY    HP776339   8.771   8.958   1.514 -0.4518  0.1987 -0.4763
 3054THY    CA376340   8.930   8.863   1.725 -0.5498 -0.2352  0.1096
 3054THY    HA376341   8.842   8.819   1.679  0.5583 -0.6429 -1.7323
 3054THY    CA476342   8.958   8.852   1.863 -0.1239 -0.4755 -0.2214
 3054THY    HA476343   8.890   8.815   1.940 -0.3172 -0.4192 -0.3646
 3054THY    CA576344   9.087   8.878   1.917 -0.3467 -0.1635 -0.3183
 3054THY    CM176345   9.128   8.848   2.061 -0.1993 -0.0797 -0.0132
 3054THY    HM176346   9.042   8.845   2.128  1.3436  0.5517  2.0958
 3054THY    HM276347   9.169   8.746   2.064  1.4147  0.5480  1.0245
 3054THY    HM376348   9.201   8.917   2.105 -2.1315  2.5207 -0.6497
 3054THY    CA676349   9.180   8.915   1.828  0.3723  0.2463 -0.6614
 3054THY    HA676350   9.281   8.934   1.863 -0.2135  1.8822  0.2592
 3055THY      O76351   4.066   9.565   7.944 -0.2447 -0.0486 -0.5354
 3055THY     HO76352   4.029   9.475   7.940 -0.5385 -0.1002  1.7519
 3055THY    CA176353   3.978   9.633   7.872  0.8280 -0.5670  0.1127
 3055THY    CA276354   4.009   9.754   7.811 -0.0073 -0.2582  0.5096
 3055THY    CP176355   4.153   9.808   7.836 -0.3314 -1.0941  0.2159
 3055THY    HP176356   4.220   9.753   7.903  1.8850  0.6499 -0.4620
 3055THY    CP276357   4.223   9.810   7.695 -0.8664  0.1363 -0.1149
 3055THY    HP276358   4.329   9.830   7.715 -1.0362  0.6300  0.3141
 3055THY    HP376359   4.213   9.716   7.639 -0.9644 -0.9351  1.6356
 3055THY    HP476360   4.186   9.891   7.631  3.9781  1.0701 -2.1655
 3055THY    CP376361   4.147   9.945   7.903  0.0274 -0.9528 -0.4556
 3055THY    HP576362   4.087   9.943   7.994  2.3443 -0.1439  1.1776
 3055THY    HP676363   4.243   9.978   7.943 -0.5763 -2.4178  2.4742
 3055THY    HP776364   4.105  10.018   7.832 -0.0185 -0.5027  0.0317
 3055THY    CA376365   3.915   9.817   7.728  0.2399  0.1991 -0.6972
 3055THY    HA376366   3.938   9.907   7.672 -1.1906  0.5624 -0.7469
 3055THY    CA476367   3.790   9.758   7.710 -0.1392 -0.5057 -0.0594
 3055THY    HA476368   3.711   9.804   7.652 -1.1901 -1.8317  0.2419
 3055THY    CA576369   3.760   9.637   7.757 -0.8587 -0.4213 -0.3893
 3055THY    CM176370   3.630   9.566   7.729 -0.1545 -0.0039  0.0188
 3055THY    HM176371   3.564   9.642   7.685 -2.1467 -1.1309  0.9025
 3055THY    HM276372   3.631   9.478   7.663 -1.0372 -1.5495  1.9596
 3055THY    HM376373   3.589   9.516   7.817 -1.1363 -0.0446 -0.4496
 3055THY    CA676374   3.855   9.580   7.850  0.3818  0.3734  0.3551
 3055THY    HA676375   3.833   9.480   7.888  2.5829  0.3710  1.7980
 3056THY      O76376   7.700   6.046   9.141  0.1471 -0.2768  0.4976
 3056THY     HO76377   7.718   5.986   9.067 -0.5056 -0.2094  0.2762
 3056THY    CA176378   7.609   5.999   9.225  0.6732 -0.2666  0.0242
 3056THY    CA276379   7.566   6.084   9.330 -0.3869 -0.4161  0.0528
 3056THY    CP176380   7.647   6.216   9.359  0.0775 -0.5644  0.0395
 3056THY    HP176381   7.752   6.207   9.328  0.0471  2.1167 -1.1273
 3056THY    CP276382   7.588   6.339   9.288  0.1191 -0.4714  0.0647
 3056THY    HP276383   7.601   6.319   9.181 -1.6348 -1.3052 -0.0158
 3056THY    HP376384   7.480   6.349   9.304  0.2707  0.9531  0.3446
 3056THY    HP476385   7.635   6.433   9.320 -1.3217  0.5411 -0.6895
 3056THY    CP376386   7.646   6.253   9.503  0.1559 -0.4075  0.0800
 3056THY    HP576387   7.736   6.311   9.528  1.0620 -2.8023  2.9109
 3056THY    HP676388   7.549   6.295   9.531 -0.2185 -0.2994 -1.3291
 3056THY    HP776389   7.659   6.165   9.567 -1.4323 -0.6678  0.0786
 3056THY    CA376390   7.465   6.035   9.408  1.0531 -0.2003 -0.5875
 3056THY    HA376391   7.433   6.094   9.493 -0.4189 -0.9441 -0.5784
 3056THY    CA476392   7.394   5.922   9.372  0.6436 -0.1327 -0.4333
 3056THY    HA476393   7.305   5.903   9.432 -0.0201  2.7376 -0.3820
 3056THY    CA576394   7.436   5.846   9.265  0.4991  0.0803 -0.2870
 3056THY    CM176395   7.358   5.716   9.238 -0.0896 -0.1861  0.1731
 3056THY    HM176396   7.357   5.658   9.331 -2.2787  0.9008  0.9041
 3056THY    HM276397   7.254   5.726   9.202 -0.4317 -1.1308  0.8672
 3056THY    HM376398   7.408   5.651   9.165 -0.3355 -0.4296  0.2189
 3056THY    CA676399   7.553   5.875   9.197  0.3695 -0.7706  0.9313
 3056THY    HA676400   7.586   5.830   9.104  0.3561  3.9817 -1.6793
 3057THY      O76401   1.785   2.041   1.612 -0.4407  0.3619  0.4295
 3057THY     HO76402   1.742   1.967   1.657  1.4371  0.0314  1.8140
 3057THY    CA176403   1.701   2.084   1.516  0.1165 -0.5583 -0.4336
 3057THY    CA276404   1.729   2.197   1.442 -0.6090 -1.2704  0.3366
 3057THY    CP176405   1.854   2.282   1.472  0.2293  0.4326 -0.4617
 3057THY    HP176406   1.897   2.252   1.569  1.3205  0.2565 -0.9914
 3057THY    CP276407   1.961   2.261   1.364  1.0806  0.6384 -0.5179
 3057THY    HP276408   1.917   2.296   1.271  1.8891  0.4889 -0.9684
 3057THY    HP376409   2.054   2.312   1.395 -1.1683  3.0652  2.9881
 3057THY    HP476410   1.987   2.155   1.357 -0.4185  0.0838  1.4822
 3057THY    CP376411   1.827   2.427   1.486  0.3328  0.4161 -0.3098
 3057THY    HP576412   1.810   2.473   1.388  2.0224 -2.0432 -1.8751
 3057THY    HP676413   1.737   2.443   1.545  0.4295 -1.2275  0.3200
 3057THY    HP776414   1.914   2.474   1.534 -1.8409  3.9141  0.6071
 3057THY    CA376415   1.652   2.217   1.326 -0.1912 -0.4674 -0.0820
 3057THY    HA376416   1.676   2.305   1.267 -2.4996  1.8409  2.1124
 3057THY    CA476417   1.535   2.139   1.305  0.1973  0.1860 -0.2212
 3057THY    HA476418   1.476   2.162   1.216  1.7892  0.1673 -1.3289
 3057THY    CA576419   1.499   2.032   1.394 -0.7248  0.0501  0.1366
 3057THY    CM176420   1.374   1.953   1.389  0.5718 -0.7341 -0.1626
 3057THY    HM176421   1.288   2.001   1.438 -2.0100 -2.5212 -2.5942
 3057THY    HM276422   1.338   1.943   1.285 -1.2300 -1.4341  0.4895
 3057THY    HM376423   1.385   1.848   1.420 -2.3947 -0.4871  2.1580
 3057THY    CA676424   1.597   2.004   1.492  0.4306  0.6498  0.6951
 3057THY    HA676425   1.568   1.922   1.557  0.0558 -0.4637 -0.8375
 3058THY      O76426   0.303   1.079   3.624  0.3412 -0.4894  0.0434
 3058THY     HO76427   0.371   1.029   3.575  1.5010  2.3901 -1.5469
 3058THY    CA176428   0.250   1.176   3.544  0.0517 -0.3171  0.7066
 3058THY    CA276429   0.197   1.294   3.599 -0.4754  0.5908  0.1183
 3058THY    CP176430   0.191   1.317   3.757  0.0506 -0.1659 -0.5395
 3058THY    HP176431   0.192   1.220   3.809 -1.6143 -0.2763 -0.6563
 3058THY    CP276432   0.311   1.404   3.807  0.2133  0.2988  0.4958
 3058THY    HP276433   0.308   1.411   3.917  1.5481  0.6487  0.5283
 3058THY    HP376434   0.399   1.344   3.783 -1.2710 -2.2617  1.0611
 3058THY    HP476435   0.320   1.503   3.761 -1.3548 -0.5932 -1.9087
 3058THY    CP376436   0.050   1.371   3.801 -0.2454 -0.3150  0.5341
 3058THY    HP576437   0.028   1.478   3.791  0.5029 -0.2415 -0.6563
 3058THY    HP676438  -0.036   1.321   3.754  0.4403  0.5832 -1.8598
 3058THY    HP776439   0.052   1.344   3.907 -0.2247 -1.6756  0.2085
 3058THY    CA376440   0.159   1.399   3.512 -0.1031  0.4383 -0.2419
 3058THY    HA376441   0.131   1.497   3.549 -0.5942 -0.4462  1.8561
 3058THY    CA476442   0.169   1.379   3.373 -0.0523 -0.2817 -0.3007
 3058THY    HA476443   0.155   1.462   3.304  1.6342  0.2411 -0.0538
 3058THY    CA576444   0.207   1.253   3.321  0.6854  0.2823 -0.1982
 3058THY    CM176445   0.181   1.220   3.174 -0.2690  0.5439  0.3186
 3058THY    HM176446   0.114   1.298   3.138  1.3621  2.1031  0.4943
 3058THY    HM276447   0.273   1.237   3.116  0.2771  0.1778  1.0528
 3058THY    HM376448   0.142   1.118   3.163 -1.9396  1.0563  1.1814
 3058THY    CA676449   0.243   1.150   3.408 -0.5086 -0.0231 -0.2196
 3058THY    HA676450   0.277   1.056   3.364  1.0537 -0.7098  2.2495
 3059THY      O76451   3.270   4.900   2.083 -0.0385 -0.1437  0.6230
 3059THY     HO76452   3.314   4.878   2.000 -0.2222 -2.3527  1.0673
 3059THY    CA176453   3.313   5.022   2.126  0.0274  0.7177 -0.2919
 3059THY    CA276454   3.366   5.032   2.253  0.2052  0.1043  0.5328
 3059THY    CP176455   3.383   4.912   2.339 -0.0458 -0.3117 -0.2540
 3059THY    HP176456   3.406   4.827   2.273 -0.2934  0.1385 -0.9233
 3059THY    CP276457   3.496   4.917   2.444 -0.0163  0.3754  0.9512
 3059THY    HP276458   3.510   4.810   2.461 -1.0334 -0.3588 -2.1167
 3059THY    HP376459   3.583   4.964   2.396 -1.0812  1.2234 -0.2387
 3059THY    HP476460   3.471   4.972   2.536  0.1466  2.3140 -0.1042
 3059THY    CP376461   3.261   4.877   2.417 -0.3626 -0.8982  0.3146
 3059THY    HP576462   3.280   4.790   2.481  2.7248  0.8794  2.0637
 3059THY    HP676463   3.242   4.959   2.487 -0.7663 -0.2610 -0.5264
 3059THY    HP776464   3.172   4.875   2.353 -0.5024  1.2124  0.3968
 3059THY    CA376465   3.376   5.166   2.302 -0.2954 -0.9349 -0.2682
 3059THY    HA376466   3.402   5.187   2.405 -0.4693 -0.9374 -0.2224
 3059THY    CA476467   3.356   5.275   2.218  0.5643  0.2713 -0.0982
 3059THY    HA476468   3.357   5.379   2.250 -1.7531  1.1236 -2.4687
 3059THY    CA576469   3.318   5.252   2.085  0.5802 -0.6065  0.6787
 3059THY    CM176470   3.297   5.368   1.989 -0.6095 -0.4471  1.1040
 3059THY    HM176471   3.379   5.441   1.994 -1.1571  0.1004  2.9239
 3059THY    HM276472   3.266   5.350   1.885 -2.1572  0.6373  1.3459
 3059THY    HM376473   3.218   5.433   2.028 -0.5979 -0.4395  1.1142
 3059THY    CA676474   3.298   5.125   2.041 -0.0876  0.6097 -0.6576
 3059THY    HA676475   3.262   5.095   1.943  2.0696 -1.7800 -0.8352
 3060THY      O76476   8.204   6.504   5.035 -0.0832  0.2843  0.1711
 3060THY     HO76477   8.258   6.428   5.007  2.1986  1.2906  1.5532
 3060THY    CA176478   8.307   6.592   5.045  0.0366  0.3835 -0.1826
 3060THY    CA276479   8.305   6.726   5.101 -0.3641 -0.4544  0.2619
 3060THY    CP176480   8.176   6.778   5.167 -0.0219  0.0479  0.2591
 3060THY    HP176481   8.111   6.693   5.191 -1.8529  0.9169 -1.3645
 3060THY    CP276482   8.204   6.828   5.304  0.4217  0.4491 -0.0258
 3060THY    HP276483   8.108   6.864   5.341  0.9130  2.8816 -0.8943
 3060THY    HP376484   8.243   6.750   5.371  1.1223  0.8163  0.0105
 3060THY    HP476485   8.277   6.910   5.306  1.3852 -0.3637  2.7441
 3060THY    CP376486   8.103   6.886   5.080  0.3704 -0.6388  0.1276
 3060THY    HP576487   8.019   6.937   5.128 -0.9323 -3.2351  0.8072
 3060THY    HP676488   8.166   6.971   5.051 -1.1954  0.7856  0.7318
 3060THY    HP776489   8.062   6.846   4.987  0.3953  0.3647 -0.3170
 3060THY    CA376490   8.421   6.801   5.095 -0.0158 -0.8736  0.2438
 3060THY    HA376491   8.419   6.896   5.147 -2.5887 -0.9817  0.4464
 3060THY    CA476492   8.532   6.759   5.016  0.0080 -0.0082 -0.2585
 3060THY    HA476493   8.621   6.821   5.006  0.2569 -0.0947  1.1611
 3060THY    CA576494   8.536   6.628   4.973 -0.4479  0.4284  0.7574
 3060THY    CM176495   8.663   6.576   4.897 -0.6328  0.1182  0.2549
 3060THY    HM176496   8.741   6.622   4.959 -1.4883 -0.0455  1.4744
 3060THY    HM276497   8.689   6.471   4.879 -0.9761  0.3596 -1.9155
 3060THY    HM376498   8.687   6.623   4.801 -0.2998  0.2075  0.3804
 3060THY    CA676499   8.423   6.545   4.986  0.4183  0.6152 -1.0130
 3060THY    HA676500   8.425   6.448   4.937 -1.7265  0.3339 -0.6690
 3061THY      O76501   3.181   5.861   1.063 -0.4981  0.2703  0.5632
 3061THY     HO76502   3.113   5.924   1.033  0.0894  1.1349  0.9926
 3061THY    CA176503   3.232   5.900   1.188  0.0423  0.1451 -0.1046
 3061THY    CA276504   3.342   5.833   1.249  0.1346  0.5735  1.2334
 3061THY    CP176505   3.385   5.703   1.170 -0.5078  0.3111 -0.2004
 3061THY    HP176506   3.302   5.657   1.114 -0.5552  0.7865 -0.5272
 3061THY    CP276507   3.499   5.740   1.066  0.1511 -0.5982  0.4128
 3061THY    HP276508   3.587   5.787   1.112  0.0579  0.9332 -0.8876
 3061THY    HP376509   3.524   5.660   0.995 -0.7655 -1.1316  0.6669
 3061THY    HP476510   3.446   5.810   1.000 -0.8381 -1.2803  0.4656
 3061THY    CP376511   3.435   5.594   1.275  0.0721 -0.5732 -0.7844
 3061THY    HP576512   3.372   5.602   1.365 -1.1278 -0.7211 -1.5841
 3061THY    HP676513   3.419   5.493   1.235 -2.3059 -1.8255  2.8092
 3061THY    HP776514   3.539   5.612   1.304 -0.3746 -1.2794  1.4605
 3061THY    CA376515   3.404   5.895   1.356 -0.0485  0.0928 -0.4606
 3061THY    HA376516   3.490   5.843   1.397 -1.1117 -0.5096  1.0868
 3061THY    CA476517   3.355   6.014   1.407  0.0981  0.7700  0.1528
 3061THY    HA476518   3.402   6.060   1.493  1.2776  2.2872 -1.2297
 3061THY    CA576519   3.238   6.073   1.357 -0.6510  0.1990 -0.0542
 3061THY    CM176520   3.189   6.190   1.424 -0.3952  0.0290  0.8023
 3061THY    HM176521   3.259   6.273   1.404  0.8509 -1.3320 -0.7460
 3061THY    HM276522   3.093   6.218   1.379  0.0393  0.2325 -0.0155
 3061THY    HM376523   3.181   6.172   1.532 -2.7331  0.0429  0.6876
 3061THY    CA676524   3.176   6.017   1.247 -0.1755  0.0741  0.2472
 3061THY    HA676525   3.092   6.070   1.204 -1.1905 -2.3258 -0.8961
 3062THY      O76526   2.707   7.943   8.353  0.4572  0.2245 -0.0567
 3062THY     HO76527   2.695   7.964   8.258 -1.1118  0.8091  0.2489
 3062THY    CA176528   2.598   7.984   8.421  0.4030 -0.1942  0.5499
 3062THY    CA276529   2.537   7.908   8.522 -0.3318 -0.0149  0.5187
 3062THY    CP176530   2.589   7.771   8.555 -0.9592  0.4423 -0.1121
 3062THY    HP176531   2.698   7.771   8.549 -0.7897 -1.6637  1.7572
 3062THY    CP276532   2.552   7.721   8.699 -0.2368  0.6612 -0.0638
 3062THY    HP276533   2.582   7.795   8.775 -1.6601  0.9181  0.2757
 3062THY    HP376534   2.451   7.681   8.713 -0.9786  2.5589  0.3399
 3062THY    HP476535   2.620   7.640   8.730 -1.3591  0.2464  1.4545
 3062THY    CP376536   2.546   7.673   8.445 -0.2595 -0.1869 -0.1337
 3062THY    HP576537   2.561   7.575   8.491  0.6035  1.5945  3.7419
 3062THY    HP676538   2.442   7.698   8.422 -0.1628 -0.6470 -1.1538
 3062THY    HP776539   2.603   7.691   8.353  2.2590  1.6721  1.6626
 3062THY    CA376540   2.424   7.959   8.598  0.2623 -0.3272  0.4769
 3062THY    HA376541   2.380   7.911   8.684  0.2140 -0.5140  0.3496
 3062THY    CA476542   2.385   8.093   8.561  0.8236  0.0359 -0.4900
 3062THY    HA476543   2.307   8.148   8.613  0.0242  0.2289 -1.8458
 3062THY    CA576544   2.448   8.166   8.460 -0.2005 -0.2683 -0.3195
 3062THY    CM176545   2.399   8.306   8.435 -0.1806  0.0620  1.2659
 3062THY    HM176546   2.455   8.357   8.357 -0.4573  0.5871  1.4050
 3062THY    HM276547   2.299   8.297   8.392  1.5666  0.0142 -3.3449
 3062THY    HM376548   2.406   8.373   8.522  0.7328 -0.2325  1.4339
 3062THY    CA676549   2.546   8.110   8.388  0.1283  0.1866 -0.1661
 3062THY    HA676550   2.587   8.177   8.313  0.0030 -0.1490 -0.5330
 3063THY      O76551   8.737   9.053   7.801 -0.6929  0.2587 -0.4082
 3063THY     HO76552   8.663   9.113   7.780 -0.8271 -0.2940 -1.5863
 3063THY    CA176553   8.724   8.941   7.722  0.2351 -0.4178  0.0276
 3063THY    CA276554   8.827   8.838   7.728 -0.3480  0.8936 -0.6004
 3063THY    CP176555   8.952   8.861   7.814 -0.4534  0.2860  0.1016
 3063THY    HP176556   8.942   8.948   7.879 -0.8726 -1.2414  2.1745
 3063THY    CP276557   8.970   8.748   7.916  0.1466  0.1312  0.5737
 3063THY    HP276558   8.888   8.726   7.986  2.1284  1.6746  3.5975
 3063THY    HP376559   8.993   8.653   7.867  0.4805  1.2157 -1.5292
 3063THY    HP476560   9.062   8.770   7.971 -0.6567  1.6369  1.3874
 3063THY    CP376561   9.087   8.874   7.734 -0.8670 -0.9159  0.1023
 3063THY    HP576562   9.171   8.891   7.802 -0.4179 -1.1137 -0.3914
 3063THY    HP676563   9.110   8.780   7.683 -0.0475 -0.0444 -1.2346
 3063THY    HP776564   9.087   8.945   7.650 -0.2434  0.2885  1.0874
 3063THY    CA376565   8.817   8.725   7.642 -0.1532  0.8576 -0.0878
 3063THY    HA376566   8.902   8.659   7.628  0.8441  1.9279  0.7666
 3063THY    CA476567   8.700   8.710   7.566 -0.3739  0.0334  0.4672
 3063THY    HA476568   8.694   8.615   7.512  0.8427  0.5685 -0.6866
 3063THY    CA576569   8.609   8.815   7.549 -0.4203  0.4907  0.1751
 3063THY    CM176570   8.495   8.796   7.452 -0.6036  0.3570 -0.3253
 3063THY    HM176571   8.400   8.778   7.504 -0.6128 -3.2999 -1.3651
 3063THY    HM276572   8.480   8.882   7.385 -3.1157  1.5734  1.6459
 3063THY    HM376573   8.505   8.711   7.383 -3.3026 -0.5651  0.2855
 3063THY    CA676574   8.620   8.927   7.627 -0.2906  0.4084 -0.0629
 3063THY    HA676575   8.538   8.995   7.612 -1.6511 -1.5890 -2.5234
 3064THY      O76576   2.302   8.442   9.708  0.2708 -0.0526 -0.0966
 3064THY     HO76577   2.317   8.389   9.628 -0.6985  0.3951 -0.5928
 3064THY    CA176578   2.295   8.568   9.666 -0.5509  0.6840 -0.1777
 3064THY    CA276579   2.267   8.672   9.752  1.2587 -0.2441 -0.4859
 3064THY    CP176580   2.227   8.641   9.898  0.3414 -0.8757  0.2989
 3064THY    HP176581   2.254   8.537   9.915  3.1161 -0.0063  1.8820
 3064THY    CP276582   2.305   8.717  10.006 -0.1381  0.1811  0.5466
 3064THY    HP276583   2.241   8.733  10.094  0.3641  1.1414  0.7482
 3064THY    HP376584   2.389   8.650  10.026 -1.4670 -1.9760 -0.6585
 3064THY    HP476585   2.334   8.815   9.967  1.8380 -0.4749  0.2665
 3064THY    CP376586   2.075   8.660   9.919 -0.2062 -0.1252 -0.0338
 3064THY    HP576587   2.035   8.596   9.840 -1.7573 -0.8637  1.3088
 3064THY    HP676588   2.040   8.634  10.019 -0.5276  0.2357 -0.0473
 3064THY    HP776589   2.056   8.764   9.887 -1.7288 -0.8789 -1.7366
 3064THY    CA376590   2.258   8.804   9.699  0.9448  0.2096 -0.0766
 3064THY    HA376591   2.214   8.886   9.755  0.4638 -0.1668  0.1056
 3064THY    CA476592   2.282   8.824   9.563  0.3886 -0.1966 -0.0032
 3064THY    HA476593   2.282   8.927   9.527 -0.4486 -0.7210 -1.5663
 3064THY    CA576594   2.314   8.717   9.476 -0.1590 -0.0425 -0.5282
 3064THY    CM176595   2.327   8.735   9.330 -0.8188 -0.0122  0.0580
 3064THY    HM176596   2.392   8.819   9.305 -1.0583  0.2147  0.1920
 3064THY    HM276597   2.371   8.644   9.286 -0.7244  0.1509 -0.1870
 3064THY    HM376598   2.228   8.761   9.291 -0.3252  0.6213 -0.7977
 3064THY    CA676599   2.306   8.583   9.527 -0.1237 -0.0357  0.0552
 3064THY    HA676600   2.332   8.501   9.461 -2.1191 -1.6984  1.2112
 3065THY      O76601   9.307   7.731   7.749  0.0338  0.7852  0.2530
 3065THY     HO76602   9.390   7.712   7.702 -0.7114 -1.9397 -0.1519
 3065THY    CA176603   9.285   7.865   7.763 -0.3547  0.3579  0.0078
 3065THY    CA276604   9.162   7.923   7.783 -0.3935 -0.5232  0.3963
 3065THY    CP176605   9.034   7.838   7.782  0.0378 -0.2203  0.5224
 3065THY    HP176606   9.061   7.734   7.761  1.8139  0.5809 -1.5809
 3065THY    CP276607   8.954   7.838   7.915 -0.7967 -1.1245 -0.8710
 3065THY    HP276608   8.916   7.936   7.944 -0.8779 -1.6029  0.7485
 3065THY    HP376609   8.880   7.756   7.915 -0.1428 -1.7808  1.6222
 3065THY    HP476610   9.031   7.821   7.991 -0.1308 -2.1077 -1.7306
 3065THY    CP376611   8.937   7.893   7.684  0.5927  0.3216  0.3701
 3065THY    HP576612   8.844   7.834   7.683  1.1972 -0.7803 -3.0075
 3065THY    HP676613   8.902   7.996   7.699 -1.0153 -0.0728 -0.3994
 3065THY    HP776614   8.991   7.883   7.589  1.2218  2.0476  0.5143
 3065THY    CA376615   9.155   8.057   7.828 -0.2186 -1.2274 -0.5681
 3065THY    HA376616   9.062   8.113   7.838  0.5231  0.1734 -1.2926
 3065THY    CA476617   9.274   8.129   7.844  0.1234 -0.6220 -0.2576
 3065THY    HA476618   9.277   8.236   7.865 -0.1146 -0.7359  0.3683
 3065THY    CA576619   9.395   8.076   7.820 -0.1358  0.0638  0.2639
 3065THY    CM176620   9.525   8.155   7.842 -0.2698  0.5894 -0.2073
 3065THY    HM176621   9.511   8.264   7.832  1.4247  0.9188  0.7006
 3065THY    HM276622   9.549   8.157   7.948  1.0304  2.5995 -0.4804
 3065THY    HM376623   9.611   8.121   7.783  0.5400 -1.9383  2.2478
 3065THY    CA676624   9.400   7.942   7.777 -0.0717  0.3858  0.6405
 3065THY    HA676625   9.500   7.904   7.759  0.3529  2.3596 -1.7734
 3066THY      O76626   1.217   3.617   5.617  0.5633  0.7088 -0.1647
 3066THY     HO76627   1.314   3.624   5.619  0.6958 -0.3891 -1.4510
 3066THY    CA176628   1.166   3.721   5.680  0.1261 -0.0516 -0.3696
 3066THY    CA276629   1.039   3.711   5.740  0.3350 -0.3795  0.1196
 3066THY    CP176630   0.957   3.574   5.741  0.2387 -0.6035 -0.4799
 3066THY    HP176631   1.003   3.508   5.665 -0.6418  0.9473 -2.4501
 3066THY    CP276632   0.975   3.506   5.881 -0.7158 -0.2689 -0.5036
 3066THY    HP276633   0.888   3.455   5.924  0.4120 -1.2019  0.7858
 3066THY    HP376634   1.039   3.418   5.866 -1.3372 -1.2717  2.0799
 3066THY    HP476635   1.033   3.571   5.947 -0.9820  0.9427 -1.4235
 3066THY    CP376636   0.809   3.580   5.703  0.3552  0.3260  0.3961
 3066THY    HP576637   0.801   3.635   5.609  0.8046 -0.0772  0.1185
 3066THY    HP676638   0.768   3.478   5.693 -0.5913  0.4404  2.4999
 3066THY    HP776639   0.753   3.636   5.778 -1.2369 -1.5651  0.7102
 3066THY    CA376640   0.987   3.830   5.797  0.2671 -0.2608 -0.4461
 3066THY    HA376641   0.886   3.829   5.835  0.9217 -1.7512  1.3718
 3066THY    CA476642   1.053   3.954   5.785  0.2325  0.8048 -0.5469
 3066THY    HA476643   1.019   4.043   5.838  0.1798 -0.2728  1.3432
 3066THY    CA576644   1.177   3.960   5.722  0.0020 -0.1292 -0.4258
 3066THY    CM176645   1.259   4.091   5.710  1.0199 -0.6889  0.1915
 3066THY    HM176646   1.366   4.072   5.725  1.5397 -1.6158 -3.6710
 3066THY    HM276647   1.246   4.133   5.610 -0.1087 -0.6040  0.3628
 3066THY    HM376648   1.233   4.158   5.792 -0.5132 -2.0788  0.8964
 3066THY    CA676649   1.235   3.838   5.680 -0.5929 -0.0668 -0.3053
 3066THY    HA676650   1.334   3.843   5.634 -0.1307  0.4338  0.7232
 3067THY      O76651   9.250   1.089   8.359 -0.0066  0.2363 -0.1823
 3067THY     HO76652   9.303   1.140   8.421 -1.1813 -1.1304  2.0723
 3067THY    CA176653   9.333   0.981   8.317  0.2301 -0.0509 -0.1670
 3067THY    CA276654   9.276   0.863   8.261 -0.1196  0.5671 -0.2896
 3067THY    CP176655   9.129   0.843   8.243  0.2518  0.5080 -0.6867
 3067THY    HP176656   9.077   0.932   8.280  0.2366  0.7566 -1.3041
 3067THY    CP276657   9.082   0.806   8.100 -1.4743 -0.2078  0.4743
 3067THY    HP276658   9.080   0.888   8.028 -1.2100 -0.1688  0.5118
 3067THY    HP376659   9.136   0.717   8.066 -1.0146  0.9456 -2.0394
 3067THY    HP476660   8.978   0.771   8.099 -1.8494  0.6182 -2.9819
 3067THY    CP376661   9.091   0.728   8.338  0.0522  0.0143  0.2555
 3067THY    HP576662   9.109   0.625   8.304  0.6115  0.5702 -1.2076
 3067THY    HP676663   9.149   0.738   8.431  0.9968 -0.4457 -0.2685
 3067THY    HP776664   8.986   0.743   8.363  0.6114  0.2031  2.7446
 3067THY    CA376665   9.367   0.767   8.209  0.3612 -0.8699  0.2229
 3067THY    HA376666   9.322   0.677   8.167 -2.1782  0.0702  0.7714
 3067THY    CA476667   9.507   0.792   8.214  0.3869  0.2774 -0.2695
 3067THY    HA476668   9.570   0.721   8.160 -0.3556 -1.7777  1.4149
 3067THY    CA576669   9.557   0.903   8.271 -0.2406  0.0384 -0.6288
 3067THY    CM176670   9.708   0.924   8.282 -0.0897 -0.5154 -0.9066
 3067THY    HM176671   9.722   1.022   8.328 -3.7980 -1.8815  3.9585
 3067THY    HM276672   9.754   0.845   8.342 -0.0403  0.5686  0.5129
 3067THY    HM376673   9.762   0.910   8.187  0.2740  0.2097 -0.8090
 3067THY    CA676674   9.468   0.998   8.329 -0.4654 -0.6163 -0.5057
 3067THY    HA676675   9.503   1.087   8.380  1.0809 -1.8861  0.7686
 3068THY      O76676   8.537   4.081   5.150 -0.1341  0.8262  0.8516
 3068THY     HO76677   8.536   4.114   5.241  0.6624  2.3931  0.3340
 3068THY    CA176678   8.508   3.949   5.170 -0.4864  0.7711 -0.2550
 3068THY    CA276679   8.536   3.846   5.076 -0.0029  0.2164 -0.2657
 3068THY    CP176680   8.628   3.876   4.950 -0.2972 -0.2519  0.2710
 3068THY    HP176681   8.628   3.979   4.914  4.0636  0.0351  0.5514
 3068THY    CP276682   8.774   3.849   4.993  0.4389 -0.2774 -0.0738
 3068THY    HP276683   8.812   3.940   5.041 -0.1101  0.5525 -1.1755
 3068THY    HP376684   8.778   3.777   5.076  2.2355 -0.1453 -0.0063
 3068THY    HP476685   8.837   3.820   4.909  2.0459  1.2956  0.5157
 3068THY    CP376686   8.584   3.791   4.829  0.1260 -0.3314  0.0518
 3068THY    HP576687   8.477   3.769   4.818  0.4278 -1.9615  0.1269
 3068THY    HP676688   8.623   3.814   4.730 -0.3368 -1.7002 -0.4632
 3068THY    HP776689   8.619   3.689   4.847  2.0380  0.1950 -0.4725
 3068THY    CA376690   8.483   3.723   5.106 -0.0618 -0.3990  0.5545
 3068THY    HA376691   8.500   3.645   5.032  0.6991  0.3755 -0.1105
 3068THY    CA476692   8.406   3.700   5.223  0.6290 -0.5903  0.5663
 3068THY    HA476693   8.368   3.599   5.228  1.7852 -1.1401 -1.0626
 3068THY    CA576694   8.377   3.798   5.311 -0.1848  0.0989 -0.0240
 3068THY    CM176695   8.290   3.775   5.428 -0.8814 -0.2024 -0.1038
 3068THY    HM176696   8.243   3.677   5.409  0.1299 -0.7655  0.2183
 3068THY    HM276697   8.349   3.782   5.520 -3.8134  1.2336  1.8501
 3068THY    HM376698   8.211   3.850   5.430  0.5244  1.3360 -0.6315
 3068THY    CA676699   8.431   3.926   5.290  0.5465  0.3664 -0.5180
 3068THY    HA676700   8.398   4.005   5.356 -0.8883  0.9272 -1.8403
 3069THY      O76701   9.173   2.680   8.490 -0.1930 -0.1850 -0.7118
 3069THY     HO76702   9.121   2.618   8.545 -0.6999 -0.5977 -1.6379
 3069THY    CA176703   9.105   2.719   8.377 -0.4430  0.2726 -0.4765
 3069THY    CA276704   9.160   2.812   8.285 -0.4236  0.1765 -0.5680
 3069THY    CP176705   9.301   2.855   8.292 -0.1926 -0.3220 -0.0472
 3069THY    HP176706   9.344   2.820   8.386  2.4348  0.2486 -0.9532
 3069THY    CP276707   9.382   2.787   8.184  0.0424 -0.1312  0.8028
 3069THY    HP276708   9.373   2.678   8.180 -1.9830 -0.0612  1.9702
 3069THY    HP376709   9.352   2.824   8.086 -0.1983  0.3449  1.0510
 3069THY    HP476710   9.487   2.808   8.207  0.2350 -0.6910  0.4645
 3069THY    CP376711   9.308   3.013   8.294 -0.7691 -0.1004  0.0243
 3069THY    HP576712   9.411   3.045   8.313 -0.5346 -0.3249 -0.8161
 3069THY    HP676713   9.261   3.055   8.204 -0.4199 -0.6870 -0.4440
 3069THY    HP776714   9.243   3.044   8.376  0.2086  1.3561  0.2880
 3069THY    CA376715   9.078   2.857   8.183 -0.7830  0.6698  0.4139
 3069THY    HA376716   9.107   2.936   8.115 -0.5529 -0.5421 -0.9461
 3069THY    CA476717   8.954   2.802   8.164 -0.2851  0.3784 -0.3176
 3069THY    HA476718   8.894   2.845   8.084 -0.6790  1.9645  0.8018
 3069THY    CA576719   8.903   2.705   8.249  0.0125  0.2890 -0.3543
 3069THY    CM176720   8.761   2.651   8.235 -0.4891 -0.2773 -0.7225
 3069THY    HM176721   8.702   2.649   8.328 -1.4495 -3.7507 -1.2883
 3069THY    HM276722   8.706   2.714   8.164 -0.5447  0.4430 -0.0624
 3069THY    HM376723   8.758   2.550   8.195 -0.3380  0.1206 -1.7647
 3069THY    CA676724   8.979   2.669   8.360  0.5754 -0.1377 -0.8648
 3069THY    HA676725   8.942   2.603   8.438 -0.3289 -0.6123 -1.6751
 3070THY      O76726   2.711   1.910   7.736 -0.6271  0.3237 -0.6982
 3070THY     HO76727   2.661   1.832   7.705 -1.4030  0.1632  0.8599
 3070THY    CA176728   2.758   1.966   7.628 -0.4090 -0.7515  0.2342
 3070THY    CA276729   2.703   2.083   7.573 -0.2886 -0.8085  0.3729
 3070THY    CP176730   2.575   2.148   7.644 -0.0685  0.9381  0.0510
 3070THY    HP176731   2.513   2.061   7.669  0.1058  0.5540 -0.7990
 3070THY    CP276732   2.607   2.221   7.771  0.7609  0.3784 -0.6941
 3070THY    HP276733   2.655   2.318   7.753  0.4627  0.8893  1.0184
 3070THY    HP376734   2.517   2.247   7.828 -0.5481  3.0367 -3.6601
 3070THY    HP476735   2.679   2.165   7.831  2.9115  3.0902 -0.5534
 3070THY    CP376736   2.489   2.248   7.551 -0.0458 -0.0594  0.0706
 3070THY    HP576737   2.447   2.180   7.476  1.9396 -3.2876  1.6511
 3070THY    HP676738   2.403   2.289   7.607 -0.4875 -0.8504 -0.0187
 3070THY    HP776739   2.544   2.329   7.502  0.3457 -1.3908 -1.7779
 3070THY    CA376740   2.760   2.133   7.456  0.0060  0.0675  0.0945
 3070THY    HA376741   2.724   2.222   7.405  0.7364  0.7005  0.6622
 3070THY    CA476742   2.874   2.069   7.403  0.6014  0.2907  0.9888
 3070THY    HA476743   2.913   2.100   7.307 -0.0057 -0.4698  0.4805
 3070THY    CA576744   2.932   1.958   7.461 -0.3520 -0.2910 -0.4748
 3070THY    CM176745   3.031   1.878   7.382 -0.5465  0.4156 -0.0204
 3070THY    HM176746   3.084   1.915   7.294 -0.0703  2.3717  1.0136
 3070THY    HM276747   3.104   1.827   7.445 -0.3788 -1.6160 -1.7853
 3070THY    HM376748   2.969   1.792   7.357 -0.0298 -0.1427  0.6009
 3070THY    CA676749   2.871   1.902   7.576 -0.3673  0.2762 -0.7316
 3070THY    HA676750   2.906   1.811   7.623  0.1084  1.8351  2.1384
 3071THY      O76751   4.768   2.957   5.891 -0.0606  0.5823 -0.0718
 3071THY     HO76752   4.788   3.005   5.809 -0.0858  0.7087 -0.0045
 3071THY    CA176753   4.735   3.049   5.986 -0.7838  0.1769 -0.1253
 3071THY    CA276754   4.687   3.018   6.117 -0.0387  0.7130  0.3339
 3071THY    CP176755   4.676   2.880   6.158 -0.2707  0.1756 -0.6400
 3071THY    HP176756   4.673   2.821   6.065 -3.1176 -0.1384 -0.4587
 3071THY    CP276757   4.803   2.848   6.238 -0.2776 -0.4129  0.0601
 3071THY    HP276758   4.804   2.865   6.346  0.2526  0.0467 -0.0175
 3071THY    HP376759   4.824   2.740   6.232 -3.1237 -1.0053 -1.4166
 3071THY    HP476760   4.890   2.906   6.206  2.1637 -3.9424 -0.3037
 3071THY    CP376761   4.557   2.844   6.250  0.6846 -0.2286 -0.1943
 3071THY    HP576762   4.538   2.925   6.322  1.6719 -2.3031  2.5859
 3071THY    HP676763   4.472   2.829   6.183  0.1847  0.0375  0.3718
 3071THY    HP776764   4.567   2.750   6.304 -0.2416  0.7631  1.8134
 3071THY    CA376765   4.661   3.119   6.212  0.0038  0.4586 -0.1250
 3071THY    HA376766   4.638   3.096   6.316 -2.2235 -0.5277 -0.7710
 3071THY    CA476767   4.677   3.254   6.171 -0.1404 -0.2841  0.2662
 3071THY    HA476768   4.664   3.329   6.249  1.1504 -2.2004  2.4751
 3071THY    CA576769   4.720   3.282   6.038 -0.2070  0.2503 -0.2753
 3071THY    CM176770   4.729   3.422   5.982 -0.3531  0.1982 -0.1433
 3071THY    HM176771   4.828   3.439   5.940 -0.1443  0.9418  0.6246
 3071THY    HM276772   4.650   3.442   5.908 -0.3061 -0.2656 -0.3234
 3071THY    HM376773   4.717   3.492   6.065  0.0032 -0.4277  0.4450
 3071THY    CA676774   4.755   3.181   5.950 -0.4639  0.3053 -0.0848
 3071THY    HA676775   4.791   3.205   5.850 -1.6665  0.3553 -0.5176
 3072THY      O76776   0.138   0.256   6.522 -0.2377 -0.3473  0.3239
 3072THY     HO76777   0.168   0.194   6.591 -0.8973 -0.9732  0.0635
 3072THY    CA176778   0.044   0.337   6.572 -0.3175 -0.7418 -1.0675
 3072THY    CA276779  -0.027   0.428   6.490 -0.4520  0.0605  0.5109
 3072THY    CP176780  -0.008   0.413   6.345  0.1862 -0.4182  0.1920
 3072THY    HP176781   0.101   0.406   6.330  0.2564  0.1299  0.4263
 3072THY    CP276782  -0.069   0.278   6.294 -0.1386 -0.1941  0.1045
 3072THY    HP276783  -0.011   0.193   6.333 -0.2339 -0.1811  0.2706
 3072THY    HP376784  -0.170   0.290   6.333  1.0124  1.6417  2.7968
 3072THY    HP476785  -0.079   0.281   6.185 -1.8325  2.7891  0.2598
 3072THY    CP376786  -0.060   0.532   6.259 -0.7858  0.2014  0.1691
 3072THY    HP576787  -0.030   0.524   6.154  1.9951 -3.3823  1.0382
 3072THY    HP676788  -0.167   0.554   6.251 -0.8654  0.3596  1.4037
 3072THY    HP776789  -0.019   0.621   6.308 -0.5788 -1.1513  2.5975
 3072THY    CA376790  -0.108   0.526   6.553  0.1291  0.2989  0.8797
 3072THY    HA376791  -0.164   0.599   6.495 -2.8765  0.2077  3.4007
 3072THY    CA476792  -0.131   0.518   6.691 -0.0011  0.2952  0.2709
 3072THY    HA476793  -0.196   0.595   6.731  1.0702  2.2956 -1.6268
 3072THY    CA576794  -0.077   0.415   6.767 -0.4207  0.7001  0.4752
 3072THY    CM176795  -0.104   0.393   6.908 -0.5552 -0.2481  0.1979
 3072THY    HM176796  -0.059   0.302   6.947 -0.3921 -0.8990 -1.4350
 3072THY    HM276797  -0.051   0.473   6.962  1.6805 -0.4884 -1.4556
 3072THY    HM376798  -0.211   0.395   6.928 -0.6576 -0.4320 -0.3171
 3072THY    CA676799   0.019   0.328   6.704  0.1487  0.3093 -0.0730
 3072THY    HA676800   0.074   0.263   6.771 -0.4265  1.3118  1.4308
 3073THY      O76801   4.771   7.466   1.061  0.2210  0.0760 -0.3846
 3073THY     HO76802   4.828   7.388   1.073 -0.4128 -0.7615 -2.3247
 3073THY    CA176803   4.719   7.487   1.186  0.3729  0.7442 -0.3899
 3073THY    CA276804   4.642   7.603   1.214  0.2650  0.0628  0.2345
 3073THY    CP176805   4.648   7.716   1.117  0.4457 -0.2578 -0.3442
 3073THY    HP176806   4.656   7.676   1.016  1.1825 -0.1345 -0.3400
 3073THY    CP276807   4.518   7.802   1.112  0.7667 -0.7479 -0.1660
 3073THY    HP276808   4.519   7.876   1.031 -0.3755 -1.1122 -0.5266
 3073THY    HP376809   4.431   7.735   1.113 -0.0289  0.1744  2.9283
 3073THY    HP476810   4.509   7.865   1.201  0.7448 -2.1362  0.8512
 3073THY    CP376811   4.770   7.807   1.130  0.1036 -0.9473 -0.8080
 3073THY    HP576812   4.863   7.749   1.132  0.0724 -0.9720  0.4509
 3073THY    HP676813   4.779   7.870   1.040 -0.2543  3.4160  1.9009
 3073THY    HP776814   4.756   7.867   1.220  0.1271 -1.9010 -0.1557
 3073THY    CA376815   4.581   7.611   1.343  0.0215 -0.2986 -0.3063
 3073THY    HA376816   4.512   7.693   1.366  1.4858  0.8406  0.1967
 3073THY    CA476817   4.586   7.497   1.426  0.2241  0.3340  0.0405
 3073THY    HA476818   4.523   7.497   1.515  0.8516 -2.4234  0.5729
 3073THY    CA576819   4.662   7.384   1.398 -0.4556 -0.3960  0.4739
 3073THY    CM176820   4.687   7.260   1.487 -0.6373 -0.1831  0.4287
 3073THY    HM176821   4.790   7.244   1.521 -0.9814 -1.8716  0.7666
 3073THY    HM276822   4.642   7.275   1.585 -0.7890  1.0621  0.1761
 3073THY    HM376823   4.661   7.173   1.425  1.7026 -0.0403 -0.9122
 3073THY    CA676824   4.729   7.380   1.278  0.6098 -0.1003 -0.5547
 3073THY    HA676825   4.790   7.293   1.257  1.8323  0.7435 -0.6553
 3074THY      O76826   4.265   5.365   3.214 -0.4742 -0.1717  0.1160
 3074THY     HO76827   4.357   5.337   3.225 -0.9333 -1.3133  1.4009
 3074THY    CA176828   4.262   5.444   3.320 -0.1823 -0.2663 -0.0992
 3074THY    CA276829   4.149   5.501   3.369  0.1444  0.2826 -0.9123
 3074THY    CP176830   4.009   5.479   3.299  0.0112 -0.3259 -0.2913
 3074THY    HP176831   4.030   5.454   3.194  0.1757  1.5118 -0.7445
 3074THY    CP276832   3.933   5.365   3.381 -0.8164 -0.2571  0.6834
 3074THY    HP276833   3.986   5.273   3.408  0.7474  0.9764  2.0027
 3074THY    HP376834   3.893   5.410   3.472 -0.3272  0.1278  0.7081
 3074THY    HP476835   3.846   5.334   3.322 -1.2167  2.4139 -0.2678
 3074THY    CP376836   3.935   5.612   3.302 -0.1882  0.0502 -0.7811
 3074THY    HP576837   3.847   5.594   3.240 -0.6405 -0.5800  0.0157
 3074THY    HP676838   3.887   5.633   3.399 -6.6565 -2.6015 -2.8376
 3074THY    HP776839   3.993   5.699   3.270 -3.0501  2.7857  0.9196
 3074THY    CA376840   4.156   5.571   3.486  0.1035  0.1644  0.0836
 3074THY    HA376841   4.066   5.611   3.531 -0.4437 -0.4111 -0.4891
 3074THY    CA476842   4.279   5.590   3.548  0.6994  0.2569  0.1055
 3074THY    HA476843   4.270   5.645   3.641 -0.1217 -1.0474  0.8199
 3074THY    CA576844   4.400   5.547   3.488 -0.2060 -0.8318  0.4527
 3074THY    CM176845   4.531   5.575   3.551 -0.1508  0.0601  0.5845
 3074THY    HM176846   4.559   5.679   3.570  0.6033  0.0116 -0.2040
 3074THY    HM276847   4.531   5.517   3.645 -0.8951  1.2130  1.3238
 3074THY    HM376848   4.612   5.536   3.488 -1.4093  0.4498 -1.3461
 3074THY    CA676849   4.388   5.469   3.377 -1.0693  0.3525  0.2201
 3074THY    HA676850   4.479   5.427   3.335  0.2012  1.4463  1.7930
 3075THY      O76851   5.650   0.637   2.226 -0.4687 -0.1282  0.0265
 3075THY     HO76852   5.605   0.697   2.164 -0.1792  0.3914  0.3161
 3075THY    CA176853   5.743   0.568   2.155  0.2721  0.5077 -0.0248
 3075THY    CA276854   5.812   0.458   2.216 -0.3270  1.3523 -0.0936
 3075THY    CP176855   5.788   0.401   2.356 -0.4628 -0.1561  0.4628
 3075THY    HP176856   5.738   0.482   2.410 -0.8287  0.0921 -0.2361
 3075THY    CP276857   5.717   0.269   2.335  0.4203  0.1989  0.3490
 3075THY    HP276858   5.631   0.293   2.272  1.1326  3.5506  0.4527
 3075THY    HP376859   5.782   0.207   2.272 -1.0827 -0.9553 -0.1152
 3075THY    HP476860   5.673   0.217   2.421 -0.9206 -0.5429 -0.7441
 3075THY    CP376861   5.914   0.382   2.433  0.1748  0.2388  0.0257
 3075THY    HP576862   5.978   0.303   2.393  0.6797 -0.2741  1.7661
 3075THY    HP676863   5.969   0.477   2.438  1.3638 -0.1707 -3.0876
 3075THY    HP776864   5.889   0.368   2.539  1.2402 -1.1936  0.1131
 3075THY    CA376865   5.912   0.399   2.135 -0.6872  0.1554 -0.3744
 3075THY    HA376866   5.961   0.308   2.171 -0.6891 -0.0396 -0.8560
 3075THY    CA476867   5.933   0.446   2.004  0.0431 -0.5495  0.5389
 3075THY    HA476868   5.992   0.391   1.933 -0.5662 -1.4025  0.6741
 3075THY    CA576869   5.866   0.556   1.954  0.3125 -0.3296 -0.0400
 3075THY    CM176870   5.905   0.614   1.823  0.7293 -0.2601  0.1218
 3075THY    HM176871   5.932   0.717   1.848 -0.2423  0.0052  0.0801
 3075THY    HM276872   5.984   0.563   1.767  0.8921  1.4641 -1.3131
 3075THY    HM376873   5.814   0.621   1.763 -0.2328  3.0971  1.7650
 3075THY    CA676874   5.774   0.622   2.032 -0.0330  0.8345  0.1724
 3075THY    HA676875   5.728   0.714   1.998 -3.2075 -0.9765 -0.8141
 3076THY      O76876   4.378   2.779   2.709  0.2920 -0.1448  0.1019
 3076THY     HO76877   4.466   2.737   2.712  0.1696 -0.3660  1.2978
 3076THY    CA176878   4.320   2.793   2.831 -0.4263  0.4455 -0.6338
 3076THY    CA276879   4.197   2.858   2.842  0.0003 -0.3187 -0.6527
 3076THY    CP176880   4.126   2.908   2.720  0.2985 -0.0419  1.2798
 3076THY    HP176881   4.185   2.926   2.630 -2.8352 -1.7013 -1.3288
 3076THY    CP276882   4.032   2.798   2.668  0.0437 -0.5535 -0.4329
 3076THY    HP276883   3.999   2.825   2.567 -0.4780  0.9586  0.1135
 3076THY    HP376884   4.084   2.701   2.674 -0.7457 -0.8846  2.1088
 3076THY    HP476885   3.950   2.793   2.741  0.2736 -1.7940 -0.2363
 3076THY    CP376886   4.037   3.044   2.743 -0.3581  0.1496  0.4036
 3076THY    HP576887   4.104   3.121   2.783 -0.7092  0.7683 -0.1864
 3076THY    HP676888   3.997   3.086   2.650 -0.1411  2.9144  1.4481
 3076THY    HP776889   3.953   3.035   2.812  0.8036 -0.4348  1.7972
 3076THY    CA376890   4.150   2.876   2.978  0.5096 -0.2657 -0.4613
 3076THY    HA376891   4.058   2.930   2.998  1.2915  0.8303  0.2713
 3076THY    CA476892   4.223   2.829   3.090  0.1691 -0.6274  0.2161
 3076THY    HA476893   4.181   2.852   3.188  1.2747  0.0907  0.5522
 3076THY    CA576894   4.348   2.766   3.075  0.0829  0.7872  0.4538
 3076THY    CM176895   4.400   2.685   3.190 -0.8063  0.6305 -0.0388
 3076THY    HM176896   4.411   2.577   3.173  0.0459  0.9217 -1.4464
 3076THY    HM276897   4.498   2.723   3.221  0.6277 -1.1800 -2.0863
 3076THY    HM376898   4.333   2.680   3.277  0.3080 -2.3123  0.7955
 3076THY    CA676899   4.388   2.746   2.943 -0.6920 -0.4403 -0.6970
 3076THY    HA676900   4.480   2.688   2.931 -0.5239 -0.5517  0.9026
 3077THY      O76901   1.254   5.608   0.914  0.3630 -0.1461  0.6568
 3077THY     HO76902   1.327   5.660   0.877 -0.7097  0.6354 -0.4397
 3077THY    CA176903   1.200   5.528   0.824 -0.4064 -0.6077  0.4651
 3077THY    CA276904   1.127   5.411   0.860  1.0669  0.4408  0.3042
 3077THY    CP176905   1.102   5.369   1.006  0.2032 -0.3919 -0.2772
 3077THY    HP176906   1.151   5.438   1.075 -1.0846 -1.2169  1.5323
 3077THY    CP276907   0.952   5.363   1.035  0.0032  0.4722  0.7016
 3077THY    HP276908   0.928   5.470   1.042  3.9332  1.4817  0.7026
 3077THY    HP376909   0.889   5.305   0.966  1.7364 -2.6084  1.5066
 3077THY    HP476910   0.928   5.319   1.132 -1.0874 -2.6409 -0.8553
 3077THY    CP376911   1.166   5.234   1.035 -0.7401  0.4600 -0.0291
 3077THY    HP576912   1.151   5.198   1.138  2.5133 -1.1697 -0.0029
 3077THY    HP676913   1.131   5.161   0.962 -0.1454  0.2034 -0.0622
 3077THY    HP776914   1.275   5.240   1.022 -0.9757 -0.3159 -2.8031
 3077THY    CA376915   1.064   5.334   0.756  0.2615 -0.2200 -0.2384
 3077THY    HA376916   1.017   5.239   0.780  2.8695 -1.1926  1.5793
 3077THY    CA476917   1.062   5.379   0.624 -0.4167  0.4274 -0.2357
 3077THY    HA476918   1.006   5.328   0.546 -3.0782  3.2570 -0.3851
 3077THY    CA576919   1.135   5.490   0.588 -0.6513  0.3606 -0.5745
 3077THY    CM176920   1.146   5.522   0.442 -0.2986 -0.3018  0.1301
 3077THY    HM176921   1.165   5.440   0.372 -0.7786 -1.8607  1.7541
 3077THY    HM276922   1.065   5.590   0.412 -1.4437 -0.7942  1.9112
 3077THY    HM376923   1.239   5.578   0.431  0.3567 -1.4936 -0.5368
 3077THY    CA676924   1.206   5.562   0.686 -0.3236  0.1078 -0.3454
 3077THY    HA676925   1.252   5.656   0.658  2.4420 -0.8786  0.5945
 3078THY      O76926   3.150   7.824   2.531  0.3224 -0.7196  0.5225
 3078THY     HO76927   3.094   7.746   2.512 -0.8139  0.2031  0.0159
 3078THY    CA176928   3.171   7.815   2.662  0.5351  0.0690  0.3085
 3078THY    CA276929   3.268   7.892   2.718 -0.4062 -0.2931 -0.3946
 3078THY    CP176930   3.358   7.987   2.637 -0.2570 -0.1322 -0.4809
 3078THY    HP176931   3.318   7.992   2.535 -1.2210 -3.1701 -0.3442
 3078THY    CP276932   3.372   8.130   2.692 -0.8192 -0.2052  0.0307
 3078THY    HP276933   3.274   8.177   2.710 -0.9155  0.0192 -1.0193
 3078THY    HP376934   3.430   8.135   2.785 -3.2992 -1.4801  1.7628
 3078THY    HP476935   3.431   8.183   2.616  2.7687 -3.4206  0.2767
 3078THY    CP376936   3.499   7.915   2.634 -0.3186  0.1568 -0.1562
 3078THY    HP576937   3.544   7.927   2.733  0.4118  0.5482 -0.5270
 3078THY    HP676938   3.480   7.808   2.624  2.0222 -0.6402  2.5934
 3078THY    HP776939   3.554   7.951   2.547 -1.9969  0.8773 -0.9663
 3078THY    CA376940   3.282   7.887   2.861  0.7620  0.0789  0.2141
 3078THY    HA376941   3.366   7.940   2.905  0.9356 -0.5289  0.6251
 3078THY    CA476942   3.190   7.801   2.938  0.2795  0.1565  0.2103
 3078THY    HA476943   3.201   7.815   3.045  2.5189 -0.5492  0.1246
 3078THY    CA576944   3.093   7.727   2.877  0.0625  0.0805 -0.2598
 3078THY    CM176945   3.003   7.642   2.962 -0.2719 -0.2410  0.6762
 3078THY    HM176946   2.948   7.714   3.024 -1.1221 -0.7793  0.5565
 3078THY    HM276947   2.925   7.596   2.900  0.4420 -0.7820  0.1682
 3078THY    HM376948   3.061   7.563   3.011 -0.1766 -0.3818  0.3330
 3078THY    CA676949   3.080   7.739   2.740  0.1040 -0.0784  1.2693
 3078THY    HA676950   3.004   7.677   2.693  1.1445 -0.8195  0.5082
 3079THY      O76951   0.638   0.913   0.780 -0.1301  0.1778  0.8478
 3079THY     HO76952   0.719   0.967   0.778  1.0298 -1.5091 -0.7158
 3079THY    CA176953   0.637   0.866   0.907 -0.1706  0.3174 -0.1275
 3079THY    CA276954   0.549   0.768   0.959  0.1391 -0.7758 -0.3373
 3079THY    CP176955   0.455   0.701   0.866  0.3282  0.2679 -0.0629
 3079THY    HP176956   0.496   0.715   0.766  1.7450  3.1678  0.8027
 3079THY    CP276957   0.435   0.546   0.890 -0.0762 -0.0184 -0.4236
 3079THY    HP276958   0.529   0.498   0.920  0.1331 -0.1082 -1.2055
 3079THY    HP376959   0.375   0.519   0.977  0.9574 -3.4134 -0.6240
 3079THY    HP476960   0.400   0.494   0.800 -2.5383  1.5994 -0.4896
 3079THY    CP376961   0.310   0.759   0.873  0.4325 -0.6739 -0.0664
 3079THY    HP576962   0.306   0.867   0.857 -0.0908 -0.4453  1.4679
 3079THY    HP676963   0.237   0.722   0.800  0.4729 -0.5257 -0.1831
 3079THY    HP776964   0.259   0.755   0.970 -0.1172  2.1473 -0.1467
 3079THY    CA376965   0.561   0.727   1.092 -0.0701 -0.1571 -0.9817
 3079THY    HA376966   0.492   0.655   1.135  1.6633 -1.1847  0.1850
 3079THY    CA476967   0.645   0.798   1.177  0.4476  0.1272  0.0983
 3079THY    HA476968   0.646   0.777   1.284 -2.3648 -0.1286  0.1481
 3079THY    CA576969   0.731   0.894   1.131 -0.8030  0.4916  0.2591
 3079THY    CM176970   0.816   0.972   1.224 -0.0240  0.1975  0.2803
 3079THY    HM176971   0.785   0.957   1.328  1.8318  3.3824  1.4601
 3079THY    HM276972   0.922   0.943   1.220  0.2658  1.1398  0.7126
 3079THY    HM376973   0.805   1.080   1.208 -0.8276  0.2026  0.8214
 3079THY    CA676974   0.733   0.924   0.994  1.1409  0.3102 -0.6524
 3079THY    HA676975   0.813   0.990   0.961  1.9959 -0.4727 -0.1971
 3080THY      O76976   2.678   3.456   7.561  0.6778  0.3416  0.0286
 3080THY     HO76977   2.718   3.520   7.500 -2.1778  0.6632 -1.6977
 3080THY    CA176978   2.778   3.375   7.601  0.4197 -0.1973 -0.1061
 3080THY    CA276979   2.752   3.277   7.702 -0.2265 -0.5947 -0.5157
 3080THY    CP176980   2.611   3.271   7.765 -0.5649  0.6375  0.3966
 3080THY    HP176981   2.537   3.333   7.713 -0.0892  1.5850  0.8228
 3080THY    CP276982   2.556   3.127   7.780 -0.0116  0.1981 -0.3270
 3080THY    HP276983   2.451   3.135   7.810 -0.2227  3.1517 -1.5281
 3080THY    HP376984   2.555   3.054   7.698  0.0651  1.4312 -1.4458
 3080THY    HP476985   2.622   3.089   7.860  1.1401  0.5933 -1.0680
 3080THY    CP376986   2.613   3.336   7.912 -0.0598 -0.6567 -0.0056
 3080THY    HP576987   2.633   3.443   7.900 -0.1134 -0.7158 -0.6560
 3080THY    HP676988   2.521   3.322   7.970  0.0828  0.1609  0.4270
 3080THY    HP776989   2.699   3.293   7.965  1.8290  1.2394 -1.3535
 3080THY    CA376990   2.861   3.190   7.741  0.4855 -0.4432  0.0146
 3080THY    HA376991   2.850   3.116   7.820 -0.3581 -0.2753  0.0551
 3080THY    CA476992   2.982   3.194   7.677 -0.6293 -0.3242  0.6289
 3080THY    HA476993   3.057   3.118   7.698 -0.8926 -0.9546 -0.6588
 3080THY    CA576994   3.005   3.283   7.571 -0.0954  0.0423  0.7081
 3080THY    CM176995   3.135   3.288   7.492  0.4471  1.2045 -0.0674
 3080THY    HM176996   3.223   3.325   7.544  1.1269 -0.6850  0.2217
 3080THY    HM276997   3.155   3.184   7.463  0.8565  1.3391 -0.2719
 3080THY    HM376998   3.125   3.347   7.400 -0.6268  1.5536  0.2552
 3080THY    CA676999   2.902   3.372   7.541 -0.0870  0.0856  0.2127
 3080THY    HA677000   2.928   3.446   7.465 -0.1884  1.0296  1.0770
 3081THY      O77001   9.286   0.900   9.118  0.0727  0.0447 -0.3522
 3081THY     HO77002   9.306   0.914   9.024 -0.8201 -0.1860 -0.5874
 3081THY    CA177003   9.289   0.768   9.148 -0.2729  0.2622 -0.2511
 3081THY    CA277004   9.194   0.707   9.226  0.5354  0.6282 -0.1810
 3081THY    CP177005   9.075   0.794   9.274 -0.3332 -0.2461 -0.2249
 3081THY    HP177006   9.071   0.887   9.217 -0.2589  0.3533  0.7425
 3081THY    CP277007   8.945   0.720   9.256  0.0203 -0.2891 -0.3512
 3081THY    HP277008   8.935   0.659   9.166 -2.5206 -3.5438  1.8946
 3081THY    HP377009   8.925   0.646   9.334 -1.8455 -0.1757 -0.6747
 3081THY    HP477010   8.857   0.784   9.274  0.0796 -1.1549  4.0829
 3081THY    CP377011   9.085   0.834   9.418 -0.1736  0.3931  0.0582
 3081THY    HP577012   9.172   0.896   9.444  0.5974 -0.9130  0.7086
 3081THY    HP677013   8.994   0.888   9.447  0.0307  0.1529  1.2047
 3081THY    HP777014   9.093   0.743   9.478  2.1830  0.0524 -0.7001
 3081THY    CA377015   9.197   0.568   9.252  0.1190  0.0348 -0.0687
 3081THY    HA377016   9.115   0.525   9.309 -1.7227  1.4688 -1.4968
 3081THY    CA477017   9.300   0.495   9.199 -0.8848  0.2147 -0.3001
 3081THY    HA477018   9.316   0.390   9.223  1.6958  0.6163  0.0365
 3081THY    CA577019   9.400   0.555   9.122  0.4119 -0.0174 -0.9210
 3081THY    CM177020   9.507   0.470   9.069  0.1655  0.5303 -0.4200
 3081THY    HM177021   9.479   0.456   8.964  1.3763  1.7110 -0.9369
 3081THY    HM277022   9.606   0.518   9.077  1.3950 -1.9620  0.2943
 3081THY    HM377023   9.518   0.382   9.133 -1.2013  0.9162  0.3799
 3081THY    CA677024   9.386   0.688   9.096 -0.3506 -0.1932 -0.1582
 3081THY    HA677025   9.459   0.736   9.031 -0.8270 -0.8789 -1.2273
 3082THY      O77026   5.997   2.324   5.663  0.1264  0.9252 -0.2133
 3082THY     HO77027   5.903   2.300   5.659  0.6183 -1.5671  0.8493
 3082THY    CA177028   6.015   2.454   5.657  0.5639  0.4898 -0.2011
 3082THY    CA277029   6.139   2.520   5.669 -0.3504 -0.0658 -0.2312
 3082THY    CP177030   6.273   2.445   5.717  0.2726 -0.5473  0.2894
 3082THY    HP177031   6.267   2.336   5.725 -0.4311 -0.6034 -0.7663
 3082THY    CP277032   6.384   2.477   5.624  0.0701 -0.5585 -0.4663
 3082THY    HP277033   6.356   2.476   5.518 -2.2942  0.4049  0.1011
 3082THY    HP377034   6.439   2.566   5.655 -0.5396 -0.8654  1.6753
 3082THY    HP477035   6.458   2.396   5.635  0.6127 -0.0856 -0.5821
 3082THY    CP377036   6.304   2.482   5.861 -0.2682  0.4867  0.0868
 3082THY    HP577037   6.230   2.433   5.926  2.1960  0.4385  3.1131
 3082THY    HP677038   6.399   2.438   5.895  0.0914 -0.0331 -1.5112
 3082THY    HP777039   6.298   2.591   5.868 -0.2150  0.4950  0.0057
 3082THY    CA377040   6.152   2.658   5.648  0.1414 -0.6629 -0.5708
 3082THY    HA377041   6.244   2.711   5.671  0.1809  0.2006 -2.4665
 3082THY    CA477042   6.039   2.726   5.604  0.1074 -0.2323  0.0135
 3082THY    HA477043   6.048   2.830   5.577  1.5978 -0.1285  0.8103
 3082THY    CA577044   5.920   2.661   5.568  0.7138 -0.4218  0.0290
 3082THY    CM177045   5.803   2.732   5.516  0.4046  0.7434  0.1757
 3082THY    HM177046   5.723   2.660   5.497 -0.2286  1.2799  0.7414
 3082THY    HM277047   5.769   2.810   5.585 -2.0540 -1.1317  1.2423
 3082THY    HM377048   5.828   2.776   5.418 -2.4312  0.8814 -0.5632
 3082THY    CA677049   5.907   2.524   5.598 -0.5026  0.5592 -0.4201
 3082THY    HA677050   5.811   2.473   5.595 -0.2959 -0.4510  3.8276
 3083THY      O77051   2.184   9.932   0.938  0.2356  0.7206 -0.4549
 3083THY     HO77052   2.110   9.926   1.000 -1.0251  0.5676 -1.9128
 3083THY    CA177053   2.130   9.982   0.829 -0.2141 -0.0477 -0.4790
 3083THY    CA277054   2.207   9.996   0.710  0.2612 -0.0701  0.3970
 3083THY    CP177055   2.355   9.931   0.700  0.1733 -0.0784  0.9379
 3083THY    HP177056   2.386   9.898   0.800  1.8497 -0.2722  0.3901
 3083THY    CP277057   2.351   9.811   0.598 -1.0058  0.1120 -0.1108
 3083THY    HP277058   2.267   9.744   0.622 -2.1167  2.1177  1.9167
 3083THY    HP377059   2.339   9.849   0.495  0.5846 -0.3473 -0.4837
 3083THY    HP477060   2.446   9.757   0.604 -0.4704  0.9934 -0.3857
 3083THY    CP377061   2.462  10.024   0.666 -0.4575  0.1351  0.1000
 3083THY    HP577062   2.468  10.051   0.560  1.2207  2.4684  0.7200
 3083THY    HP677063   2.447  10.121   0.714  0.6101  1.2245 -1.6712
 3083THY    HP777064   2.563   9.989   0.688 -0.7132 -2.5371 -2.3987
 3083THY    CA377065   2.154  10.075   0.603  0.7589 -1.1265  0.4246
 3083THY    HA377066   2.199  10.102   0.507 -2.6941 -0.2205 -1.1152
 3083THY    CA477067   2.023  10.126   0.625 -0.1465 -0.6235  0.3862
 3083THY    HA477068   1.991  10.182   0.538  2.1387  0.1964 -0.0094
 3083THY    CA577069   1.940  10.098   0.742  0.5977 -0.1717 -0.1491
 3083THY    CM177070   1.799  10.156   0.756  0.1810  0.2764 -0.2823
 3083THY    HM177071   1.789  10.226   0.839  0.9740  0.9767 -0.7621
 3083THY    HM277072   1.758  10.203   0.666 -3.1075  0.7656  1.3287
 3083THY    HM377073   1.737  10.073   0.791  2.2623 -0.3342  2.1970
 3083THY    CA677074   2.000  10.031   0.850 -0.2832  0.1022 -0.3915
 3083THY    HA677075   1.946  10.019   0.944  1.5404  0.9956  0.8183
 3084THY      O77076   6.118   7.315   4.412  0.0587  0.4565  0.7471
 3084THY     HO77077   6.030   7.275   4.426  0.3047 -0.0292  0.9228
 3084THY    CA177078   6.186   7.248   4.318 -0.0091  0.2317  0.0087
 3084THY    CA277079   6.296   7.307   4.248 -0.7521 -0.0946 -0.6921
 3084THY    CP177080   6.361   7.449   4.273 -0.6802  0.1283 -1.2261
 3084THY    HP177081   6.327   7.492   4.368  0.8606  2.5867 -1.7010
 3084THY    CP277082   6.517   7.435   4.284  0.3303  0.5120  0.6734
 3084THY    HP277083   6.563   7.514   4.344 -0.8708  1.5982  0.1878
 3084THY    HP377084   6.545   7.342   4.335 -0.6380 -0.4159 -0.4226
 3084THY    HP477085   6.567   7.436   4.186  1.4334 -0.2332  1.2037
 3084THY    CP377086   6.323   7.540   4.163 -0.0560 -1.3238  0.2926
 3084THY    HP577087   6.360   7.501   4.067 -0.0625 -0.5403 -0.0356
 3084THY    HP677088   6.214   7.549   4.158 -0.0588 -1.9408 -1.5068
 3084THY    HP777089   6.366   7.638   4.185  0.5443 -1.6779  0.7254
 3084THY    CA377090   6.368   7.220   4.157  0.4789 -0.1689 -0.3747
 3084THY    HA377091   6.459   7.246   4.104  1.7658 -0.6299  1.5282
 3084THY    CA477092   6.326   7.086   4.138  0.0978 -0.5402  0.1370
 3084THY    HA477093   6.367   7.022   4.061 -0.9255  0.2491 -1.1176
 3084THY    CA577094   6.218   7.042   4.206 -0.3737 -0.7953 -0.6398
 3084THY    CM177095   6.161   6.897   4.200 -0.5588 -0.0651 -0.3944
 3084THY    HM177096   6.174   6.835   4.289 -1.5495  1.9359  1.2066
 3084THY    HM277097   6.056   6.912   4.170 -1.0467 -0.4297  1.0576
 3084THY    HM377098   6.213   6.852   4.115  1.0056 -0.0007  0.5086
 3084THY    CA677099   6.147   7.123   4.299 -0.0118  0.1220  0.2687
 3084THY    HA677100   6.071   7.076   4.361  0.1828 -0.4074  0.1181
 3085THY      O77101   7.406   8.152   6.737  0.0771  0.2692  0.0726
 3085THY     HO77102   7.416   8.246   6.713 -0.0208  0.1971 -0.2489
 3085THY    CA177103   7.356   8.152   6.865 -0.5336 -0.0511 -0.8691
 3085THY    CA277104   7.330   8.029   6.923 -0.3024  0.2330 -0.0303
 3085THY    CP177105   7.363   7.897   6.857  0.2928  0.1460  0.0722
 3085THY    HP177106   7.418   7.911   6.763  0.3183  0.8638  0.1906
 3085THY    CP277107   7.443   7.802   6.946 -0.4225 -0.2579 -0.0498
 3085THY    HP277108   7.491   7.726   6.883 -1.1352  0.3199 -1.3305
 3085THY    HP377109   7.529   7.844   7.000 -0.0391 -1.2798  0.1459
 3085THY    HP477110   7.402   7.766   7.041  1.2901 -2.6328 -0.1343
 3085THY    CP377111   7.239   7.811   6.826 -0.2621 -0.0485 -0.4103
 3085THY    HP577112   7.187   7.777   6.917  0.8196 -2.8513 -0.7262
 3085THY    HP677113   7.169   7.863   6.760 -0.4690  0.6032  0.3054
 3085THY    HP777114   7.278   7.724   6.771  3.9987  1.9350 -0.9276
 3085THY    CA377115   7.264   8.025   7.045 -0.0095  0.9232 -0.6643
 3085THY    HA377116   7.237   7.928   7.087  2.4335  0.8987  1.0324
 3085THY    CA477117   7.247   8.137   7.114 -0.2961  0.0103 -0.1004
 3085THY    HA477118   7.190   8.146   7.206 -0.3126  1.7755 -0.2516
 3085THY    CA577119   7.271   8.267   7.061  0.1881  0.1059  0.4307
 3085THY    CM177120   7.223   8.391   7.137  0.4298 -0.4339 -0.6301
 3085THY    HM177121   7.247   8.375   7.243 -1.0804  0.7523 -0.0597
 3085THY    HM277122   7.270   8.481   7.096  0.1854 -0.1579 -0.3158
 3085THY    HM377123   7.114   8.388   7.126  0.5768  0.1123 -2.7083
 3085THY    CA677124   7.329   8.273   6.927  0.0665 -0.1274  0.3883
 3085THY    HA677125   7.335   8.366   6.872  3.3231 -0.6077 -0.2271
 3086THY      O77126   1.044   4.990   6.040  0.3123  0.2751  0.5476
 3086THY     HO77127   1.058   4.975   6.135  1.7291  0.4164  0.3938
 3086THY    CA177128   1.161   4.991   5.975  0.3458  0.9309  0.6532
 3086THY    CA277129   1.166   4.976   5.834  0.1716 -0.5015  0.3022
 3086THY    CP177130   1.036   4.953   5.754  0.0185 -0.5424 -1.1667
 3086THY    HP177131   0.953   5.005   5.802  0.4783 -2.6370  2.1776
 3086THY    CP277132   1.047   4.999   5.610 -0.1788 -0.5300  0.8292
 3086THY    HP277133   0.952   5.018   5.557 -0.0983  2.5320  1.5847
 3086THY    HP377134   1.094   5.097   5.603  0.3442 -0.8547 -0.4087
 3086THY    HP477135   1.112   4.945   5.540 -0.2626 -0.0216  0.3543
 3086THY    CP377136   1.008   4.800   5.745  0.5342 -0.2963  1.1996
 3086THY    HP577137   0.903   4.779   5.771  0.4560  1.0243  2.0442
 3086THY    HP677138   1.010   4.764   5.642 -0.1497 -0.5946  1.2843
 3086THY    HP777139   1.067   4.741   5.816  0.4088 -2.8273 -0.6655
 3086THY    CA377140   1.293   4.973   5.773  0.0489 -0.3999  0.5741
 3086THY    HA377141   1.311   4.974   5.666  0.4859 -0.7450  0.6430
 3086THY    CA477142   1.405   4.990   5.853  0.6170  0.4805 -0.1255
 3086THY    HA477143   1.501   5.012   5.807  0.4270  0.6738 -0.4275
 3086THY    CA577144   1.402   4.991   5.989 -0.0639 -0.4145 -0.1778
 3086THY    CM177145   1.529   5.014   6.065 -0.1545  0.1941  0.2113
 3086THY    HM177146   1.510   5.088   6.143  1.5498  0.6861  0.2041
 3086THY    HM277147   1.553   4.924   6.123  1.3749  0.5082  0.1135
 3086THY    HM377148   1.621   5.038   6.011  0.6055  0.0969  1.4191
 3086THY    CA677149   1.279   4.995   6.053  0.3877 -1.1582  0.2940
 3086THY    HA677150   1.270   5.009   6.160 -2.3672  0.2052 -0.0372
 3087THY      O77151   5.739   2.197   5.586 -0.6345  0.1150 -0.0487
 3087THY     HO77152   5.773   2.152   5.507 -0.0638  0.3330  0.0685
 3087THY    CA177153   5.614   2.152   5.612  0.2950 -0.0498  0.7921
 3087THY    CA277154   5.505   2.238   5.652  0.0577 -0.4413  0.5260
 3087THY    CP177155   5.532   2.390   5.655  0.4820 -0.4109 -0.2672
 3087THY    HP177156   5.595   2.416   5.570  1.5841 -1.3349  0.2373
 3087THY    CP277157   5.400   2.468   5.634 -0.6082 -0.4305  0.0867
 3087THY    HP277158   5.414   2.576   5.647  1.2196 -0.3918 -1.6993
 3087THY    HP377159   5.366   2.445   5.533 -0.3399  1.5031 -0.4830
 3087THY    HP477160   5.321   2.445   5.707 -0.9882 -1.1047 -0.5259
 3087THY    CP377161   5.600   2.442   5.789 -0.2088  0.0294  0.4917
 3087THY    HP577162   5.656   2.532   5.764  0.7000  0.2865  3.1562
 3087THY    HP677163   5.523   2.474   5.860 -0.7154  0.5738 -0.2746
 3087THY    HP777164   5.667   2.362   5.822 -0.2912  0.0716  0.7635
 3087THY    CA377165   5.373   2.186   5.662  0.6418  0.7737 -0.7320
 3087THY    HA377166   5.283   2.240   5.689 -0.2595 -1.0383  0.1009
 3087THY    CA477167   5.365   2.047   5.649 -1.2109 -0.0657  0.1770
 3087THY    HA477168   5.270   1.996   5.661 -1.4063 -0.1745 -1.5643
 3087THY    CA577169   5.472   1.965   5.609  0.3698  0.2630 -0.4422
 3087THY    CM177170   5.470   1.816   5.607  0.4964 -0.8713  0.2911
 3087THY    HM177171   5.519   1.764   5.523  1.1346 -0.9021  0.6799
 3087THY    HM277172   5.503   1.789   5.708  0.6479  0.9524  0.7551
 3087THY    HM377173   5.367   1.777   5.600 -1.0043  2.3063  2.4904
 3087THY    CA677174   5.597   2.022   5.590 -0.2687 -1.3936  0.0475
 3087THY    HA677175   5.686   1.969   5.556 -0.6417 -0.8981 -1.8313
 3088THY      O77176   0.078   2.831   6.558  0.3646  0.7181  0.7902
 3088THY     HO77177   0.172   2.851   6.569  0.5206  1.3366 -1.2102
 3088THY    CA177178   0.018   2.807   6.674  0.2516  0.0306  0.0766
 3088THY    CA277179  -0.120   2.808   6.683 -0.1993  0.4887 -0.5347
 3088THY    CP177180  -0.207   2.832   6.552 -0.6011 -0.2653 -0.1103
 3088THY    HP177181  -0.150   2.902   6.489 -0.0033 -1.6203 -1.1402
 3088THY    CP277182  -0.241   2.708   6.474 -0.4859  0.3777  0.1789
 3088THY    HP277183  -0.151   2.666   6.429 -0.0676  0.9019  0.5139
 3088THY    HP377184  -0.269   2.632   6.548 -0.4974  1.4999  1.3742
 3088THY    HP477185  -0.324   2.725   6.404 -0.3924 -1.1099 -0.3156
 3088THY    CP377186  -0.330   2.915   6.590 -0.5125 -0.2521 -0.9895
 3088THY    HP577187  -0.286   2.999   6.645 -1.1205  0.2531 -1.2752
 3088THY    HP677188  -0.380   2.945   6.497  0.4844  0.2066 -1.3913
 3088THY    HP777189  -0.398   2.866   6.660  0.3850  0.6550  0.5698
 3088THY    CA377190  -0.175   2.781   6.808  0.3997 -0.1420  0.6832
 3088THY    HA377191  -0.280   2.776   6.833  0.1908  1.1119  0.1380
 3088THY    CA477192  -0.092   2.762   6.917  0.3016 -0.1835 -0.2017
 3088THY    HA477193  -0.142   2.728   7.007 -0.4316 -1.2299 -0.9721
 3088THY    CA577194   0.052   2.776   6.911  0.2932  0.2339  0.1355
 3088THY    CM177195   0.141   2.740   7.024 -0.4587 -0.7937 -0.2058
 3088THY    HM177196   0.213   2.663   6.995 -1.3933 -1.4721 -0.7744
 3088THY    HM277197   0.187   2.831   7.064  0.5893 -1.7925  0.9249
 3088THY    HM377198   0.081   2.693   7.102  0.1979  0.3010  0.9988
 3088THY    CA677199   0.102   2.796   6.788 -0.7070  0.2415  0.2746
 3088THY    HA677200   0.210   2.800   6.783 -0.4900 -2.8383  0.3279
 3089THY      O77201   2.223   4.554   6.400 -0.2815  0.1316 -0.1461
 3089THY     HO77202   2.315   4.556   6.369 -0.2527  0.0473 -0.0662
 3089THY    CA177203   2.214   4.657   6.495  0.2262  0.5826  0.2354
 3089THY    CA277204   2.096   4.678   6.552 -1.9244 -0.7050 -0.1007
 3089THY    CP177205   1.992   4.571   6.534  0.6335 -0.1952  0.5480
 3089THY    HP177206   2.038   4.473   6.515  0.3218 -0.4428  1.0403
 3089THY    CP277207   1.893   4.544   6.646  0.7612 -0.2069 -0.1755
 3089THY    HP277208   1.811   4.616   6.654 -0.2508 -0.9968 -2.5400
 3089THY    HP377209   1.839   4.449   6.643 -1.5553  1.0482 -0.6386
 3089THY    HP477210   1.935   4.554   6.746 -1.9734  0.6419  0.9859
 3089THY    CP377211   1.916   4.603   6.400  0.2788 -0.2860 -0.4649
 3089THY    HP577212   1.888   4.709   6.406  2.2257  0.3010 -0.8631
 3089THY    HP677213   1.987   4.593   6.316  0.1459  2.7839 -1.0530
 3089THY    HP777214   1.831   4.536   6.384 -0.1610  0.5311 -1.6410
 3089THY    CA377215   2.066   4.814   6.604  0.5967  0.5187  0.0098
 3089THY    HA377216   1.967   4.843   6.635 -0.3510  0.4181 -2.6946
 3089THY    CA477217   2.172   4.906   6.613 -0.1753 -0.4415 -0.0335
 3089THY    HA477218   2.157   5.005   6.655 -1.2592 -0.0477 -1.2666
 3089THY    CA577219   2.300   4.867   6.572  0.9905 -0.2528  0.0913
 3089THY    CM177220   2.407   4.973   6.560 -0.0356  0.5033  0.4309
 3089THY    HM177221   2.508   4.931   6.556 -0.0953  0.3981 -0.0389
 3089THY    HM277222   2.393   5.025   6.465  0.9317 -0.3668 -0.1979
 3089THY    HM377223   2.402   5.039   6.647 -2.3146  1.2336 -0.1624
 3089THY    CA677224   2.322   4.743   6.512  0.3456  0.5615  0.4384
 3089THY    HA677225   2.423   4.721   6.478  0.7671 -0.7714  2.3691
 3090THY      O77226   0.686   9.085   8.585  0.2005 -0.4598  0.0948
 3090THY     HO77227   0.661   9.002   8.629 -0.8984 -0.3598 -0.3116
 3090THY    CA177228   0.797   9.058   8.523 -0.3328 -0.1823  0.1634
 3090THY    CA277229   0.882   9.162   8.480  0.1475 -0.2358 -0.4449
 3090THY    CP177230   0.835   9.306   8.491 -0.5022  0.9828 -0.9536
 3090THY    HP177231   0.758   9.314   8.568  0.7663  0.9788  0.3629
 3090THY    CP277232   0.946   9.403   8.529 -0.0157  0.6348 -0.7107
 3090THY    HP277233   1.015   9.375   8.610 -1.8598  2.7959  1.7922
 3090THY    HP377234   1.002   9.430   8.440 -0.0934 -0.7730 -1.2089
 3090THY    HP477235   0.907   9.492   8.579  1.1454  1.7327 -1.6972
 3090THY    CP377236   0.755   9.345   8.365 -0.0844  0.1851 -1.0335
 3090THY    HP577237   0.829   9.366   8.287  1.6655  0.0857  0.5518
 3090THY    HP677238   0.693   9.260   8.335 -0.2723  0.2471 -0.8203
 3090THY    HP777239   0.688   9.431   8.383  1.5851  1.4518 -0.5877
 3090THY    CA377240   1.003   9.140   8.412 -0.1965 -0.0470  0.4158
 3090THY    HA377241   1.062   9.227   8.384 -1.6847  1.3211  1.2657
 3090THY    CA477242   1.042   9.008   8.395  0.4175  0.0707  0.0697
 3090THY    HA477243   1.137   8.979   8.352  0.5721  0.3551  0.2162
 3090THY    CA577244   0.954   8.901   8.428  0.1128 -0.1692 -0.5933
 3090THY    CM177245   1.000   8.762   8.386 -0.4003  0.1870 -0.0711
 3090THY    HM177246   1.103   8.738   8.411 -1.1478 -1.9718  1.2203
 3090THY    HM277247   0.938   8.685   8.434  0.9986 -1.4654 -0.7968
 3090THY    HM377248   0.998   8.751   8.277  0.2497 -1.9855  0.0933
 3090THY    CA677249   0.837   8.925   8.508 -0.3979  0.0532  0.3588
 3090THY    HA677250   0.788   8.842   8.557 -1.3122 -0.6026 -1.5813
 3091THY      O77251   7.565   8.490   2.384  0.4973 -0.1611 -0.1180
 3091THY     HO77252   7.651   8.500   2.429  0.3467  0.1961  0.0973
 3091THY    CA177253   7.578   8.401   2.284 -0.3354 -0.2117 -0.7004
 3091THY    CA277254   7.474   8.320   2.249 -0.3371  0.2707 -0.2377
 3091THY    CP177255   7.335   8.331   2.321 -0.1370  0.2019  0.5699
 3091THY    HP177256   7.305   8.434   2.345 -2.0655 -0.1354 -0.1711
 3091THY    CP277257   7.206   8.280   2.234  0.3830 -1.1862 -0.4466
 3091THY    HP277258   7.201   8.329   2.136  0.7619 -1.6661 -0.7093
 3091THY    HP377259   7.208   8.172   2.221  0.4445 -1.5314  1.9809
 3091THY    HP477260   7.117   8.303   2.294  1.1024  1.9595 -0.4026
 3091THY    CP377261   7.322   8.255   2.455 -0.4110 -0.1152  0.0203
 3091THY    HP577262   7.312   8.146   2.439 -4.6265  0.2106 -0.7636
 3091THY    HP677263   7.399   8.288   2.525 -0.2110 -0.8739  0.1721
 3091THY    HP777264   7.221   8.265   2.496 -1.5002 -3.8682 -1.2930
 3091THY    CA377265   7.502   8.215   2.156 -0.2331 -0.5004  0.1536
 3091THY    HA377266   7.422   8.148   2.125  0.4286 -1.1661 -0.1443
 3091THY    CA477267   7.633   8.205   2.096  0.1587 -0.1502  0.0022
 3091THY    HA477268   7.649   8.124   2.026 -1.1484 -1.2581  0.9240
 3091THY    CA577269   7.731   8.296   2.125 -1.0242 -0.0629  0.2337
 3091THY    CM177270   7.864   8.286   2.046  0.3253  0.2161 -0.3469
 3091THY    HM177271   7.903   8.185   2.059 -1.3278 -0.3073  0.9464
 3091THY    HM277272   7.850   8.300   1.938  0.9513  2.4512 -0.1976
 3091THY    HM377273   7.943   8.356   2.077  0.9012 -0.7607  0.4594
 3091THY    CA677274   7.705   8.393   2.225  0.3149  0.0449 -0.1984
 3091THY    HA677275   7.781   8.469   2.244 -1.9166  2.6274 -0.9171
 3092THY      O77276   1.545   0.284   4.264 -0.4031  0.3070 -0.4239
 3092THY     HO77277   1.567   0.365   4.312  0.0121  0.3155 -0.6290
 3092THY    CA177278   1.582   0.187   4.345  0.0959  0.3828 -0.0224
 3092THY    CA277279   1.536   0.053   4.346  0.1871  0.1440 -0.4146
 3092THY    CP177280   1.450  -0.004   4.227 -0.1651 -0.0827 -0.2623
 3092THY    HP177281   1.448   0.075   4.151  1.3045 -0.1925 -0.4467
 3092THY    CP277282   1.519  -0.116   4.152  0.0132  0.5987 -0.4477
 3092THY    HP277283   1.469  -0.119   4.054 -0.8917  0.7684 -0.0046
 3092THY    HP377284   1.623  -0.085   4.135  0.3383 -0.4524 -0.3947
 3092THY    HP477285   1.525  -0.211   4.205 -0.4831  0.5245 -0.5187
 3092THY    CP377286   1.321  -0.055   4.268 -0.1625 -0.2255 -1.3057
 3092THY    HP577287   1.258  -0.057   4.179 -0.4406 -0.4912 -1.1053
 3092THY    HP677288   1.324  -0.148   4.326 -1.6212  0.0714 -0.7007
 3092THY    HP777289   1.273   0.019   4.334  0.3896  0.0508 -1.2040
 3092THY    CA377290   1.588  -0.032   4.447 -0.6178  0.3219  0.1439
 3092THY    HA377291   1.563  -0.138   4.448 -0.7545  0.3523  1.1172
 3092THY    CA477292   1.674   0.013   4.547 -0.5556  0.1460  0.2738
 3092THY    HA477293   1.708  -0.051   4.628 -1.3890  0.2428  0.7057
 3092THY    CA577294   1.720   0.147   4.537  1.1023  0.1887 -0.4601
 3092THY    CM177295   1.829   0.189   4.623  0.0522  0.0231  0.4090
 3092THY    HM177296   1.805   0.173   4.729  1.7077 -1.8460  0.5715
 3092THY    HM277297   1.916   0.134   4.584 -1.2250 -1.7095 -0.0994
 3092THY    HM377298   1.850   0.296   4.611 -0.3948 -0.0236 -0.9293
 3092THY    CA677299   1.669   0.231   4.437 -0.5266  0.5954 -0.8196
 3092THY    HA677300   1.711   0.331   4.431 -0.1171  0.5501  0.8450
 3093THY      O77301   1.675   3.963   1.146 -0.8912  0.1890  0.1946
 3093THY     HO77302   1.704   4.041   1.196 -0.6528  0.7888 -0.8604
 3093THY    CA177303   1.546   3.952   1.172 -0.2563  0.6993  0.1220
 3093THY    CA277304   1.457   3.865   1.107  0.2765 -0.2483  0.4506
 3093THY    CP177305   1.504   3.784   0.979  0.1275 -0.4628  0.2984
 3093THY    HP177306   1.613   3.786   0.985  0.2231 -0.7761 -1.0492
 3093THY    CP277307   1.438   3.641   0.982 -0.4497  0.5558  0.1966
 3093THY    HP277308   1.483   3.570   0.913 -2.7272 -1.4419  0.6166
 3093THY    HP377309   1.449   3.588   1.077  0.6158 -1.6489 -1.0940
 3093THY    HP477310   1.331   3.652   0.961 -0.4696  0.2049  0.1076
 3093THY    CP377311   1.475   3.858   0.843 -0.1266  0.1698  0.0397
 3093THY    HP577312   1.528   3.817   0.756 -1.7231 -1.5358 -0.1891
 3093THY    HP677313   1.368   3.850   0.821 -0.0845 -0.0715 -0.0832
 3093THY    HP777314   1.496   3.965   0.843 -0.5089  0.2588 -1.0495
 3093THY    CA377315   1.327   3.854   1.150  0.2856  0.1183 -0.1713
 3093THY    HA377316   1.249   3.799   1.098 -1.5925  2.8439 -0.4437
 3093THY    CA477317   1.275   3.935   1.251 -0.0140  0.2340 -0.0693
 3093THY    HA477318   1.174   3.923   1.287  0.5409 -1.3372  1.1269
 3093THY    CA577319   1.366   4.019   1.319 -0.5015 -0.5740  1.0583
 3093THY    CM177320   1.320   4.115   1.429 -0.3184  0.2499  0.0532
 3093THY    HM177321   1.322   4.066   1.527  1.1454 -0.3781 -0.2643
 3093THY    HM277322   1.387   4.202   1.435 -0.4262  0.4749 -1.4377
 3093THY    HM377323   1.223   4.162   1.409 -0.7374 -0.7312 -0.3132
 3093THY    CA677324   1.498   4.028   1.284 -0.1129  0.0854  0.1406
 3093THY    HA677325   1.570   4.084   1.342  0.7260 -2.4973  1.7358
 3094THY      O77326   1.937   8.355   7.823 -0.1893 -0.7691 -0.3691
 3094THY     HO77327   1.995   8.284   7.857 -0.5828  0.4990  3.4052
 3094THY    CA177328   1.920   8.453   7.911 -0.5452  0.4976  0.0323
 3094THY    CA277329   1.837   8.559   7.894  0.6622  0.6490 -0.6196
 3094THY    CP177330   1.747   8.554   7.771  0.4277  0.4929  0.2655
 3094THY    HP177331   1.722   8.453   7.735  0.4098 -0.3078  2.3827
 3094THY    CP277332   1.607   8.607   7.800 -0.1595 -0.0670 -1.2188
 3094THY    HP277333   1.533   8.573   7.728 -1.1313  0.9565 -0.7407
 3094THY    HP377334   1.577   8.570   7.899  1.8872 -0.6965 -0.7775
 3094THY    HP477335   1.612   8.715   7.821  0.5024 -0.4880  1.1992
 3094THY    CP377336   1.807   8.630   7.656 -0.2553 -0.9961 -0.2347
 3094THY    HP577337   1.732   8.649   7.578 -0.4735  0.2732  0.2653
 3094THY    HP677338   1.852   8.727   7.681  0.9919 -0.9302 -2.4605
 3094THY    HP777339   1.891   8.573   7.615  1.2092  1.2234 -0.4705
 3094THY    CA377340   1.815   8.654   7.996 -0.0243  0.3772 -0.8099
 3094THY    HA377341   1.751   8.740   7.978  0.5654  1.2740  1.1380
 3094THY    CA477342   1.892   8.646   8.109 -0.4262  0.1393  0.6560
 3094THY    HA477343   1.879   8.726   8.182  2.9037 -0.5106  2.1243
 3094THY    CA577344   1.979   8.544   8.127 -0.2822  0.2294 -0.2442
 3094THY    CM177345   2.036   8.521   8.263 -0.0445  0.0728  0.3356
 3094THY    HM177346   2.012   8.416   8.281 -1.0850 -0.0049 -1.1954
 3094THY    HM277347   2.143   8.543   8.262  0.0190 -0.1638 -1.0360
 3094THY    HM377348   1.983   8.569   8.346 -0.6754 -1.9091  1.1344
 3094THY    CA677349   1.993   8.442   8.032 -0.3940 -0.0530  0.4041
 3094THY    HA677350   2.072   8.370   8.047  0.6123  1.0586  0.6077
 3095THY      O77351   0.828   2.727   1.294  0.7109 -0.0179  0.8257
 3095THY     HO77352   0.842   2.638   1.259 -0.4638  0.1803 -0.2010
 3095THY    CA177353   0.898   2.815   1.219 -0.6934  0.6451 -0.0393
 3095THY    CA277354   0.847   2.943   1.192 -0.0565 -0.0204  0.3494
 3095THY    CP177355   0.712   2.989   1.255 -0.4991  0.0690 -0.0853
 3095THY    HP177356   0.686   2.923   1.338  2.1061 -0.4071  0.4597
 3095THY    CP277357   0.721   3.136   1.314  0.7924 -0.0785  0.2730
 3095THY    HP277358   0.794   3.143   1.395 -0.3594 -0.2778  1.3703
 3095THY    HP377359   0.725   3.213   1.236  0.4688 -2.3184 -2.1028
 3095THY    HP477360   0.626   3.165   1.361  1.3515  0.3519  1.1620
 3095THY    CP377361   0.599   2.981   1.151 -0.1155  0.5126  0.0520
 3095THY    HP577362   0.592   2.884   1.100 -1.0031  0.4953  0.1925
 3095THY    HP677363   0.500   3.002   1.192 -0.6117  0.5616 -1.1381
 3095THY    HP777364   0.625   3.062   1.081  1.1192  2.1308  2.2291
 3095THY    CA377365   0.914   3.030   1.102  0.5494  0.4293  0.3583
 3095THY    HA377366   0.880   3.131   1.083 -0.4236 -0.2588 -1.9384
 3095THY    CA477367   1.037   2.984   1.052 -0.1011 -0.2796  0.3915
 3095THY    HA477368   1.090   3.029   0.968  0.2491 -1.1140  0.1499
 3095THY    CA577369   1.092   2.858   1.082 -0.0323  0.9171 -1.0173
 3095THY    CM177370   1.228   2.818   1.033  0.0991  0.1236 -0.0239
 3095THY    HM177371   1.242   2.713   1.003 -0.8578  0.4371 -1.7332
 3095THY    HM277372   1.269   2.878   0.950 -1.4147  0.8873 -0.2508
 3095THY    HM377373   1.297   2.844   1.114  1.7836  0.4775 -1.5122
 3095THY    CA677374   1.025   2.773   1.170 -0.0384 -0.1226  0.0867
 3095THY    HA677375   1.067   2.680   1.206  1.3774  0.6038  0.3814
 3096THY      O77376   4.023   1.731   4.404 -0.2258 -0.2671  0.2760
 3096THY     HO77377   4.035   1.824   4.432 -0.5634  0.3494 -1.5038
 3096THY    CA177378   3.905   1.739   4.344 -0.4162  0.8102  0.6859
 3096THY    CA277379   3.865   1.641   4.247 -0.0219 -0.7878 -0.9068
 3096THY    CP177380   3.964   1.529   4.202  0.6122  0.0370 -0.2568
 3096THY    HP177381   4.037   1.518   4.282 -0.7872 -0.7925  0.9552
 3096THY    CP277382   3.896   1.389   4.185 -0.3334 -0.0068  0.5920
 3096THY    HP277383   3.958   1.314   4.134 -1.7301 -1.7452  1.3369
 3096THY    HP377384   3.872   1.342   4.281 -0.0426  0.8239  1.0847
 3096THY    HP477385   3.803   1.394   4.127 -0.2768 -0.8803  0.4137
 3096THY    CP377386   4.039   1.561   4.084 -0.6340 -0.4245 -0.2796
 3096THY    HP577387   4.112   1.487   4.051 -1.2453  0.1780 -3.2064
 3096THY    HP677388   3.977   1.587   3.998 -1.1098 -0.6978 -0.0244
 3096THY    HP777389   4.083   1.659   4.108 -3.2662  1.1867 -1.6076
 3096THY    CA377390   3.744   1.662   4.177 -0.7219  0.0025 -0.2473
 3096THY    HA377391   3.715   1.595   4.097  0.1714 -2.5646  1.4596
 3096THY    CA477392   3.664   1.764   4.215  0.7080 -0.2221 -0.0003
 3096THY    HA477393   3.579   1.789   4.152  1.9546  0.5833 -1.4232
 3096THY    CA577394   3.688   1.841   4.326  0.1194 -0.2965  0.2199
 3096THY    CM177395   3.586   1.935   4.358 -0.4107 -0.0589 -0.1732
 3096THY    HM177396   3.618   1.997   4.443 -0.4158 -0.6898  0.3017
 3096THY    HM277397   3.562   1.993   4.268 -2.2597 -1.0766 -0.3983
 3096THY    HM377398   3.494   1.881   4.386  0.4552 -1.8626 -0.7016
 3096THY    CA677399   3.816   1.837   4.382 -0.5298  0.2015 -1.0631
 3096THY    HA677400   3.847   1.910   4.457 -0.4829 -2.1556  1.3706
 3097THY      O77401   1.452   1.748   6.409 -0.2595  0.4699  0.3607
 3097THY     HO77402   1.415   1.717   6.493  1.5601  1.1409  1.4719
 3097THY    CA177403   1.579   1.709   6.401 -0.0126 -0.6998 -0.1500
 3097THY    CA277404   1.657   1.689   6.279  0.1512  0.3400 -0.8323
 3097THY    CP177405   1.589   1.703   6.140  0.9046 -0.2130  0.0973
 3097THY    HP177406   1.481   1.691   6.152  0.8180  1.8829  2.3413
 3097THY    CP277407   1.609   1.847   6.094  0.5255  0.0223  0.5944
 3097THY    HP277408   1.556   1.909   6.168  2.7389  0.1037  2.2226
 3097THY    HP377409   1.711   1.887   6.095  1.2237 -1.6443 -0.3499
 3097THY    HP477410   1.560   1.871   5.999  1.1264  2.2479  0.7847
 3097THY    CP377411   1.656   1.619   6.031 -0.1587  0.2484  0.0594
 3097THY    HP577412   1.760   1.651   6.016 -0.0463  0.1923  0.7273
 3097THY    HP677413   1.644   1.516   6.063  2.8278 -0.4362 -0.6794
 3097THY    HP777414   1.604   1.638   5.936 -1.7256  0.6237  0.9716
 3097THY    CA377415   1.798   1.665   6.293 -0.8653  0.2131  0.8240
 3097THY    HA377416   1.867   1.673   6.210 -1.1470 -1.1776  0.4228
 3097THY    CA477417   1.856   1.649   6.417  0.0297 -0.2002  0.0367
 3097THY    HA477418   1.962   1.638   6.435  0.3236  0.9201 -0.9182
 3097THY    CA577419   1.781   1.647   6.528 -0.0260 -0.3675 -0.9065
 3097THY    CM177420   1.849   1.609   6.657  0.1566  0.1772 -0.2647
 3097THY    HM177421   1.783   1.620   6.743 -1.0026  1.4825 -1.2662
 3097THY    HM277422   1.863   1.502   6.636 -0.7674  0.1525 -0.8135
 3097THY    HM377423   1.939   1.663   6.686 -0.2777 -0.5261  2.7524
 3097THY    CA677424   1.646   1.683   6.528  0.0880  0.0844  0.3064
 3097THY    HA677425   1.585   1.694   6.617 -0.9910  1.3539 -0.5344
 3098THY      O77426   0.187   5.246   8.444  0.3747  0.6752  0.4078
 3098THY     HO77427   0.141   5.170   8.483 -0.9335  0.8132 -0.7800
 3098THY    CA177428   0.238   5.208   8.327  0.4186 -0.2076  0.2865
 3098THY    CA277429   0.307   5.287   8.246  0.1812 -0.9110 -0.2617
 3098THY    CP177430   0.325   5.442   8.279  0.0844  0.1164 -0.4617
 3098THY    HP177431   0.287   5.468   8.378  0.5149  0.8355 -0.4796
 3098THY    CP277432   0.473   5.505   8.296  0.7710  0.6008  0.0569
 3098THY    HP277433   0.526   5.501   8.200  0.5358  1.3202 -0.1088
 3098THY    HP377434   0.458   5.607   8.331  0.7927  0.7889 -0.4784
 3098THY    HP477435   0.532   5.445   8.366  0.2567 -0.7035 -0.5944
 3098THY    CP377436   0.240   5.514   8.182 -0.1002 -0.1638  1.1825
 3098THY    HP577437   0.294   5.531   8.088 -2.0124  0.7774  0.1982
 3098THY    HP677438   0.147   5.459   8.166 -0.3725  0.9189 -1.4357
 3098THY    HP777439   0.226   5.617   8.219  2.3939  0.8081 -0.3294
 3098THY    CA377440   0.354   5.236   8.125 -0.1913 -0.2099  0.4650
 3098THY    HA377441   0.412   5.305   8.064  0.2901  0.9767  2.1734
 3098THY    CA477442   0.317   5.110   8.081  0.2866 -0.3253  0.1261
 3098THY    HA477443   0.361   5.079   7.987  2.1236 -0.4162  0.9664
 3098THY    CA577444   0.252   5.026   8.166  0.0341 -0.5389 -0.5259
 3098THY    CM177445   0.211   4.885   8.124  0.2231 -0.4162  0.1921
 3098THY    HM177446   0.109   4.878   8.084  0.4590 -0.4868 -0.4096
 3098THY    HM277447   0.273   4.845   8.043 -1.8471 -1.1779 -1.0933
 3098THY    HM377448   0.220   4.819   8.211 -1.3398  1.3001  1.7511
 3098THY    CA677449   0.210   5.075   8.291 -0.3771  0.4469  0.6388
 3098THY    HA677450   0.146   5.006   8.346  1.0925 -1.6355 -0.1238
 3099THY      O77451   6.127   4.058   4.723 -0.1662 -0.5497  1.1103
 3099THY     HO77452   6.115   4.108   4.806 -1.6267  0.5523  0.2763
 3099THY    CA177453   6.263   4.043   4.719  0.6568  0.8685  0.3589
 3099THY    CA277454   6.321   3.942   4.633  0.0103  1.4166 -0.5175
 3099THY    CP177455   6.227   3.849   4.550 -0.4809  0.4639  0.0310
 3099THY    HP177456   6.145   3.814   4.613 -1.3343  0.3465 -1.1050
 3099THY    CP277457   6.180   3.925   4.426 -1.1196  0.1042 -0.0929
 3099THY    HP277458   6.107   3.869   4.366  0.5765 -1.5078 -0.7502
 3099THY    HP377459   6.144   4.022   4.462 -0.4906 -0.2603  1.6246
 3099THY    HP477460   6.256   3.952   4.352 -1.3411  1.7367  0.2476
 3099THY    CP377461   6.294   3.719   4.508  0.3104 -0.1764 -0.1520
 3099THY    HP577462   6.362   3.731   4.423 -2.2607 -0.2121 -2.3761
 3099THY    HP677463   6.348   3.665   4.586  1.3276  1.5088  0.3455
 3099THY    HP777464   6.215   3.657   4.463  0.4886  1.5577 -3.1366
 3099THY    CA377465   6.459   3.932   4.626  0.2911 -0.6652  0.0802
 3099THY    HA377466   6.503   3.849   4.571  3.6293  1.5031 -0.7870
 3099THY    CA477467   6.540   4.023   4.695  1.1521  0.0026 -0.3375
 3099THY    HA477468   6.648   4.017   4.681  0.9091  0.8294 -3.1924
 3099THY    CA577469   6.484   4.125   4.783  0.0254 -0.1598  0.8624
 3099THY    CM177470   6.577   4.220   4.861  0.5979  0.1138  0.4266
 3099THY    HM177471   6.566   4.322   4.824  2.5544  1.0579  2.2127
 3099THY    HM277472   6.540   4.226   4.964 -2.4742 -1.2573 -0.4985
 3099THY    HM377473   6.686   4.215   4.848  0.8890  2.7268  1.2373
 3099THY    CA677474   6.342   4.132   4.791  0.0348  0.2950 -0.6156
 3099THY    HA677475   6.303   4.202   4.864  0.0993 -0.5084  0.2085
 3100THY      O77476   2.392   6.601   8.510  0.3179  0.0689 -0.0477
 3100THY     HO77477   2.480   6.638   8.492  0.0690  0.2253 -0.9781
 3100THY    CA177478   2.362   6.507   8.416  0.3208  0.0077 -0.0779
 3100THY    CA277479   2.241   6.439   8.403  0.4628 -0.0233 -0.1809
 3100THY    CP177480   2.133   6.444   8.511 -0.0012 -0.4148 -0.2796
 3100THY    HP177481   2.155   6.513   8.592 -1.2720  0.0294 -0.2913
 3100THY    CP277482   2.001   6.490   8.440 -0.9757  0.9497 -0.3008
 3100THY    HP277483   1.925   6.525   8.512  0.4864  1.4479  1.0518
 3100THY    HP377484   2.022   6.569   8.367  4.9217  0.1878  0.0709
 3100THY    HP477485   1.959   6.398   8.397  0.0085  0.1471  0.4037
 3100THY    CP377486   2.115   6.312   8.588 -0.3807 -0.3001  0.5801
 3100THY    HP577487   2.029   6.323   8.655 -1.4352  1.2871 -0.9493
 3100THY    HP677488   2.093   6.232   8.516 -2.8495  0.9410 -0.1620
 3100THY    HP777489   2.211   6.289   8.635 -0.0375 -0.4423 -0.1668
 3100THY    CA377490   2.230   6.339   8.300 -0.0962  0.2379  0.7350
 3100THY    HA377491   2.148   6.268   8.299 -0.4160  0.5547 -1.8119
 3100THY    CA477492   2.323   6.334   8.204 -0.1440 -0.7233  0.2956
 3100THY    HA477493   2.336   6.249   8.137  0.8934  0.1636 -0.6627
 3100THY    CA577494   2.440   6.414   8.206 -0.3179 -0.3740  1.2409
 3100THY    CM177495   2.550   6.416   8.105 -0.4688  0.2961  0.2349
 3100THY    HM177496   2.647   6.437   8.152 -0.1029  0.3015 -0.5203
 3100THY    HM277497   2.558   6.313   8.069  1.9588  0.2338  0.7862
 3100THY    HM377498   2.538   6.489   8.025  0.8727 -1.8741 -2.1157
 3100THY    CA677499   2.461   6.488   8.323 -0.3872  0.5810  0.2227
 3100THY    HA677500   2.553   6.543   8.336 -0.0673  0.1638 -0.2169
 3101THY      O77501   3.333   7.068   7.508 -0.2991 -0.3964  0.1555
 3101THY     HO77502   3.237   7.084   7.516 -0.5326 -0.3483 -2.0572
 3101THY    CA177503   3.351   6.937   7.541  0.6400 -0.0420  0.4454
 3101THY    CA277504   3.478   6.888   7.584 -0.2105  0.3179  0.0121
 3101THY    CP177505   3.595   6.985   7.581  0.2631 -0.5798  0.5910
 3101THY    HP177506   3.576   7.054   7.498  0.7481 -2.6147 -1.2952
 3101THY    CP277507   3.590   7.065   7.712 -0.2691  0.2602 -0.3121
 3101THY    HP277508   3.660   7.149   7.703  0.7215 -0.6325 -1.0538
 3101THY    HP377509   3.489   7.101   7.733 -0.9496 -1.3708 -0.6637
 3101THY    HP477510   3.621   6.991   7.787  1.0214 -0.9759 -1.9997
 3101THY    CP377511   3.736   6.922   7.567  0.0063  0.2309 -0.3935
 3101THY    HP577512   3.752   6.843   7.642  1.3140  0.6648 -0.2011
 3101THY    HP677513   3.748   6.874   7.470 -0.0247  0.1077 -0.3377
 3101THY    HP777514   3.808   7.003   7.580  0.2408 -0.2563  1.8234
 3101THY    CA377515   3.482   6.750   7.632 -0.6820 -0.6528 -0.1232
 3101THY    HA377516   3.570   6.695   7.663 -0.5228 -0.3715 -0.0690
 3101THY    CA477517   3.366   6.676   7.627 -0.1544  0.7825  1.0843
 3101THY    HA477518   3.383   6.571   7.645  1.1774  0.8406  0.2675
 3101THY    CA577519   3.243   6.725   7.575 -0.7558  0.1106  0.7721
 3101THY    CM177520   3.123   6.642   7.561  0.0108 -0.2274 -0.1875
 3101THY    HM177521   3.063   6.679   7.477 -1.2961 -1.3309  0.2283
 3101THY    HM277522   3.151   6.537   7.549  2.4056  0.2433  0.6508
 3101THY    HM377523   3.059   6.636   7.650 -0.6591 -0.2850 -0.6697
 3101THY    CA677524   3.238   6.860   7.537  0.5414 -0.0386  0.0930
 3101THY    HA677525   3.148   6.904   7.495  0.1062 -0.2718  0.7578
 3102THY      O77526   7.957   0.481   3.881 -0.1515 -0.4086 -0.1574
 3102THY     HO77527   7.961   0.466   3.785 -0.6186  0.0345 -0.2499
 3102THY    CA177528   8.023   0.384   3.945  0.6084  0.6757 -0.7412
 3102THY    CA277529   8.020   0.387   4.086  0.3420  0.1467  0.2981
 3102THY    CP177530   7.978   0.504   4.165 -0.6801  0.6485 -0.0182
 3102THY    HP177531   7.925   0.573   4.097  0.0487  1.5673  0.3268
 3102THY    CP277532   7.877   0.472   4.279  0.1983  0.6085 -0.1777
 3102THY    HP277533   7.917   0.407   4.358  0.4744  0.3865 -0.4965
 3102THY    HP377534   7.841   0.568   4.317  0.2340 -0.4613  2.8493
 3102THY    HP477535   7.788   0.425   4.238 -0.9927  0.4978  2.3296
 3102THY    CP377536   8.105   0.593   4.197  0.5982 -0.2460 -0.1542
 3102THY    HP577537   8.198   0.536   4.202  2.1856  1.7506 -3.3665
 3102THY    HP677538   8.112   0.672   4.121  1.9192  0.3904  0.5923
 3102THY    HP777539   8.089   0.638   4.296 -0.5860 -3.1084  1.0813
 3102THY    CA377540   8.062   0.267   4.148 -0.5640  0.0373  0.4480
 3102THY    HA377541   8.080   0.264   4.255  1.8542  0.1393  0.0919
 3102THY    CA477542   8.084   0.146   4.082  0.2590 -0.1960 -0.1500
 3102THY    HA477543   8.105   0.056   4.138 -0.0938 -0.7253 -0.8526
 3102THY    CA577544   8.075   0.144   3.945 -0.5190 -0.0264  0.4503
 3102THY    CM177545   8.117   0.027   3.869 -0.6556  0.7232  0.5800
 3102THY    HM177546   8.082   0.023   3.765  0.7823 -0.9088  0.1056
 3102THY    HM277547   8.226   0.023   3.857 -0.9015 -0.7102 -1.8614
 3102THY    HM377548   8.084  -0.062   3.924  2.4657 -1.3130 -0.5668
 3102THY    CA677549   8.052   0.260   3.874  0.6016 -0.5845  0.8257
 3102THY    HA677550   8.047   0.254   3.766 -0.8657 -1.8259  0.9314
 3103THY      O77551   0.275   8.296   7.062 -0.6155 -0.6907  0.2936
 3103THY     HO77552   0.298   8.300   6.968  4.0757  0.1399  1.2052
 3103THY    CA177553   0.208   8.184   7.095 -0.3561  0.3267 -0.4340
 3103THY    CA277554   0.084   8.189   7.171  0.3350 -0.4991  1.3439
 3103THY    CP177555   0.035   8.322   7.223  0.2458 -0.2119 -0.0178
 3103THY    HP177556   0.081   8.412   7.181 -0.8040 -0.3329 -1.5142
 3103THY    CP277557  -0.109   8.337   7.188 -0.0405  0.0401 -0.4434
 3103THY    HP277558  -0.146   8.440   7.195 -1.5061 -0.5145  0.2499
 3103THY    HP377559  -0.122   8.319   7.080 -1.8282  3.2013 -0.8650
 3103THY    HP477560  -0.169   8.264   7.243  0.2452  0.8175  0.9217
 3103THY    CP377561   0.038   8.321   7.378 -0.0476  0.2088 -0.0499
 3103THY    HP577562   0.136   8.288   7.412  0.3600  0.7658 -0.6540
 3103THY    HP677563   0.025   8.427   7.402  0.3046  0.0292  0.9875
 3103THY    HP777564  -0.038   8.271   7.439 -0.8168  0.8492 -0.4563
 3103THY    CA377565   0.011   8.069   7.179  0.0098  0.7389  0.3761
 3103THY    HA377566  -0.076   8.062   7.244 -1.0109 -1.2652 -1.1017
 3103THY    CA477567   0.076   7.946   7.146  0.2729  0.2909  0.6061
 3103THY    HA477568   0.019   7.856   7.164  0.4735 -0.1547 -0.8580
 3103THY    CA577569   0.203   7.941   7.085  0.3439 -0.7180 -0.4624
 3103THY    CM177570   0.266   7.811   7.048  0.2420  0.4132  0.5849
 3103THY    HM177571   0.367   7.803   7.088  0.5915 -2.9917 -0.6204
 3103THY    HM277572   0.207   7.734   7.101 -0.4525  1.5530  1.5246
 3103THY    HM377573   0.260   7.802   6.939  0.0823  0.0777  0.6201
 3103THY    CA677574   0.263   8.060   7.047  0.2077  0.1315  0.5540
 3103THY    HA677575   0.354   8.071   6.989 -0.6034  2.2529 -0.4145
 3104THY      O77576   0.834   5.652   9.680  0.7020  0.1024  0.3487
 3104THY     HO77577   0.833   5.737   9.634 -1.3254 -0.1687 -0.1993
 3104THY    CA177578   0.949   5.590   9.640 -0.0320  0.3480 -0.0670
 3104THY    CA277579   1.049   5.551   9.732 -0.0195 -0.8029  0.2395
 3104THY    CP177580   1.051   5.587   9.878  0.2972  0.0941 -0.3614
 3104THY    HP177581   0.948   5.578   9.912  0.5984  0.0647  0.5714
 3104THY    CP277582   1.134   5.500   9.965  0.8981 -0.5042  0.2959
 3104THY    HP277583   1.099   5.397   9.954 -0.4153 -0.0176 -0.2475
 3104THY    HP377584   1.241   5.495   9.940  0.4135 -1.2823 -1.8153
 3104THY    HP477585   1.113   5.540  10.065  0.3813  0.2001 -0.0810
 3104THY    CP377586   1.100   5.734   9.891  0.3791  0.6772  0.6558
 3104THY    HP577587   1.202   5.747   9.852  0.4691 -1.3240  0.1046
 3104THY    HP677588   1.039   5.810   9.841  1.4507  1.0217 -0.1721
 3104THY    HP777589   1.105   5.756   9.998  0.4548  2.5835  0.2870
 3104THY    CA377590   1.143   5.454   9.679 -0.6013 -0.1025 -0.4511
 3104THY    HA377591   1.226   5.418   9.738 -0.5141  1.0910  0.1739
 3104THY    CA477592   1.139   5.413   9.543  0.0217  0.2755 -0.0058
 3104THY    HA477593   1.220   5.347   9.516 -0.0923 -1.8041  4.0077
 3104THY    CA577594   1.042   5.457   9.459  0.3635  1.0875  0.5406
 3104THY    CM177595   1.025   5.399   9.320 -0.4379 -0.6256 -0.2538
 3104THY    HM177596   1.120   5.360   9.281  0.7510 -0.0418  1.9069
 3104THY    HM277597   0.942   5.328   9.313  0.5017 -1.9150  1.1258
 3104THY    HM377598   0.992   5.482   9.256 -0.5413 -2.0613 -2.1697
 3104THY    CA677599   0.940   5.540   9.514  0.3565  0.3103  0.9607
 3104THY    HA677600   0.854   5.569   9.455  0.3255 -0.2410  0.7216
 3105THY      O77601   9.511   4.969   8.581 -0.2944 -0.6337 -0.0035
 3105THY     HO77602   9.600   5.005   8.567 -0.1985 -0.3280  1.2987
 3105THY    CA177603   9.409   5.048   8.532 -0.2460  0.7144  0.3934
 3105THY    CA277604   9.283   4.990   8.499 -0.6255 -0.2506 -0.0846
 3105THY    CP177605   9.256   4.844   8.531 -0.5894  0.2882 -0.2780
 3105THY    HP177606   9.275   4.835   8.638 -1.2980  0.7976 -0.1019
 3105THY    CP277607   9.107   4.814   8.519 -0.1430  0.5598 -0.0152
 3105THY    HP277608   9.049   4.878   8.588  0.9094  1.2022  0.3059
 3105THY    HP377609   9.068   4.821   8.417  0.8734  1.5885 -0.3614
 3105THY    HP477610   9.091   4.708   8.541 -1.1767  0.7540  0.2445
 3105THY    CP377611   9.346   4.747   8.450  0.0230  0.5556  0.5242
 3105THY    HP577612   9.299   4.648   8.463  0.5408  0.2228 -0.0668
 3105THY    HP677613   9.354   4.780   8.345  1.5503  1.1344  0.7993
 3105THY    HP777614   9.445   4.759   8.494 -0.6716 -0.2597  2.4085
 3105THY    CA377615   9.182   5.084   8.453 -1.2576  0.4517  0.6652
 3105THY    HA377616   9.078   5.057   8.434 -1.4692  1.8181 -0.2497
 3105THY    CA477617   9.219   5.215   8.430  0.2456 -0.6281 -0.2800
 3105THY    HA477618   9.147   5.290   8.400  2.1316  1.3244 -0.1595
 3105THY    CA577619   9.352   5.261   8.459  0.7335 -0.3611  0.5253
 3105THY    CM177620   9.392   5.403   8.427 -0.2459  0.0654  0.7876
 3105THY    HM177621   9.429   5.408   8.324 -1.4119  1.1538  0.3974
 3105THY    HM277622   9.308   5.473   8.422  1.8113  2.6082 -0.6616
 3105THY    HM377623   9.468   5.440   8.497 -1.3873  1.9942  1.0804
 3105THY    CA677624   9.445   5.178   8.495 -0.1608  0.2705  0.5798
 3105THY    HA677625   9.542   5.227   8.500 -0.8579  1.9224 -1.0287
 3106THY      O77626   2.133   9.561   9.496  0.7554 -0.5502 -0.1190
 3106THY     HO77627   2.065   9.629   9.484  2.2588  0.9272 -0.8066
 3106THY    CA177628   2.087   9.453   9.564  0.1390  0.2705 -0.0746
 3106THY    CA277629   2.172   9.378   9.652 -0.4227 -0.4594 -0.4702
 3106THY    CP177630   2.312   9.436   9.692 -0.4502  0.4869  0.1878
 3106THY    HP177631   2.355   9.476   9.600 -1.3742 -0.0766 -0.5099
 3106THY    CP277632   2.302   9.563   9.786 -0.3706 -0.0444  0.0905
 3106THY    HP277633   2.249   9.530   9.876  1.0990 -0.9467  0.6569
 3106THY    HP377634   2.400   9.590   9.826 -1.4156  0.5660  2.3864
 3106THY    HP477635   2.243   9.639   9.733  0.4594 -1.0178 -2.4006
 3106THY    CP377636   2.413   9.331   9.749  0.3963 -0.6074 -0.0251
 3106THY    HP577637   2.510   9.377   9.772 -1.0192  3.1217 -0.8901
 3106THY    HP677638   2.372   9.273   9.833  1.2552 -4.3338 -1.9889
 3106THY    HP777639   2.429   9.260   9.668 -0.7464 -1.0422  0.1116
 3106THY    CA377640   2.120   9.257   9.711 -0.8492 -0.2322  0.4475
 3106THY    HA377641   2.186   9.192   9.767 -0.1782 -0.6965 -0.8463
 3106THY    CA477642   1.988   9.211   9.673 -0.4221 -0.3740  0.3273
 3106THY    HA477643   1.943   9.127   9.725 -1.5031  0.3335  0.5596
 3106THY    CA577644   1.907   9.291   9.595 -0.6697 -0.4700  0.2602
 3106THY    CM177645   1.764   9.258   9.560  0.8288  0.0411  0.1496
 3106THY    HM177646   1.738   9.165   9.613  0.2541 -1.2865 -2.2859
 3106THY    HM277647   1.686   9.329   9.588  0.2284  0.2358 -1.8636
 3106THY    HM377648   1.753   9.228   9.455  0.9225 -2.0780  0.6866
 3106THY    CA677649   1.953   9.417   9.543 -0.4146  0.3339 -0.2072
 3106THY    HA677650   1.897   9.476   9.471 -1.5101  2.0391  1.9012
 3107THY      O77651   5.827   6.495   3.281 -0.0149  0.1386 -0.3138
 3107THY     HO77652   5.902   6.520   3.339 -1.0722 -3.0801  2.8392
 3107THY    CA177653   5.886   6.405   3.195  0.1104 -0.0246  0.8620
 3107THY    CA277654   5.804   6.320   3.120 -0.3577  0.5481  0.3321
 3107THY    CP177655   5.648   6.325   3.125  0.1594 -0.2723  0.3555
 3107THY    HP177656   5.613   6.395   3.202  0.6646  0.2913  0.0776
 3107THY    CP277657   5.599   6.363   2.985 -0.4333 -0.1902  0.4120
 3107THY    HP277658   5.490   6.373   2.984 -0.7099 -2.5399 -0.2247
 3107THY    HP377659   5.649   6.453   2.949 -0.3030 -0.6617 -0.6201
 3107THY    HP477660   5.628   6.284   2.915 -0.3618  0.0098  0.2178
 3107THY    CP377661   5.589   6.198   3.178 -0.1606 -0.9447 -0.2778
 3107THY    HP577662   5.487   6.222   3.211  0.9751  1.6861  1.6946
 3107THY    HP677663   5.595   6.122   3.100 -0.0828  1.0622 -2.3367
 3107THY    HP777664   5.653   6.168   3.261 -0.1176  1.5626  0.6844
 3107THY    CA377665   5.871   6.224   3.040 -0.4422 -0.0593  0.4888
 3107THY    HA377666   5.822   6.148   2.979 -0.5152 -0.8478  1.4859
 3107THY    CA477667   6.012   6.220   3.035 -0.2292 -0.1579 -0.5696
 3107THY    HA477668   6.057   6.148   2.968  0.2591 -0.3079 -0.0833
 3107THY    CA577669   6.092   6.305   3.110 -0.1607  0.4969  0.3501
 3107THY    CM177670   6.247   6.299   3.101 -0.4356  0.3662  0.2221
 3107THY    HM177671   6.296   6.202   3.088  2.4976  1.9838 -1.8938
 3107THY    HM277672   6.266   6.350   3.006  1.3809  0.5937  0.6762
 3107THY    HM377673   6.291   6.354   3.185 -0.4183  1.7075 -0.6257
 3107THY    CA677674   6.026   6.403   3.187 -0.4254 -0.1635 -0.6614
 3107THY    HA677675   6.091   6.470   3.244 -3.1962  0.7927  1.6400
 3108THY      O77676   4.760   7.055   5.992  0.2961 -0.5249 -0.0076
 3108THY     HO77677   4.688   7.121   5.996  1.3218  0.6612 -0.7264
 3108THY    CA177678   4.776   7.000   5.866  0.3831 -0.3913  1.3763
 3108THY    CA277679   4.831   7.074   5.752  0.0249  0.2582 -0.2343
 3108THY    CP177680   4.877   7.220   5.763  0.6360 -0.4944  0.1008
 3108THY    HP177681   4.844   7.276   5.851 -1.7900  0.4323 -1.3044
 3108THY    CP277682   5.027   7.227   5.771  0.5641  0.1297 -0.3473
 3108THY    HP277683   5.056   7.333   5.763 -1.3069  0.7025 -0.1017
 3108THY    HP377684   5.075   7.178   5.856  1.5924  1.2089 -0.2705
 3108THY    HP477685   5.072   7.185   5.680  1.4212  0.4324 -0.0765
 3108THY    CP377686   4.816   7.315   5.651 -0.0432 -0.1700  0.2038
 3108THY    HP577687   4.860   7.294   5.553 -1.3169 -3.1052  0.1760
 3108THY    HP677688   4.711   7.290   5.634  0.4788 -1.7574 -0.9329
 3108THY    HP777689   4.826   7.421   5.679 -0.6466 -0.4864  1.7175
 3108THY    CA377690   4.842   7.007   5.632 -0.6356 -0.2028  0.3387
 3108THY    HA377691   4.888   7.053   5.544 -2.4846  0.7029 -0.2132
 3108THY    CA477692   4.776   6.881   5.613 -0.3525 -0.5222  0.2027
 3108THY    HA477693   4.768   6.830   5.517  0.9033  0.5933 -0.5286
 3108THY    CA577694   4.713   6.822   5.719  0.0805  0.3648 -0.5799
 3108THY    CM177695   4.645   6.687   5.706 -0.3696  0.0420 -1.3517
 3108THY    HM177696   4.637   6.651   5.602  0.3075 -1.6725 -0.8401
 3108THY    HM277697   4.709   6.618   5.763  0.3514  0.6476 -1.4072
 3108THY    HM377698   4.543   6.685   5.746 -0.0488 -1.8906 -0.5306
 3108THY    CA677699   4.725   6.874   5.847 -0.1015 -0.6774 -0.1988
 3108THY    HA677700   4.669   6.833   5.930  0.2730  0.2771  0.5410
 3109THY      O77701   7.783   8.496   2.855 -0.0101 -0.6041 -0.3487
 3109THY     HO77702   7.856   8.433   2.866  1.7487  1.1571 -1.2960
 3109THY    CA177703   7.786   8.537   2.725 -0.3437 -0.2440 -0.1320
 3109THY    CA277704   7.705   8.641   2.671 -0.1523  0.0069 -0.6151
 3109THY    CP177705   7.598   8.704   2.760  0.2059  0.1772  0.2652
 3109THY    HP177706   7.615   8.669   2.863  2.5213 -0.0621 -0.1519
 3109THY    CP277707   7.608   8.861   2.756 -0.1059  0.1684 -0.5801
 3109THY    HP277708   7.508   8.898   2.781  0.7835  2.7269 -0.5967
 3109THY    HP377709   7.692   8.881   2.824 -1.2250 -2.1539  1.6525
 3109THY    HP477710   7.618   8.899   2.654 -5.4603  1.1765 -1.0091
 3109THY    CP377711   7.451   8.654   2.724 -0.5756 -0.0370 -0.5887
 3109THY    HP577712   7.366   8.685   2.787  1.7244  1.7831  1.8655
 3109THY    HP677713   7.441   8.696   2.623  1.4438  0.8138 -0.4928
 3109THY    HP777714   7.459   8.545   2.723  2.0566  0.0782  0.1896
 3109THY    CA377715   7.720   8.690   2.535 -0.9805  0.6584 -0.6634
 3109THY    HA377716   7.651   8.766   2.498 -1.0175  1.4407  0.9184
 3109THY    CA477717   7.825   8.634   2.461  0.1664 -0.2086  0.0610
 3109THY    HA477718   7.838   8.674   2.361 -1.5547 -1.4725 -0.7134
 3109THY    CA577719   7.909   8.539   2.518 -0.0624  0.4426 -0.1069
 3109THY    CM177720   8.022   8.486   2.436  0.1002  0.5349  0.2151
 3109THY    HM177721   8.060   8.566   2.373  0.0414 -0.3079 -0.9186
 3109THY    HM277722   8.106   8.448   2.495 -0.1645  1.0119  0.9217
 3109THY    HM377723   7.983   8.409   2.368 -1.7389  2.2573 -0.8152
 3109THY    CA677724   7.887   8.486   2.647  0.2627  0.1294 -0.3006
 3109THY    HA677725   7.958   8.415   2.690  0.6938  1.5427  1.4480
 3110THY      O77726   9.171   4.394   3.648  0.4022 -0.5431 -0.3972
 3110THY     HO77727   9.141   4.302   3.664  0.7219 -0.4343  0.9535
 3110THY    CA177728   9.256   4.415   3.747  0.6216 -0.2910 -0.4224
 3110THY    CA277729   9.358   4.517   3.750 -0.5364  0.4248  0.6851
 3110THY    CP177730   9.388   4.602   3.618  0.3894  0.5448 -0.2816
 3110THY    HP177731   9.300   4.594   3.553 -0.6986  2.9121  0.7876
 3110THY    CP277732   9.409   4.742   3.652  0.0470  0.0361 -0.6140
 3110THY    HP277733   9.328   4.777   3.716  1.2447  0.2310  0.8534
 3110THY    HP377734   9.494   4.763   3.719 -1.3783  2.0734  0.6721
 3110THY    HP477735   9.415   4.798   3.558  0.3874 -0.3211 -0.8093
 3110THY    CP377736   9.509   4.548   3.544 -0.5501  0.5670  0.3197
 3110THY    HP577737   9.511   4.595   3.445  1.0568 -1.4345 -0.6812
 3110THY    HP677738   9.610   4.559   3.584  0.2803 -0.7888 -1.2770
 3110THY    HP777739   9.491   4.445   3.510  1.4501  0.2034  0.2730
 3110THY    CA377740   9.451   4.515   3.859 -0.7173 -0.6069 -0.1990
 3110THY    HA377741   9.534   4.585   3.863 -2.2357  1.5787 -3.2416
 3110THY    CA477742   9.437   4.420   3.964  0.1786 -0.0439  0.1379
 3110THY    HA477743   9.509   4.416   4.045  0.6406 -1.3921 -0.3130
 3110THY    CA577744   9.336   4.328   3.957  0.4518  0.0063  0.5366
 3110THY    CM177745   9.306   4.235   4.069 -0.3148 -0.3715  0.1215
 3110THY    HM177746   9.208   4.254   4.115  0.4752 -0.5102  1.9634
 3110THY    HM277747   9.310   4.131   4.035 -0.1064 -0.0147 -0.9733
 3110THY    HM377748   9.389   4.248   4.140 -0.3884 -2.9309  0.7778
 3110THY    CA677749   9.254   4.321   3.850  0.1422 -0.3083 -0.2184
 3110THY    HA677750   9.190   4.234   3.842  1.6803 -1.5067  0.0848
 3111THY      O77751   5.404   9.801   8.054 -0.1073 -0.2334  0.4488
 3111THY     HO77752   5.491   9.844   8.046 -0.6720  0.7531 -0.7943
 3111THY    CA177753   5.329   9.833   7.946 -0.0180  0.1339  0.7502
 3111THY    CA277754   5.202   9.784   7.916  0.0988 -0.4509  0.0154
 3111THY    CP177755   5.142   9.677   8.009 -0.3704  0.9236  0.7106
 3111THY    HP177756   5.175   9.683   8.114  0.6728 -0.9327  0.5387
 3111THY    CP277757   4.990   9.672   8.008 -0.1541 -0.0323  0.2300
 3111THY    HP277758   4.956   9.582   7.956 -1.1490  0.7373 -0.4717
 3111THY    HP377759   4.952   9.653   8.109 -0.6451 -1.3512 -0.1851
 3111THY    HP477760   4.941   9.769   7.993  0.8830  0.4612 -0.0251
 3111THY    CP377761   5.197   9.543   7.962 -0.3731  0.2980  0.3306
 3111THY    HP577762   5.307   9.541   7.967 -0.2898 -2.4445 -0.7921
 3111THY    HP677763   5.150   9.464   8.022 -0.0551  1.6419  2.4362
 3111THY    HP777764   5.168   9.518   7.859  0.9893  0.8770 -0.2217
 3111THY    CA377765   5.134   9.837   7.808  0.6566  0.4611  0.2273
 3111THY    HA377766   5.037   9.806   7.770 -0.5872  1.4002  2.4405
 3111THY    CA477767   5.201   9.921   7.722 -0.2642  0.0867  0.1790
 3111THY    HA477768   5.153   9.967   7.637 -0.0155  1.0363  0.5377
 3111THY    CA577769   5.337   9.953   7.740  0.0749 -0.4687  1.1996
 3111THY    CM177770   5.425  10.019   7.630  0.0069  0.8418  0.7442
 3111THY    HM177771   5.504  10.068   7.688 -0.0527  0.0633  1.4938
 3111THY    HM277772   5.475   9.948   7.564 -0.5260 -0.0250  1.2530
 3111THY    HM377773   5.354  10.082   7.575  1.8602  2.1059 -0.2977
 3111THY    CA677774   5.399   9.913   7.856 -0.5870  0.3436 -0.1391
 3111THY    HA677775   5.507   9.924   7.859  0.0032 -3.5963 -1.0721
 3112THY      O77776   7.734   7.519   0.647 -0.0486 -0.1667  0.0153
 3112THY     HO77777   7.732   7.499   0.552  1.2390 -1.8820  0.3052
 3112THY    CA177778   7.682   7.639   0.665  0.3028  0.4319 -0.0132
 3112THY    CA277779   7.684   7.703   0.788 -0.4417  0.3041  0.5951
 3112THY    CP177780   7.731   7.624   0.917 -0.4471 -0.1048  0.0917
 3112THY    HP177781   7.763   7.521   0.897  1.7025  0.7730 -1.3549
 3112THY    CP277782   7.856   7.693   0.988 -0.4858  0.0747  0.1366
 3112THY    HP277783   7.825   7.782   1.043  2.1227  0.6247  0.8391
 3112THY    HP377784   7.900   7.624   1.061 -0.6667  1.0480  1.1880
 3112THY    HP477785   7.927   7.734   0.915 -0.9975  2.1514  0.7633
 3112THY    CP377786   7.607   7.605   1.010  0.3692  0.1202  0.1469
 3112THY    HP577787   7.640   7.528   1.081  1.1171 -1.7453 -2.0765
 3112THY    HP677788   7.597   7.694   1.073  0.2966  0.5358 -0.4438
 3112THY    HP777789   7.519   7.584   0.948  1.1554  1.2310 -1.4190
 3112THY    CA377790   7.630   7.826   0.798 -0.8159  0.4217 -0.4249
 3112THY    HA377791   7.632   7.876   0.895  0.0671  1.5826 -1.0093
 3112THY    CA477792   7.609   7.900   0.687 -0.9189  0.0617 -0.4463
 3112THY    HA477793   7.579   8.004   0.693  1.5904  0.7546  2.1237
 3112THY    CA577794   7.609   7.841   0.561  0.4203 -0.4996  0.0819
 3112THY    CM177795   7.565   7.916   0.436 -0.4896  0.6231 -0.1470
 3112THY    HM177796   7.508   7.840   0.381  0.5503  0.9389 -1.7326
 3112THY    HM277797   7.503   7.996   0.478  0.7071  0.2917  2.4238
 3112THY    HM377798   7.656   7.951   0.385  1.4241  1.4219  3.4968
 3112THY    CA677799   7.641   7.706   0.549  0.3817 -0.5462  0.1688
 3112THY    HA677800   7.654   7.649   0.457  1.5541 -1.7772  1.0471
 3113THY      O77801   8.376   7.824   9.833  0.7477  0.2483 -1.0213
 3113THY     HO77802   8.345   7.870   9.753 -0.5200  0.7591 -0.2658
 3113THY    CA177803   8.301   7.864   9.936  1.1730 -0.4440 -0.0698
 3113THY    CA277804   8.312   7.807  10.063  0.5032  0.4500  0.4506
 3113THY    CP177805   8.408   7.688  10.080  0.6208  0.0505 -0.3070
 3113THY    HP177806   8.402   7.623   9.992  1.2732  0.8110 -0.9142
 3113THY    CP277807   8.553   7.725  10.103 -0.2902 -0.1885 -0.0453
 3113THY    HP277808   8.584   7.809  10.039  1.0017  0.4440  1.3579
 3113THY    HP377809   8.583   7.752  10.205  0.8027  0.4154 -0.5037
 3113THY    HP477810   8.607   7.631  10.083  1.0462  0.7381 -0.9644
 3113THY    CP377811   8.366   7.594  10.195 -0.3498 -0.5720 -0.2579
 3113THY    HP577812   8.417   7.497  10.185  2.1151  0.7491 -1.3630
 3113THY    HP677813   8.391   7.641  10.291  2.2150 -0.0729 -1.0817
 3113THY    HP777814   8.258   7.579  10.183 -0.0814 -1.8528 -1.4165
 3113THY    CA377815   8.224   7.855  10.163 -0.5953 -0.0196 -0.9441
 3113THY    HA377816   8.223   7.815  10.264  1.3473 -1.2739 -1.3516
 3113THY    CA477817   8.137   7.962  10.133  0.4211 -0.4178  0.5638
 3113THY    HA477818   8.070   7.991  10.212 -0.1803  0.4599 -0.2470
 3113THY    CA577819   8.123   8.013  10.007 -0.0148  0.0769  0.4744
 3113THY    CM177820   8.018   8.116   9.977 -0.2678 -0.2754  0.2847
 3113THY    HM177821   7.919   8.079   9.948  0.9578 -1.4119 -2.8597
 3113THY    HM277822   8.000   8.177  10.066  0.6404  0.6533 -0.1540
 3113THY    HM377823   8.052   8.186   9.900  0.5395  1.3792  2.0448
 3113THY    CA677824   8.207   7.961   9.912  0.6758 -1.1224  0.0614
 3113THY    HA677825   8.197   7.994   9.809  1.2956 -1.3523 -0.0804
 3114THY      O77826   3.954   2.732   4.581 -0.3771 -0.4691  0.6836
 3114THY     HO77827   4.007   2.741   4.501 -0.1523  0.0500  0.8822
 3114THY    CA177828   3.958   2.845   4.654 -0.1044  0.3066 -1.3783
 3114THY    CA277829   3.864   2.877   4.751 -0.0062  0.4181 -0.3379
 3114THY    CP177830   3.748   2.792   4.782  0.7680  0.4853  0.0264
 3114THY    HP177831   3.756   2.704   4.717  1.0370 -0.8310  1.7893
 3114THY    CP277832   3.746   2.732   4.933 -0.4744 -0.1346  0.1252
 3114THY    HP277833   3.745   2.816   5.002 -0.2037  0.2496 -0.3344
 3114THY    HP377834   3.652   2.680   4.957  0.3962 -2.2590 -0.8408
 3114THY    HP477835   3.828   2.662   4.954  0.3448  0.3009 -1.4539
 3114THY    CP377836   3.614   2.857   4.754  0.3127 -0.4810  0.5396
 3114THY    HP577837   3.597   2.874   4.647 -0.9062 -3.0422  0.2665
 3114THY    HP677838   3.534   2.785   4.771  1.5670 -1.9705  0.3507
 3114THY    HP777839   3.598   2.952   4.807  0.3350 -0.1910  0.0419
 3114THY    CA377840   3.889   2.982   4.835 -0.6273  0.0368 -0.0187
 3114THY    HA377841   3.820   3.003   4.917 -0.8084 -0.0670 -0.1454
 3114THY    CA477842   4.014   3.057   4.821  0.6127 -0.0472  0.0069
 3114THY    HA477843   4.040   3.147   4.877  3.2927 -0.8357  0.1932
 3114THY    CA577844   4.099   3.028   4.718 -0.4922 -0.0620  0.4679
 3114THY    CM177845   4.212   3.111   4.686  0.3374  0.6301 -0.5679
 3114THY    HM177846   4.293   3.041   4.665  0.3798  0.8697 -1.2328
 3114THY    HM277847   4.189   3.192   4.616 -0.2451  1.0546  0.1032
 3114THY    HM377848   4.239   3.175   4.771  1.7669  0.4647 -0.8733
 3114THY    CA677849   4.068   2.923   4.639  1.0305  0.0091  0.7406
 3114THY    HA677850   4.128   2.906   4.550  1.6268  2.3805  0.6193
 3115THY      O77851   2.788   0.809   0.414 -0.2787 -0.4961 -0.1918
 3115THY     HO77852   2.705   0.859   0.410 -1.0555 -1.8255 -2.1106
 3115THY    CA177853   2.767   0.709   0.508  0.3461 -0.5617  0.1442
 3115THY    CA277854   2.872   0.663   0.591  0.1843  1.0016 -0.0709
 3115THY    CP177855   3.007   0.737   0.586  0.1604 -0.3125 -0.1033
 3115THY    HP177856   3.007   0.837   0.541  0.0316 -0.6291 -0.8214
 3115THY    CP277857   3.071   0.752   0.724 -0.0641 -0.1262 -0.7314
 3115THY    HP277858   3.000   0.799   0.793 -1.4443 -0.3176 -1.9692
 3115THY    HP377859   3.100   0.656   0.771  2.7366  0.4337 -1.1395
 3115THY    HP477860   3.167   0.804   0.715 -1.3280  2.0809 -2.0027
 3115THY    CP377861   3.103   0.670   0.492  0.1031 -0.1588 -0.2772
 3115THY    HP577862   3.175   0.744   0.453 -2.0575  0.7973 -2.7308
 3115THY    HP677863   3.159   0.586   0.535  1.1307  0.5593 -0.1545
 3115THY    HP777864   3.056   0.636   0.399 -1.2338  3.0329 -0.9006
 3115THY    CA377865   2.847   0.552   0.677 -0.6484  0.4062 -0.1692
 3115THY    HA377866   2.919   0.531   0.755 -1.8052  2.3319  1.5219
 3115THY    CA477867   2.725   0.479   0.671  0.2242 -0.9603 -0.0287
 3115THY    HA477868   2.699   0.399   0.740  2.4323  0.2071  2.3317
 3115THY    CA577869   2.631   0.528   0.578  0.5464  0.4899 -0.1440
 3115THY    CM177870   2.489   0.467   0.578  0.3667  0.2453 -0.0862
 3115THY    HM177871   2.478   0.391   0.656 -0.1705  1.4010  1.0026
 3115THY    HM277872   2.409   0.538   0.604  1.2916  1.0256  0.7176
 3115THY    HM377873   2.464   0.411   0.488 -1.2976 -0.0890  0.5349
 3115THY    CA677874   2.649   0.637   0.499 -0.8391 -0.2893  0.4786
 3115THY    HA677875   2.569   0.670   0.434 -0.0774 -1.5489 -1.1806
 3116THY      O77876   0.185   7.420   0.793 -0.0480  0.1342  0.1276
 3116THY     HO77877   0.114   7.364   0.829 -0.3768 -0.8417 -1.9003
 3116THY    CA177878   0.289   7.334   0.763  0.1142 -0.8128  0.1441
 3116THY    CA277879   0.422   7.379   0.776  0.8052  0.2804 -0.3470
 3116THY    CP177880   0.444   7.522   0.840 -0.6441  0.0673 -0.0545
 3116THY    HP177881   0.345   7.569   0.848 -1.6746 -1.9302 -0.4904
 3116THY    CP277882   0.511   7.510   0.976  0.3135  0.3551 -0.2875
 3116THY    HP277883   0.615   7.475   0.963 -0.0387  0.3105 -4.3332
 3116THY    HP377884   0.508   7.610   1.020 -1.9601  0.2937 -0.2086
 3116THY    HP477885   0.461   7.439   1.042  1.7465  2.3123  3.1770
 3116THY    CP377886   0.542   7.597   0.749 -0.4996  0.4869 -0.4688
 3116THY    HP577887   0.557   7.687   0.810 -1.3443 -1.1995  2.4062
 3116THY    HP677888   0.640   7.549   0.738 -0.6645  0.5675 -2.8315
 3116THY    HP777889   0.502   7.618   0.649 -0.3325 -0.4801 -0.7521
 3116THY    CA377890   0.524   7.284   0.755 -0.1101 -0.0594 -0.5598
 3116THY    HA377891   0.625   7.309   0.784  0.1032 -1.4810 -0.0330
 3116THY    CA477892   0.496   7.155   0.707  0.8387 -0.3508  0.1356
 3116THY    HA477893   0.578   7.085   0.693  0.5813 -0.6080 -0.1066
 3116THY    CA577894   0.361   7.122   0.689  0.1097  1.5732 -0.0276
 3116THY    CM177895   0.335   6.990   0.627  0.2486  0.2776 -0.7057
 3116THY    HM177896   0.412   6.914   0.643  0.7987  0.5774 -1.7573
 3116THY    HM277897   0.245   6.939   0.663  0.9158 -1.9723 -2.0051
 3116THY    HM377898   0.326   7.008   0.519  0.1510  0.1138 -0.7242
 3116THY    CA677899   0.259   7.204   0.723 -0.6927 -0.7586  0.3324
 3116THY    HA677900   0.157   7.182   0.691 -1.6520  1.7640  1.4495
 3117THY      O77901   0.706   1.622   5.311 -0.3878  0.0714  0.0487
 3117THY     HO77902   0.620   1.627   5.267 -0.7975  0.6266  0.8819
 3117THY    CA177903   0.721   1.730   5.386  0.4468  0.1204 -0.6201
 3117THY    CA277904   0.840   1.764   5.449  0.0905 -0.3029  0.2822
 3117THY    CP177905   0.961   1.681   5.405  0.4111  0.5915 -0.4054
 3117THY    HP177906   0.952   1.633   5.307  2.9162 -1.6790  0.3328
 3117THY    CP277907   1.091   1.767   5.397 -0.5996  0.2989 -0.0866
 3117THY    HP277908   1.170   1.706   5.352  0.4375 -0.4331  2.5355
 3117THY    HP377909   1.080   1.855   5.332 -0.8707 -0.6734 -1.3944
 3117THY    HP477910   1.121   1.784   5.501 -0.1725  0.4544 -0.2320
 3117THY    CP377911   0.977   1.569   5.506 -0.2764 -0.6503  0.3517
 3117THY    HP577912   0.994   1.599   5.610 -2.5390  1.5487  0.2011
 3117THY    HP677913   0.881   1.516   5.501 -0.0625 -1.0432  0.3739
 3117THY    HP777914   1.055   1.494   5.491 -2.4133 -3.2207  1.3399
 3117THY    CA377915   0.851   1.883   5.523 -0.9545 -0.5744  0.4660
 3117THY    HA377916   0.946   1.910   5.568  0.4453  0.8244 -2.9933
 3117THY    CA477917   0.735   1.955   5.551  0.2263 -0.9702 -0.4169
 3117THY    HA477918   0.737   2.047   5.609 -2.3571 -0.4341 -1.0600
 3117THY    CA577919   0.614   1.917   5.494  0.0506  0.2918 -0.0454
 3117THY    CM177920   0.492   1.980   5.538  0.2048 -0.1774 -0.4332
 3117THY    HM177921   0.463   1.939   5.635 -1.3629  2.3615  0.2700
 3117THY    HM277922   0.496   2.090   5.540  1.4127 -0.2073  0.6894
 3117THY    HM377923   0.421   1.950   5.461  0.7573 -0.0950 -0.9857
 3117THY    CA677924   0.606   1.804   5.414  0.6277 -0.2189 -0.3471
 3117THY    HA677925   0.512   1.770   5.372  2.1925 -1.5522 -3.0524
 3118THY      O77926   0.761   5.766   3.120 -0.0625 -0.2149  0.2237
 3118THY     HO77927   0.752   5.832   3.190  1.0755  2.4106 -1.9380
 3118THY    CA177928   0.850   5.814   3.031 -0.2863  0.2422  0.4665
 3118THY    CA277929   0.898   5.736   2.918  0.6832  0.3070 -0.0066
 3118THY    CP177930   0.850   5.593   2.908 -0.4659 -0.0589  0.3066
 3118THY    HP177931   0.800   5.564   3.001  1.0411 -1.9892  0.5877
 3118THY    CP277932   0.756   5.571   2.788  0.4366 -0.5091 -0.0798
 3118THY    HP277933   0.689   5.656   2.773  1.8073  0.4236 -1.3123
 3118THY    HP377934   0.811   5.569   2.692  0.6436 -0.6837  0.0410
 3118THY    HP477935   0.690   5.489   2.817 -0.2303 -0.0006 -0.1527
 3118THY    CP377936   0.972   5.495   2.896  0.1020  0.0575  0.3203
 3118THY    HP577937   0.937   5.392   2.882  0.2479  0.1282 -0.6261
 3118THY    HP677938   1.037   5.518   2.811  1.3605 -2.4590  0.5242
 3118THY    HP777939   1.036   5.501   2.985  2.5957  0.2719 -1.4117
 3118THY    CA377940   0.976   5.804   2.823  0.1841 -0.4241  0.0329
 3118THY    HA377941   1.013   5.743   2.742  0.7738 -0.1041  0.0575
 3118THY    CA477942   1.008   5.937   2.842  0.9456 -0.3788 -0.1814
 3118THY    HA477943   1.075   5.989   2.773  0.6762 -0.5187 -0.5506
 3118THY    CA577944   0.969   6.010   2.961  0.3935  0.0956 -0.9761
 3118THY    CM177945   1.006   6.151   2.989  1.3586  0.5818 -0.1104
 3118THY    HM177946   0.978   6.174   3.092  0.2898 -0.3122 -0.1751
 3118THY    HM277947   1.110   6.176   2.964  0.6383  0.7421 -3.5020
 3118THY    HM377948   0.940   6.226   2.943 -1.7154 -0.4198  2.3019
 3118THY    CA677949   0.890   5.945   3.051  0.5665 -0.7128  0.3305
 3118THY    HA677950   0.847   5.992   3.139  1.2475 -0.0772  0.3275
 3119THY      O77951   7.295   4.708   7.636 -0.2221  0.4196  0.4354
 3119THY     HO77952   7.348   4.785   7.660  0.6450 -0.0952  0.2289
 3119THY    CA177953   7.175   4.761   7.647 -0.6806 -0.2022  0.4378
 3119THY    CA277954   7.065   4.683   7.647 -0.1090 -0.3575 -0.0587
 3119THY    CP177955   7.088   4.534   7.675  0.3777 -0.3086  0.4216
 3119THY    HP177956   7.186   4.495   7.647 -0.1165 -2.2963  1.3126
 3119THY    CP277957   7.076   4.507   7.819  0.2810 -0.3204  0.6065
 3119THY    HP277958   7.122   4.410   7.842  1.8412  0.5221  1.1456
 3119THY    HP377959   7.123   4.572   7.894 -0.4028  2.1729 -1.0307
 3119THY    HP477960   6.974   4.497   7.858 -0.5910  0.9991 -1.2178
 3119THY    CP377961   6.982   4.441   7.594 -0.2462 -0.0794  0.0957
 3119THY    HP577962   6.879   4.473   7.614 -1.1613 -1.3092 -2.2987
 3119THY    HP677963   6.989   4.443   7.485 -2.9801 -0.1177 -0.1518
 3119THY    HP777964   6.988   4.336   7.624 -0.3680  0.6848  3.0899
 3119THY    CA377965   6.938   4.738   7.638  0.4386  0.5031  0.2034
 3119THY    HA377966   6.848   4.678   7.638  0.2528  0.7781 -0.0234
 3119THY    CA477967   6.929   4.881   7.628  0.0941  0.3898 -0.3236
 3119THY    HA477968   6.830   4.925   7.620 -0.7380 -1.2782  0.3505
 3119THY    CA577969   7.042   4.958   7.647 -0.0744 -0.2588  0.0772
 3119THY    CM177970   7.036   5.111   7.634 -0.2550  0.5745 -0.6243
 3119THY    HM177971   6.974   5.154   7.554 -1.3963  0.3318  0.1099
 3119THY    HM277972   7.012   5.158   7.729 -0.0366 -1.2095  0.3549
 3119THY    HM377973   7.137   5.150   7.614  0.6361 -0.0459  2.2698
 3119THY    CA677974   7.167   4.901   7.657  0.1973  0.4065 -0.2308
 3119THY    HA677975   7.251   4.967   7.641  1.5774 -0.8669  1.2763
 3120THY      O77976   1.211   6.362   9.849 -0.1999 -0.1925 -0.1709
 3120THY     HO77977   1.270   6.287   9.832 -0.7807 -1.3417  2.4248
 3120THY    CA177978   1.130   6.310   9.947  0.1962 -0.2526  1.0327
 3120THY    CA277979   1.026   6.386   9.988  0.3542 -0.3841 -0.3348
 3120THY    CP177980   0.999   6.530   9.926 -0.7695 -0.2344  0.3977
 3120THY    HP177981   1.059   6.551   9.836 -1.3846  0.1414  0.0694
 3120THY    CP277982   0.860   6.557   9.867  0.3450 -0.3574  0.1628
 3120THY    HP277983   0.857   6.642   9.799  2.7614  0.5394  1.0611
 3120THY    HP377984   0.826   6.471   9.809  0.4078  0.2501 -0.7914
 3120THY    HP477985   0.779   6.586   9.935  0.6856  1.3239 -0.0960
 3120THY    CP377986   1.051   6.635  10.022 -0.0433  0.0142  0.3913
 3120THY    HP577987   1.059   6.730   9.967  1.2258 -0.5998 -0.5197
 3120THY    HP677988   0.975   6.646  10.100 -0.9596  0.0578 -0.4877
 3120THY    HP777989   1.145   6.603  10.069 -0.1076 -0.4269  0.2223
 3120THY    CA377990   0.936   6.342  10.085 -0.1397 -0.3186 -0.1601
 3120THY    HA377991   0.853   6.407  10.107 -0.3478 -0.8781  0.7274
 3120THY    CA477992   0.959   6.229  10.148 -0.4211  0.1018  0.0715
 3120THY    HA477993   0.907   6.206  10.241  1.9098 -0.2171  1.3876
 3120THY    CA577994   1.056   6.141  10.106 -0.3994  1.0712  0.6742
 3120THY    CM177995   1.067   6.009  10.167 -0.7230  0.8172 -0.4071
 3120THY    HM177996   0.966   5.965  10.162 -1.2012  0.4383  5.5076
 3120THY    HM277997   1.136   5.942  10.115  0.0827 -0.1291  1.7673
 3120THY    HM377998   1.110   6.011  10.268  1.2925 -1.9394 -1.0904
 3120THY    CA677999   1.148   6.179  10.001 -0.0182  0.0408  0.6646
 3120THY    HA678000   1.229   6.113   9.971 -0.7173 -1.5612  2.0900
 3121THY      O78001   8.063   5.510   3.922  0.0872  0.3306  0.4764
 3121THY     HO78002   8.153   5.543   3.907  1.3688 -2.8736  0.3498
 3121THY    CA178003   7.986   5.584   3.843 -0.0706  0.9346  0.0161
 3121THY    CA278004   7.850   5.544   3.829 -0.1024  0.4613  0.0365
 3121THY    CP178005   7.795   5.424   3.906 -0.3269  0.4600  0.1817
 3121THY    HP178006   7.880   5.363   3.938 -0.0016  0.1923 -1.1381
 3121THY    CP278007   7.698   5.462   4.022  0.1327  0.0918  0.5847
 3121THY    HP278008   7.736   5.549   4.077 -0.7671  1.3237 -0.6697
 3121THY    HP378009   7.603   5.501   3.983  1.7944  3.4250 -0.5656
 3121THY    HP478010   7.673   5.379   4.089 -0.8361 -0.2423 -0.1670
 3121THY    CP378011   7.728   5.318   3.811  0.1981  0.4774 -0.6680
 3121THY    HP578012   7.806   5.276   3.747 -0.8109 -1.7637 -0.5158
 3121THY    HP678013   7.687   5.237   3.871 -0.3884  3.2867  3.1262
 3121THY    HP778014   7.651   5.359   3.745 -0.4585 -0.5403 -0.5433
 3121THY    CA378015   7.767   5.626   3.753  0.1499 -0.0303  0.1550
 3121THY    HA378016   7.660   5.609   3.744  0.1432  0.6252 -1.2793
 3121THY    CA478017   7.820   5.744   3.706  0.1536 -0.1899  0.4697
 3121THY    HA478018   7.760   5.805   3.639  1.1357  0.6866  0.3475
 3121THY    CA578019   7.955   5.781   3.724 -0.3833 -0.2340 -0.2623
 3121THY    CM178020   8.006   5.904   3.643  0.5468 -0.3207 -0.1579
 3121THY    HM178021   8.035   5.881   3.540 -3.9214  3.4733 -2.6503
 3121THY    HM278022   7.936   5.988   3.646 -0.4396 -1.0110 -2.1997
 3121THY    HM378023   8.092   5.938   3.703 -0.2655 -0.5661  1.1908
 3121THY    CA678024   8.038   5.705   3.795 -0.1035 -0.0734 -0.0071
 3121THY    HA678025   8.144   5.728   3.807 -0.1173 -0.8812  2.2262
 3122THY      O78026   9.324   7.565   7.963 -0.4367 -0.1988 -0.0105
 3122THY     HO78027   9.352   7.635   7.902  0.2518 -1.1737 -0.8503
 3122THY    CA178028   9.276   7.621   8.074  0.0369 -0.3301 -0.3685
 3122THY    CA278029   9.168   7.558   8.136 -0.5276 -0.2774 -0.1133
 3122THY    CP178030   9.098   7.441   8.056 -0.4048 -0.2429 -0.4476
 3122THY    HP178031   9.138   7.433   7.954  0.1917  0.8572 -0.3162
 3122THY    CP278032   9.119   7.310   8.130 -0.4766 -0.0179 -0.0049
 3122THY    HP278033   9.227   7.292   8.144 -0.5728  0.9529  2.3430
 3122THY    HP378034   9.069   7.313   8.227 -0.6274 -2.2149  0.0432
 3122THY    HP478035   9.073   7.226   8.076 -0.9906 -1.1435  2.0670
 3122THY    CP378036   8.949   7.459   8.030  0.0591 -0.2893  0.2064
 3122THY    HP578037   8.909   7.360   8.006  0.1346 -0.5688  1.1789
 3122THY    HP678038   8.886   7.490   8.114 -1.9454  0.0261 -1.3279
 3122THY    HP778039   8.937   7.527   7.945 -1.1750 -1.4665 -0.6035
 3122THY    CA378040   9.123   7.607   8.259  0.0974  0.0422 -0.9884
 3122THY    HA378041   9.049   7.544   8.308 -0.9376  1.6716 -0.3860
 3122THY    CA478042   9.176   7.723   8.320 -0.7870  0.5415  0.9265
 3122THY    HA478043   9.131   7.755   8.413 -2.9972  1.6041 -0.4297
 3122THY    CA578044   9.270   7.794   8.245 -0.0358  0.7463 -0.0671
 3122THY    CM178045   9.331   7.922   8.297  0.0096  0.1017  0.2883
 3122THY    HM178046   9.268   7.962   8.377 -1.5350  0.1461 -0.9139
 3122THY    HM278047   9.427   7.904   8.348 -0.6798  0.8420  1.9018
 3122THY    HM378048   9.322   8.000   8.221  0.0914 -0.1266  0.0411
 3122THY    CA678049   9.328   7.738   8.129  0.6463 -0.2799  0.1528
 3122THY    HA678050   9.417   7.782   8.085 -0.1317  2.7750  1.3816
 3123THY      O78051   9.614   0.249   7.492  0.0890 -0.2622 -0.3200
 3123THY     HO78052   9.556   0.172   7.505  0.3547 -0.5904 -1.0220
 3123THY    CA178053   9.576   0.309   7.374  0.2879  0.1167  0.2306
 3123THY    CA278054   9.659   0.406   7.307  0.1920 -0.5699 -0.3030
 3123THY    CP178055   9.788   0.445   7.382  0.0275  0.2796  0.0932
 3123THY    HP178056   9.759   0.444   7.488 -1.6243 -0.3059 -0.3434
 3123THY    CP278057   9.905   0.346   7.341 -0.4750 -0.6181  0.3500
 3123THY    HP278058   9.891   0.250   7.392  0.6144 -0.7611  0.3978
 3123THY    HP378059   9.902   0.331   7.232 -0.7057 -0.4599  0.3337
 3123THY    HP478060  10.002   0.388   7.366 -0.4694 -1.1596  1.2584
 3123THY    CP378061   9.837   0.585   7.359 -0.0176  0.2149  0.1933
 3123THY    HP578062   9.920   0.606   7.427 -2.0262  0.5129  2.6714
 3123THY    HP678063   9.861   0.608   7.254 -0.2173 -0.8091 -0.0875
 3123THY    HP778064   9.754   0.652   7.382 -1.9279 -1.8097 -0.3894
 3123THY    CA378065   9.614   0.474   7.193  0.4737  1.0277  0.0802
 3123THY    HA378066   9.690   0.539   7.151  1.9698 -0.2228  0.7487
 3123THY    CA478067   9.493   0.439   7.138  0.0750  0.3491  0.2164
 3123THY    HA478068   9.461   0.486   7.046 -1.4430  0.4033  0.7578
 3123THY    CA578069   9.411   0.347   7.202  0.6693 -0.1959  0.2390
 3123THY    CM178070   9.281   0.308   7.134 -0.0683  0.2230  0.0629
 3123THY    HM178071   9.288   0.277   7.029  1.4480  2.2114 -0.4987
 3123THY    HM278072   9.226   0.228   7.185  3.5775 -2.1874  0.5524
 3123THY    HM378073   9.215   0.396   7.138 -1.8877 -0.9737 -1.6298
 3123THY    CA678074   9.455   0.278   7.313 -0.6229 -0.7917 -0.9236
 3123THY    HA678075   9.392   0.198   7.352 -0.1170 -0.6657  0.1832
 3124THY      O78076   3.543   9.746   4.375  0.2072  0.2289 -0.7837
 3124THY     HO78077   3.607   9.688   4.421  0.3505  0.9072 -0.1109
 3124THY    CA178078   3.614   9.822   4.291  0.5083  0.1691 -0.8568
 3124THY    CA278079   3.546   9.900   4.190 -0.3166 -0.4540 -0.5180
 3124THY    CP178080   3.401   9.865   4.152  0.0219 -0.1203  0.4118
 3124THY    HP178081   3.357   9.788   4.215  0.4118 -0.4376  0.3007
 3124THY    CP278082   3.316   9.991   4.187  0.2613  0.3625 -0.1739
 3124THY    HP278083   3.348  10.072   4.122 -1.0308  1.3862  0.4258
 3124THY    HP378084   3.208   9.980   4.175 -0.1816  3.3839  0.3397
 3124THY    HP478085   3.331  10.024   4.290  0.3033  0.7277 -0.2953
 3124THY    CP378086   3.373   9.828   4.007  0.1928  0.5264  1.1590
 3124THY    HP578087   3.265   9.818   3.990  0.2153 -0.5747  1.5352
 3124THY    HP678088   3.424   9.880   3.926 -0.4244 -1.0090 -0.2723
 3124THY    HP778089   3.404   9.724   3.992 -0.3474  0.4062  0.8796
 3124THY    CA378090   3.617   9.979   4.104  0.3597 -0.0043  0.7147
 3124THY    HA378091   3.572  10.029   4.018 -0.1871 -0.6359  0.6307
 3124THY    CA478092   3.749   9.993   4.136 -0.0582 -0.0891  0.2105
 3124THY    HA478093   3.805  10.058   4.069  1.1166 -1.8019 -0.5471
 3124THY    CA578094   3.816   9.935   4.240 -0.0159  0.5584 -0.2693
 3124THY    CM178095   3.960   9.958   4.257  0.1845  0.3138  0.1791
 3124THY    HM178096   4.020   9.905   4.182  2.6285  1.7853  0.9502
 3124THY    HM278097   3.991  10.062   4.242  3.1744 -0.2943  1.3427
 3124THY    HM378098   3.996   9.941   4.359  0.2651  1.1784  0.3072
 3124THY    CA678099   3.749   9.841   4.317 -0.3139 -0.6693 -0.4798
 3124THY    HA678100   3.799   9.786   4.397  0.6572  0.6061 -0.1745
 3125THY      O78101   6.594   9.209   5.476 -0.3613 -0.3650 -0.3646
 3125THY     HO78102   6.646   9.129   5.495 -1.3524 -1.3395 -1.5495
 3125THY    CA178103   6.482   9.184   5.551  0.2536  0.5080 -0.2451
 3125THY    CA278104   6.377   9.282   5.562 -0.5424 -0.1668  0.7262
 3125THY    CP178105   6.388   9.412   5.484 -0.1759 -0.4890 -0.3222
 3125THY    HP178106   6.470   9.422   5.412 -0.5652  0.8676 -0.6089
 3125THY    CP278107   6.256   9.435   5.408  0.7195 -0.4601 -0.0880
 3125THY    HP278108   6.237   9.533   5.362  1.4046  0.8928  2.3596
 3125THY    HP378109   6.241   9.354   5.336  2.2389 -0.4931 -0.4017
 3125THY    HP478110   6.175   9.441   5.481 -0.8477  2.0356 -1.8799
 3125THY    CP378111   6.418   9.524   5.594 -0.1559 -0.7639  0.2226
 3125THY    HP578112   6.431   9.626   5.556  3.1699 -1.3724 -0.5596
 3125THY    HP678113   6.334   9.524   5.664 -0.1471  2.7724  0.4231
 3125THY    HP778114   6.506   9.488   5.648  0.1020 -2.7568 -1.4085
 3125THY    CA378115   6.265   9.250   5.640  0.1166  0.0190 -0.0677
 3125THY    HA378116   6.190   9.327   5.658 -1.8652 -1.9621  0.4743
 3125THY    CA478117   6.260   9.129   5.703  0.5612 -0.4299 -0.1870
 3125THY    HA478118   6.178   9.113   5.772 -0.1474  0.4819 -0.7821
 3125THY    CA578119   6.354   9.023   5.686  0.4259  0.0864 -0.4485
 3125THY    CM178120   6.345   8.895   5.762  0.7116 -0.8017 -0.6379
 3125THY    HM178121   6.440   8.873   5.812  1.3825 -2.4334 -2.5134
 3125THY    HM278122   6.259   8.896   5.830 -1.3086  2.5518 -2.9235
 3125THY    HM378123   6.335   8.813   5.690 -0.4892 -0.8644 -0.4171
 3125THY    CA678124   6.472   9.058   5.614 -0.1252  0.4980  0.3407
 3125THY    HA678125   6.551   8.986   5.596 -1.5732 -0.5808 -2.1098
 3126THY      O78126   7.743   2.712   1.435  0.0232  0.1818 -0.0402
 3126THY     HO78127   7.710   2.688   1.523  0.0902 -0.5554 -0.2134
 3126THY    CA178128   7.873   2.678   1.430 -0.2601 -0.7440  0.4398
 3126THY    CA278129   7.938   2.665   1.308 -0.4439 -0.3250  0.1754
 3126THY    CP178130   7.867   2.681   1.173 -0.3123  0.2017 -0.6808
 3126THY    HP178131   7.760   2.690   1.191 -0.1308  0.7531  0.1873
 3126THY    CP278132   7.912   2.808   1.087 -0.0380 -0.5367 -0.1637
 3126THY    HP278133   7.884   2.791   0.983  0.6679 -2.6261 -0.0738
 3126THY    HP378134   7.877   2.900   1.135  0.7374 -0.4485  0.2464
 3126THY    HP478135   8.020   2.811   1.072 -0.3288  0.5217 -2.4187
 3126THY    CP378136   7.885   2.552   1.086  0.4750  0.4292  0.8829
 3126THY    HP578137   7.965   2.565   1.013 -1.5524  1.4519 -1.3312
 3126THY    HP678138   7.916   2.475   1.157  0.6065  1.8214  2.3959
 3126THY    HP778139   7.787   2.531   1.041 -0.6399  2.3108  2.2848
 3126THY    CA378140   8.080   2.635   1.311  0.1021  0.0877  0.0452
 3126THY    HA378141   8.136   2.616   1.219  2.7847  1.5895  1.2571
 3126THY    CA478142   8.148   2.630   1.428  0.9959  0.2642 -0.7487
 3126THY    HA478143   8.251   2.594   1.431  0.4106 -1.6901 -1.8453
 3126THY    CA578144   8.076   2.649   1.546  0.0662  1.2487 -0.3395
 3126THY    CM178145   8.151   2.632   1.680  0.6929  0.1000 -0.0533
 3126THY    HM178146   8.100   2.676   1.767  0.8781  0.5269 -0.1560
 3126THY    HM278147   8.163   2.524   1.697 -3.0065 -0.1595  1.9624
 3126THY    HM378148   8.255   2.669   1.682  0.4966  0.6465  0.1587
 3126THY    CA678149   7.939   2.662   1.544  0.1501 -0.1319 -0.1168
 3126THY    HA678150   7.900   2.667   1.645  1.7834 -2.8427  0.7385
 3127THY      O78151   3.878   1.153   6.911  0.0981 -0.4313  0.1579
 3127THY     HO78152   3.895   1.182   6.820 -0.3404  1.5737  0.6778
 3127THY    CA178153   3.958   1.233   6.989 -0.1919  0.3588 -0.5078
 3127THY    CA278154   3.987   1.209   7.127  0.6689 -0.1777 -0.5743
 3127THY    CP178155   3.933   1.083   7.204 -0.0423 -0.0498 -0.3159
 3127THY    HP178156   3.883   1.010   7.139 -2.3561 -0.3651  1.6750
 3127THY    CP278157   4.038   0.994   7.274 -1.0243 -0.0142 -0.7425
 3127THY    HP278158   4.116   1.062   7.310 -0.7900 -1.0187  0.7539
 3127THY    HP378159   3.994   0.941   7.359 -2.1512  1.1156 -0.5927
 3127THY    HP478160   4.074   0.913   7.210 -0.7992 -3.3970  3.2118
 3127THY    CP378161   3.838   1.127   7.314 -0.0274  0.4080  0.1218
 3127THY    HP578162   3.800   1.033   7.356  1.7601 -0.2217  0.4354
 3127THY    HP678163   3.877   1.197   7.389 -0.5096  2.4868 -1.4690
 3127THY    HP778164   3.747   1.165   7.265  0.0528 -1.0135 -1.1970
 3127THY    CA378165   4.061   1.301   7.201  0.7320 -0.3797  0.1969
 3127THY    HA378166   4.086   1.283   7.306  0.1701  0.6187  0.5174
 3127THY    CA478167   4.120   1.414   7.142  1.1280  1.3333 -0.5267
 3127THY    HA478168   4.171   1.483   7.209  0.8799 -0.6605  1.8795
 3127THY    CA578169   4.110   1.422   6.999  0.6051  0.1780 -0.4357
 3127THY    CM178170   4.163   1.543   6.932  0.0879  1.0860 -0.5750
 3127THY    HM178171   4.190   1.619   7.006  0.3961  1.7462 -1.3487
 3127THY    HM278172   4.251   1.514   6.874 -0.6492 -0.7844 -0.8109
 3127THY    HM378173   4.087   1.584   6.864  1.9661  3.7570 -1.2186
 3127THY    CA678174   4.021   1.339   6.931  0.0026 -0.1267  0.1081
 3127THY    HA678175   4.016   1.357   6.824 -1.9407  0.4061  0.2623
 3128THY      O78176   9.433   1.554   0.416  0.0517 -0.2629 -0.1898
 3128THY     HO78177   9.451   1.614   0.490  2.3724 -0.3957 -0.5878
 3128THY    CA178178   9.324   1.603   0.354 -0.1584  0.2115  0.0710
 3128THY    CA278179   9.280   1.541   0.231 -0.0873  0.0474 -0.0528
 3128THY    CP178180   9.350   1.425   0.163  0.3288 -0.1615  0.1133
 3128THY    HP178181   9.432   1.394   0.229 -1.2034  0.1139  2.2365
 3128THY    CP278182   9.254   1.307   0.154  0.0356  0.2614  0.2770
 3128THY    HP278183   9.170   1.345   0.094 -0.6692 -1.6294 -0.0102
 3128THY    HP378184   9.303   1.225   0.101 -0.7835 -0.5689  0.7703
 3128THY    HP478185   9.207   1.274   0.247 -2.6802  0.8740 -0.7682
 3128THY    CP378186   9.410   1.465   0.023 -0.0108 -0.0856 -0.6154
 3128THY    HP578187   9.324   1.481  -0.043 -1.4667  0.8551  1.4010
 3128THY    HP678188   9.461   1.562   0.031  0.0144 -0.1290 -0.2662
 3128THY    HP778189   9.483   1.393  -0.017  0.3504  0.7318 -1.4775
 3128THY    CA378190   9.164   1.602   0.172  0.1582  0.5552  0.2398
 3128THY    HA378191   9.131   1.567   0.074  0.7974 -2.3385  0.9714
 3128THY    CA478192   9.100   1.709   0.230  0.0829  0.4213 -0.6111
 3128THY    HA478193   9.009   1.745   0.182 -1.1965 -3.0691 -1.0642
 3128THY    CA578194   9.139   1.763   0.354 -0.2883  0.4729  0.2500
 3128THY    CM178195   9.072   1.878   0.419 -0.2186 -0.3653  0.0677
 3128THY    HM178196   9.146   1.948   0.462 -0.9587 -0.4829  1.6064
 3128THY    HM278197   8.999   1.928   0.354 -0.4735 -0.4491  0.2880
 3128THY    HM378198   9.013   1.834   0.500 -0.2457  1.4404  1.0788
 3128THY    CA678199   9.257   1.716   0.410  0.5486 -0.2728  0.4396
 3128THY    HA678200   9.289   1.760   0.505 -2.4717  1.8504  0.6282
 3129THY      O78201   7.601   9.688   1.916 -0.3463  0.8150  0.6268
 3129THY     HO78202   7.684   9.737   1.907  1.2346 -1.9379 -1.3079
 3129THY    CA178203   7.507   9.758   1.987 -0.2881  0.9603 -0.3137
 3129THY    CA278204   7.371   9.708   1.993  0.4007  0.0822 -0.6071
 3129THY    CP178205   7.321   9.581   1.918  0.5141 -0.1997 -0.5756
 3129THY    HP178206   7.392   9.549   1.841  0.4708 -1.1655 -0.2313
 3129THY    CP278207   7.306   9.464   2.022  1.1851 -0.3035  0.2547
 3129THY    HP278208   7.257   9.374   1.984 -0.9380 -0.2803  2.6486
 3129THY    HP378209   7.403   9.437   2.065  2.1409 -1.2455 -2.3451
 3129THY    HP478210   7.236   9.502   2.098  0.2498 -1.4592 -0.0002
 3129THY    CP378211   7.196   9.598   1.836 -0.2604 -0.7270  0.0403
 3129THY    HP578212   7.120   9.638   1.903  2.3823  1.3277  2.0446
 3129THY    HP678213   7.212   9.685   1.771  0.1964  1.0303  2.3491
 3129THY    HP778214   7.165   9.505   1.788 -1.2387  0.2238 -1.2476
 3129THY    CA378215   7.291   9.770   2.086  0.9230 -0.0472  0.5054
 3129THY    HA378216   7.190   9.735   2.104  0.8481  0.5301  1.2462
 3129THY    CA478217   7.330   9.901   2.144 -0.1423  0.0086  0.1540
 3129THY    HA478218   7.259   9.960   2.202 -0.4874 -0.8745  0.6507
 3129THY    CA578219   7.460   9.943   2.139 -0.0752  0.4899  0.1353
 3129THY    CM178220   7.511  10.068   2.210 -0.1142  0.1340 -0.3764
 3129THY    HM178221   7.598  10.110   2.159  0.4541 -0.8528 -0.2538
 3129THY    HM278222   7.436  10.147   2.196 -0.6911 -0.5989 -1.6741
 3129THY    HM378223   7.536  10.052   2.315  0.0857  2.2777 -0.0639
 3129THY    CA678224   7.547   9.869   2.061 -0.5840 -0.5841  0.8419
 3129THY    HA678225   7.653   9.884   2.076 -0.9409  0.2126  2.8277
 3130THY      O78226   2.953   6.310   7.559  0.3387 -0.0658  0.5387
 3130THY     HO78227   2.995   6.294   7.473 -1.2571  1.5620 -0.6101
 3130THY    CA178228   2.886   6.209   7.615  0.4343  0.7950 -0.0820
 3130THY    CA278229   2.789   6.222   7.717 -0.3869 -0.4565 -0.1711
 3130THY    CP178230   2.765   6.367   7.762  0.4934  0.3025  0.2259
 3130THY    HP178231   2.810   6.435   7.688  0.4389  0.7630  0.6159
 3130THY    CP278232   2.617   6.405   7.777 -0.6544  0.5836 -0.1321
 3130THY    HP278233   2.604   6.510   7.805  2.4631  1.1582 -0.4905
 3130THY    HP378234   2.564   6.391   7.682 -1.0254 -0.8318  0.2599
 3130THY    HP478235   2.565   6.334   7.842  0.3005  1.9677  2.2458
 3130THY    CP378236   2.835   6.399   7.899 -0.0326  0.1086 -0.2249
 3130THY    HP578237   2.799   6.316   7.961  0.1610 -0.7499 -1.2383
 3130THY    HP678238   2.944   6.389   7.901  0.1546  1.7583  2.2006
 3130THY    HP778239   2.808   6.499   7.937 -1.0377 -0.0432 -0.4977
 3130THY    CA378240   2.717   6.114   7.771  0.3015 -0.5616 -0.6052
 3130THY    HA378241   2.648   6.139   7.851  2.1401  2.2797  0.2453
 3130THY    CA478242   2.742   5.987   7.716 -0.2069  0.3564 -0.6144
 3130THY    HA478243   2.689   5.903   7.761 -2.6447  2.1940  0.1522
 3130THY    CA578244   2.838   5.973   7.616 -0.0755  0.3857  0.3713
 3130THY    CM178245   2.904   5.838   7.597 -0.3872  0.4812  0.4707
 3130THY    HM178246   2.932   5.817   7.493  0.0050 -0.5304  0.7643
 3130THY    HM278247   3.003   5.848   7.642  0.8607 -1.4459 -1.6015
 3130THY    HM378248   2.839   5.755   7.626 -0.6854  0.7957  0.7034
 3130THY    CA678249   2.903   6.084   7.557  0.0800  0.1452 -0.0428
 3130THY    HA678250   2.979   6.064   7.483  0.4135 -1.5850  0.7370
 3131THY      O78251   6.855   1.258   9.245  0.0358 -0.2770 -0.0884
 3131THY     HO78252   6.874   1.164   9.233  0.0889 -0.1754 -0.8057
 3131THY    CA178253   6.859   1.327   9.128 -0.0675 -0.1116 -0.0679
 3131THY    CA278254   6.786   1.443   9.106 -0.6756 -0.1150  0.4834
 3131THY    CP178255   6.708   1.511   9.218  0.9074  0.5100  0.0586
 3131THY    HP178256   6.760   1.482   9.310 -0.5221  0.5905  0.9135
 3131THY    CP278257   6.697   1.663   9.214 -0.4512  0.0907  0.1628
 3131THY    HP278258   6.621   1.701   9.144 -1.3391  0.1921  1.1621
 3131THY    HP378259   6.682   1.696   9.317  0.6896  1.7338 -0.1667
 3131THY    HP478260   6.790   1.706   9.176 -0.4602 -1.1987 -1.4631
 3131THY    CP378261   6.567   1.442   9.234  0.3118 -0.7097 -0.3432
 3131THY    HP578262   6.516   1.464   9.328  0.3401  0.0014 -0.4834
 3131THY    HP678263   6.501   1.477   9.154  1.3641 -1.5977 -1.6478
 3131THY    HP778264   6.568   1.333   9.224 -0.0778 -0.5287 -3.2537
 3131THY    CA378265   6.775   1.488   8.974  0.0855  0.0349  0.0225
 3131THY    HA378266   6.704   1.565   8.945 -0.0647 -0.0028  0.2906
 3131THY    CA478267   6.833   1.422   8.868  0.7109 -0.6212  0.3891
 3131THY    HA478268   6.821   1.455   8.765  0.2396 -0.8944  0.3534
 3131THY    CA578269   6.906   1.308   8.892  0.6304  0.0258  0.7898
 3131THY    CM178270   6.952   1.223   8.775  0.4328 -0.0562  0.5378
 3131THY    HM178271   7.013   1.142   8.817  1.0779  1.1928  2.1118
 3131THY    HM278272   6.870   1.185   8.714  0.3124 -2.0185  1.8448
 3131THY    HM378273   7.021   1.266   8.701 -0.4960  1.2435  0.3829
 3131THY    CA678274   6.923   1.260   9.021 -0.4603  0.6316  0.3718
 3131THY    HA678275   6.972   1.165   9.041  0.4684  0.6666 -1.4769
 3132THY      O78276   3.065   9.686   3.252  0.1807 -0.2856 -0.2757
 3132THY     HO78277   2.993   9.751   3.249  0.2514 -0.1483  0.5439
 3132THY    CA178278   2.996   9.600   3.328  0.4210 -0.4169 -0.0805
 3132THY    CA278279   3.050   9.476   3.374 -0.1919 -0.2020  0.1970
 3132THY    CP178280   3.180   9.426   3.325 -0.2216 -0.0987  0.0816
 3132THY    HP178281   3.208   9.492   3.242 -0.7919  0.6992  0.5147
 3132THY    CP278282   3.296   9.421   3.425 -0.1171  0.2809  0.0523
 3132THY    HP278283   3.270   9.480   3.514 -2.6615 -2.4191  1.2622
 3132THY    HP378284   3.303   9.316   3.452 -3.6657  0.2364  1.3479
 3132THY    HP478285   3.389   9.450   3.375  0.7148 -0.3363  1.2296
 3132THY    CP378286   3.158   9.284   3.271  0.1681 -0.5523 -0.3691
 3132THY    HP578287   3.066   9.284   3.211 -0.3500  0.7613  0.3993
 3132THY    HP678288   3.235   9.264   3.195  0.0305 -0.1668 -0.6152
 3132THY    HP778289   3.154   9.208   3.350 -0.3821  0.3944  0.5367
 3132THY    CA378290   2.962   9.391   3.447  0.4572  0.3272 -0.2329
 3132THY    HA378291   2.988   9.288   3.469 -0.5422  0.3731  1.3091
 3132THY    CA478292   2.835   9.435   3.486  0.4409 -0.2509 -0.0237
 3132THY    HA478293   2.769   9.375   3.547  0.3702 -0.1133  0.0354
 3132THY    CA578294   2.787   9.566   3.443  0.6090  0.9754 -0.7559
 3132THY    CM178295   2.647   9.604   3.476  0.4511 -0.5770  0.0244
 3132THY    HM178296   2.592   9.657   3.398  1.9934  1.6483  0.3339
 3132THY    HM278297   2.585   9.526   3.522  1.3671 -1.9866 -1.0588
 3132THY    HM378298   2.658   9.675   3.559 -0.8956  0.7951 -0.9128
 3132THY    CA678299   2.868   9.645   3.364 -0.0805  0.1109 -0.1003
 3132THY    HA678300   2.837   9.743   3.327  1.0504  1.0489  1.3302
 3133THY      O78301   0.628   0.426   4.339 -0.7083  0.1753 -0.5943
 3133THY     HO78302   0.599   0.344   4.382 -0.6038  1.4367  2.0780
 3133THY    CA178303   0.764   0.422   4.363  0.4886  1.0381  0.5592
 3133THY    CA278304   0.847   0.516   4.312 -0.9934  0.4728  0.1117
 3133THY    CP178305   0.794   0.618   4.216  0.1987  0.6066 -0.4471
 3133THY    HP178306   0.684   0.613   4.214  0.2009  0.4086 -0.1235
 3133THY    CP278307   0.805   0.764   4.263  1.1277  0.6080  0.5985
 3133THY    HP278308   0.729   0.820   4.208  0.9445  0.8762  1.1155
 3133THY    HP378309   0.782   0.767   4.370  1.3657 -1.3248  0.7485
 3133THY    HP478310   0.903   0.808   4.241  0.7734  1.3475  0.5039
 3133THY    CP378311   0.850   0.603   4.072  0.4058 -0.5255  0.1773
 3133THY    HP578312   0.821   0.683   4.003  1.8995 -0.1806 -0.0842
 3133THY    HP678313   0.960   0.611   4.073  0.2924  4.1923 -1.1025
 3133THY    HP778314   0.802   0.515   4.027 -0.6476  0.6770 -1.1308
 3133THY    CA378315   0.978   0.512   4.344  0.2065 -0.1030  0.2211
 3133THY    HA378316   1.048   0.584   4.303 -0.5873  0.3169 -0.4365
 3133THY    CA478317   1.031   0.419   4.434 -0.5383 -0.4217 -0.0125
 3133THY    HA478318   1.138   0.422   4.455 -0.1430 -4.0232 -0.8366
 3133THY    CA578319   0.943   0.331   4.493 -0.2177 -0.0674  0.4925
 3133THY    CM178320   0.993   0.215   4.581 -0.5521 -0.1014 -0.1408
 3133THY    HM178321   1.058   0.254   4.660  1.0629 -0.1854 -1.3719
 3133THY    HM278322   0.905   0.166   4.624 -0.0353 -1.3081 -0.4121
 3133THY    HM378323   1.042   0.133   4.526 -1.4317 -0.7663  0.0406
 3133THY    CA678324   0.809   0.330   4.455  0.0713  0.7200 -0.4986
 3133THY    HA678325   0.743   0.265   4.511  0.2807  0.1800 -0.8692
 3134THY      O78326   1.781   7.463   1.616  0.1400 -0.0737 -0.3334
 3134THY     HO78327   1.855   7.415   1.655 -0.0280  2.1906  3.1968
 3134THY    CA178328   1.765   7.574   1.693 -0.3653 -0.2889 -0.1148
 3134THY    CA278329   1.637   7.632   1.690 -0.3787 -0.0450 -0.3143
 3134THY    CP178330   1.519   7.582   1.608 -0.8119 -0.5402 -0.2056
 3134THY    HP178331   1.552   7.498   1.546 -0.4139  1.2124 -2.5400
 3134THY    CP278332   1.407   7.535   1.705 -0.4842 -0.0088  0.6048
 3134THY    HP278333   1.449   7.466   1.780  1.3799 -0.9946 -1.2452
 3134THY    HP378334   1.364   7.621   1.758 -0.6058  1.0218 -1.1237
 3134THY    HP478335   1.328   7.486   1.647 -2.2151 -2.0676  4.2783
 3134THY    CP378336   1.459   7.667   1.499 -0.3400  0.4918  0.5554
 3134THY    HP578337   1.449   7.771   1.533  1.0728  0.3357  1.5153
 3134THY    HP678338   1.534   7.670   1.419 -2.6319  1.5928 -1.7554
 3134THY    HP778339   1.375   7.611   1.456  0.2391  1.0451 -1.4349
 3134THY    CA378340   1.623   7.744   1.780 -0.9155  0.0524  0.1693
 3134THY    HA378341   1.525   7.788   1.797 -0.6985  0.9579 -0.8235
 3134THY    CA478342   1.725   7.796   1.860 -0.7152 -0.1691 -0.3318
 3134THY    HA478343   1.696   7.870   1.933 -2.2023 -1.1945  0.1506
 3134THY    CA578344   1.849   7.735   1.854 -0.3754  0.2995  0.2070
 3134THY    CM178345   1.967   7.775   1.939  0.1859 -0.5383 -0.2478
 3134THY    HM178346   1.978   7.706   2.023 -2.4535  0.2435  0.8481
 3134THY    HM278347   2.062   7.776   1.883  0.3723  0.2535  0.0671
 3134THY    HM378348   1.963   7.880   1.970 -0.0790 -0.0719 -1.7839
 3134THY    CA678349   1.874   7.621   1.776 -0.5504 -0.3415  0.4220
 3134THY    HA678350   1.970   7.571   1.781  1.0557  2.4905  0.0969
 3135THY      O78351   4.206   5.131   2.984 -0.4093  0.1539  0.0666
 3135THY     HO78352   4.216   5.211   3.038  2.1120 -0.5599  0.8094
 3135THY    CA178353   4.227   5.015   3.058  0.1257 -0.7213 -0.4257
 3135THY    CA278354   4.299   4.909   3.002 -0.1261  0.4517 -0.5502
 3135THY    CP178355   4.375   4.926   2.865 -0.4112 -0.5017 -0.1705
 3135THY    HP178356   4.313   4.990   2.801 -0.1335 -1.5942 -1.5618
 3135THY    CP278357   4.517   4.975   2.900  0.2315  0.7885 -0.1186
 3135THY    HP278358   4.573   4.897   2.952 -2.8964 -0.6409  1.3734
 3135THY    HP378359   4.572   4.997   2.808 -0.5170  0.1100 -0.7423
 3135THY    HP478360   4.515   5.067   2.960 -0.5732  0.1199  0.9074
 3135THY    CP378361   4.400   4.794   2.795  0.6591 -0.7784  0.0123
 3135THY    HP578362   4.436   4.809   2.692  2.3283  0.1345  0.7026
 3135THY    HP678363   4.472   4.735   2.852 -0.9167 -2.3606  0.4893
 3135THY    HP778364   4.310   4.731   2.804  1.6678 -2.2540  0.1955
 3135THY    CA378365   4.332   4.797   3.087  0.2319 -0.1643  0.4237
 3135THY    HA378366   4.406   4.720   3.063  0.0043 -0.3954  0.4633
 3135THY    CA478367   4.262   4.791   3.206  0.2190 -0.3003 -0.3343
 3135THY    HA478368   4.265   4.700   3.267  0.2802 -0.7561 -1.0043
 3135THY    CA578369   4.190   4.902   3.259 -0.0635  0.1502 -0.4432
 3135THY    CM178370   4.115   4.897   3.386 -0.2739 -0.2961 -0.0162
 3135THY    HM178371   4.016   4.856   3.363 -0.3601  0.3650 -0.8834
 3135THY    HM278372   4.171   4.850   3.468  1.2892  1.1441 -0.1874
 3135THY    HM378373   4.097   4.996   3.430  2.0536  0.3011 -0.2958
 3135THY    CA678374   4.184   5.018   3.191  0.0401 -0.4261  0.0972
 3135THY    HA678375   4.139   5.106   3.237 -0.3307 -0.0740 -0.9043
 3136THY      O78376   9.102   8.284   2.784 -0.2965  0.1909 -0.4682
 3136THY     HO78377   9.097   8.209   2.845  2.1947  1.6076  1.7044
 3136THY    CA178378   9.032   8.380   2.841 -0.7400  0.5483 -0.3945
 3136THY    CA278379   8.998   8.489   2.765 -0.0824 -0.0632  0.0755
 3136THY    CP178380   9.045   8.492   2.616 -0.5597 -0.7321 -1.1678
 3136THY    HP178381   9.133   8.430   2.597  0.0979  0.3624 -1.7541
 3136THY    CP278382   8.931   8.453   2.523  0.4307  0.6066 -0.8437
 3136THY    HP278383   8.913   8.345   2.528  0.3283  0.6652  0.8296
 3136THY    HP378384   8.833   8.480   2.563 -0.2598 -0.8797 -1.4921
 3136THY    HP478385   8.955   8.493   2.424  1.5057  3.7257  0.5242
 3136THY    CP378386   9.085   8.641   2.579  0.0182  0.3427 -0.2523
 3136THY    HP578387   9.169   8.670   2.643 -0.1310 -0.3415  0.2588
 3136THY    HP678388   9.126   8.643   2.477  1.2303 -0.2208  0.1991
 3136THY    HP778389   9.002   8.712   2.585 -0.2638  0.0743 -0.8366
 3136THY    CA378390   8.910   8.588   2.820  0.1376 -0.5860 -0.6687
 3136THY    HA378391   8.874   8.676   2.767 -2.4771 -0.6151  0.8963
 3136THY    CA478392   8.880   8.577   2.954  0.1869  0.0483  0.3297
 3136THY    HA478393   8.810   8.647   2.999 -0.4952 -1.2907  1.4272
 3136THY    CA578394   8.927   8.470   3.029  0.5240 -0.3325 -0.5533
 3136THY    CM178395   8.882   8.456   3.172  0.4966 -0.1207 -0.0953
 3136THY    HM178396   8.954   8.401   3.234 -1.2955 -2.9170 -0.3463
 3136THY    HM278397   8.873   8.555   3.218  2.0752  1.0704 -2.1276
 3136THY    HM378398   8.781   8.415   3.183  0.8934 -0.8167  1.1797
 3136THY    CA678399   8.998   8.367   2.973  0.2534  0.1535  0.4832
 3136THY    HA678400   9.026   8.280   3.032 -0.9921 -1.2115 -0.8744
 3137THY      O78401   9.499   7.607   3.136  0.6908 -0.2109 -0.8534
 3137THY     HO78402   9.478   7.698   3.110 -1.9957  0.0994  1.7967
 3137THY    CA178403   9.546   7.536   3.033  0.3059 -0.5271 -0.5441
 3137THY    CA278404   9.600   7.415   3.056 -0.3488 -0.3848  0.3253
 3137THY    CP178405   9.603   7.357   3.193 -0.2348  0.2837 -0.6769
 3137THY    HP178406   9.542   7.417   3.262  0.8674 -1.3761  1.9343
 3137THY    CP278407   9.545   7.214   3.214  1.1447  0.4181 -0.0810
 3137THY    HP278408   9.606   7.140   3.160 -0.8687 -1.4868  0.1217
 3137THY    HP378409   9.547   7.188   3.320 -1.2858  0.2562 -0.0174
 3137THY    HP478410   9.441   7.203   3.182  0.7111  0.8667  1.1423
 3137THY    CP378411   9.751   7.361   3.251  0.1691 -0.2423 -0.5655
 3137THY    HP578412   9.760   7.461   3.296  0.3881  0.8643 -2.9279
 3137THY    HP678413   9.766   7.287   3.331  0.5795 -1.8936 -2.1127
 3137THY    HP778414   9.824   7.342   3.171  1.0661 -0.0821  0.1860
 3137THY    CA378415   9.660   7.344   2.945 -0.1768  0.1059  0.1140
 3137THY    HA378416   9.710   7.248   2.957 -0.5321 -0.2098 -0.8030
 3137THY    CA478417   9.647   7.404   2.817  0.6566  0.7247 -0.2235
 3137THY    HA478418   9.681   7.348   2.731 -2.0225  1.4813 -1.8972
 3137THY    CA578419   9.581   7.528   2.799  0.3013 -0.1346 -0.4708
 3137THY    CM178420   9.562   7.589   2.660  0.2934  0.4949  1.1590
 3137THY    HM178421   9.457   7.620   2.657  0.1353  0.3343  3.5969
 3137THY    HM278422   9.632   7.672   2.643  1.7730 -1.2079 -2.0209
 3137THY    HM378423   9.583   7.510   2.586  0.0277  0.0331  1.5759
 3137THY    CA678424   9.530   7.593   2.908  0.3143  0.2560  0.4509
 3137THY    HA678425   9.469   7.683   2.901  1.1779  0.7657 -0.9508
 3138THY      O78426   2.887   7.627   5.069 -0.6350  0.5323 -0.3238
 3138THY     HO78427   2.980   7.625   5.040 -0.6995  0.0549 -0.5144
 3138THY    CA178428   2.866   7.504   5.128  0.5854 -0.3872 -0.2976
 3138THY    CA278429   2.735   7.453   5.135 -0.5484  0.8846 -0.0963
 3138THY    CP178430   2.616   7.525   5.066 -0.3657  0.0716 -0.3473
 3138THY    HP178431   2.645   7.622   5.022 -0.7163  0.0202 -0.6943
 3138THY    CP278432   2.562   7.440   4.947 -0.0110 -1.3019 -0.4645
 3138THY    HP278433   2.642   7.438   4.873 -1.2486 -2.1097 -1.8368
 3138THY    HP378434   2.546   7.336   4.977 -1.0311 -1.5473 -1.7903
 3138THY    HP478435   2.466   7.474   4.905 -0.2623 -0.9456  0.3815
 3138THY    CP378436   2.503   7.546   5.172 -0.2897 -0.0502 -0.2937
 3138THY    HP578437   2.429   7.621   5.142 -2.3331 -0.7053  2.7103
 3138THY    HP678438   2.445   7.456   5.196 -0.5549  0.2201  0.0921
 3138THY    HP778439   2.557   7.584   5.259 -0.2874  0.5904 -0.5671
 3138THY    CA378440   2.722   7.328   5.199  0.1905 -0.1991 -0.0937
 3138THY    HA378441   2.624   7.283   5.212 -0.2122  1.0981  1.8239
 3138THY    CA478442   2.825   7.261   5.256 -0.3206  0.5174 -0.7909
 3138THY    HA478443   2.817   7.168   5.312 -1.0839  0.7703 -0.4680
 3138THY    CA578444   2.949   7.319   5.250 -0.5308  0.0517 -0.0573
 3138THY    CM178445   3.058   7.247   5.310  0.0124 -0.1737  0.0001
 3138THY    HM178446   3.126   7.323   5.351  0.5368  0.4420 -1.8654
 3138THY    HM278447   3.011   7.193   5.393  0.8732 -2.2879 -0.8070
 3138THY    HM378448   3.113   7.174   5.249  0.5344 -0.3799  0.6973
 3138THY    CA678449   2.973   7.445   5.185  0.0705  0.0197  0.6821
 3138THY    HA678450   3.071   7.491   5.186 -0.3343  0.9189  1.6133
 3139THY      O78451   6.104   4.559   9.485  0.5060 -0.5032 -0.1644
 3139THY     HO78452   6.109   4.569   9.389  0.2701 -0.3669 -0.1626
 3139THY    CA178453   6.100   4.685   9.536  0.6446 -0.4162  0.2566
 3139THY    CA278454   6.161   4.724   9.656 -0.7582  0.3366  0.0079
 3139THY    CP178455   6.221   4.620   9.755  0.6033  0.3173 -0.2807
 3139THY    HP178456   6.216   4.521   9.707  1.0898 -0.3429  0.9855
 3139THY    CP278457   6.375   4.646   9.779  0.6297  0.5071  0.0853
 3139THY    HP278458   6.430   4.649   9.684  0.0438 -0.9042 -0.3218
 3139THY    HP378459   6.385   4.747   9.820 -0.2152  0.0124  1.5874
 3139THY    HP478460   6.408   4.560   9.838 -0.6625  0.2252  0.4362
 3139THY    CP378461   6.139   4.615   9.883 -0.0410  0.1273  0.4057
 3139THY    HP578462   6.110   4.713   9.922 -3.2050 -0.5501  0.0084
 3139THY    HP678463   6.042   4.565   9.871 -0.5208  1.3283 -1.1174
 3139THY    HP778464   6.204   4.562   9.953 -1.7726 -2.7983 -0.0562
 3139THY    CA378465   6.171   4.858   9.684 -0.0139 -0.4646  0.3476
 3139THY    HA378466   6.223   4.887   9.775  2.3195 -1.0062 -0.7464
 3139THY    CA478467   6.119   4.959   9.603 -0.2896 -0.2291  0.8104
 3139THY    HA478468   6.125   5.064   9.630 -1.2527 -0.3346  1.5006
 3139THY    CA578469   6.055   4.918   9.485  0.3924 -0.9199  0.0171
 3139THY    CM178470   5.986   5.019   9.393 -0.3107  0.1514  0.5157
 3139THY    HM178471   5.889   4.983   9.357  0.6995 -0.2081 -2.0138
 3139THY    HM278472   5.983   5.115   9.445 -0.5071  0.3208  0.1926
 3139THY    HM378473   6.050   5.038   9.306  0.8308 -1.4671  0.9626
 3139THY    CA678474   6.050   4.782   9.452 -0.1794 -0.4849  0.4375
 3139THY    HA678475   6.020   4.747   9.353  4.5090 -0.9711 -1.0472
 3140THY      O78476   8.514   7.600   9.748 -0.5245  0.1033  0.2901
 3140THY     HO78477   8.489   7.689   9.778  2.8138  1.5907 -0.9303
 3140THY    CA178478   8.636   7.623   9.696 -0.1252  0.8700  0.7297
 3140THY    CA278479   8.709   7.521   9.633 -0.3678 -0.1274 -0.0657
 3140THY    CP178480   8.668   7.374   9.629  0.5250 -0.1094 -0.1198
 3140THY    HP178481   8.579   7.357   9.691  0.4804 -2.3574 -0.7027
 3140THY    CP278482   8.621   7.330   9.491 -0.0833 -0.4478 -1.1154
 3140THY    HP278483   8.532   7.382   9.455 -2.3802 -2.4746  1.2350
 3140THY    HP378484   8.701   7.357   9.421 -0.2272 -1.4703 -1.7005
 3140THY    HP478485   8.616   7.220   9.484 -2.9412 -0.4464 -0.4650
 3140THY    CP378486   8.780   7.295   9.675 -0.0776  0.4234 -0.2223
 3140THY    HP578487   8.835   7.348   9.755  0.4238 -2.5963  1.5903
 3140THY    HP678488   8.744   7.199   9.714 -1.0399  1.1473  0.7321
 3140THY    HP778489   8.859   7.289   9.600  1.0192 -0.7297  0.9748
 3140THY    CA378490   8.847   7.552   9.578 -0.1370  0.0044 -0.2466
 3140THY    HA378491   8.915   7.483   9.530  0.1353  0.3219 -0.3202
 3140THY    CA478492   8.893   7.686   9.594 -0.2244  0.1653  0.0465
 3140THY    HA478493   8.989   7.719   9.558  0.6778 -0.2083  1.9553
 3140THY    CA578494   8.811   7.777   9.665 -0.0295 -0.2249 -0.3500
 3140THY    CM178495   8.881   7.917   9.691  0.2307  0.0260  0.6194
 3140THY    HM178496   8.961   7.955   9.627  1.2656 -0.8360  1.3848
 3140THY    HM278497   8.805   7.995   9.675 -0.9240 -1.0796  0.5031
 3140THY    HM378498   8.906   7.941   9.795  0.1376 -0.3046  0.7186
 3140THY    CA678499   8.685   7.743   9.722  0.1643 -0.5475  0.1171
 3140THY    HA678500   8.625   7.813   9.780  1.3809 -0.7516  1.7025
 3141THY      O78501   9.239   6.970   1.468 -0.0567  0.0343  0.6454
 3141THY     HO78502   9.307   6.929   1.413 -0.3565  2.0161 -1.3259
 3141THY    CA178503   9.122   6.954   1.396  0.2219  0.4805 -0.2404
 3141THY    CA278504   9.109   7.009   1.268  0.5242 -0.6087  0.6393
 3141THY    CP178505   9.202   7.116   1.220  0.2524 -0.3134 -0.4328
 3141THY    HP178506   9.288   7.118   1.288  1.0721 -1.0538 -1.4167
 3141THY    CP278507   9.254   7.076   1.083  0.0191  0.0688  0.4188
 3141THY    HP278508   9.172   7.093   1.013 -0.9487 -1.1996  1.1991
 3141THY    HP378509   9.332   7.151   1.065 -1.3327  1.5899  0.5792
 3141THY    HP478510   9.276   6.969   1.080  0.8564  0.2502 -0.4542
 3141THY    CP378511   9.136   7.257   1.231  0.7405  0.5253  0.3389
 3141THY    HP578512   9.108   7.276   1.335 -2.8664 -1.1603 -0.1870
 3141THY    HP678513   9.203   7.338   1.201 -0.2521  1.6858  1.1400
 3141THY    HP778514   9.060   7.282   1.157 -1.1363 -1.0999  1.6076
 3141THY    CA378515   9.000   6.974   1.184  0.4277 -0.5205 -0.0706
 3141THY    HA378516   8.974   7.025   1.091 -0.3612 -1.1533 -0.2071
 3141THY    CA478517   8.909   6.877   1.238 -0.5067 -0.0937  0.2412
 3141THY    HA478518   8.827   6.860   1.170 -0.5722  2.0406 -0.3015
 3141THY    CA578519   8.927   6.819   1.358 -0.0029 -0.7025 -0.4333
 3141THY    CM178520   8.854   6.699   1.402  0.1304 -0.3935  0.3804
 3141THY    HM178521   8.758   6.692   1.348  0.1777 -1.9886  0.4669
 3141THY    HM278522   8.907   6.611   1.366  0.0642 -0.3931  0.2797
 3141THY    HM378523   8.853   6.706   1.511 -1.7472  0.0473  0.3742
 3141THY    CA678524   9.031   6.858   1.437 -0.6924  0.6071 -0.4410
 3141THY    HA678525   9.045   6.800   1.528  0.9083 -1.4886 -1.9403
 3142THY      O78526   0.938   1.901   8.616  0.0084  0.3184  0.0066
 3142THY     HO78527   0.929   1.998   8.611 -3.7068  0.3290  2.6773
 3142THY    CA178528   0.855   1.866   8.710 -0.3713  0.0295  0.2355
 3142THY    CA278529   0.872   1.751   8.786 -0.5195  0.2857  0.7549
 3142THY    CP178530   0.999   1.662   8.757 -0.5004  0.0924  0.4349
 3142THY    HP178531   1.088   1.724   8.740  0.9809 -1.4540  2.0369
 3142THY    CP278532   1.043   1.569   8.868  0.1577 -0.2635 -0.3548
 3142THY    HP278533   0.979   1.482   8.887 -2.3053  1.6424  0.6262
 3142THY    HP378534   1.140   1.525   8.841  0.2798 -2.2036  2.7972
 3142THY    HP478535   1.041   1.632   8.957 -1.2099 -0.0347 -0.5240
 3142THY    CP378536   0.973   1.590   8.621  0.0934 -0.6819  0.2263
 3142THY    HP578537   1.056   1.526   8.589  1.0214  0.6520 -0.1483
 3142THY    HP678538   0.882   1.530   8.628  0.0881 -0.9541 -1.6912
 3142THY    HP778539   0.960   1.671   8.548  0.4830 -0.7233  0.1093
 3142THY    CA378540   0.772   1.708   8.875  0.7658  0.2572  0.3658
 3142THY    HA378541   0.774   1.611   8.922  4.3328 -0.4137 -0.7907
 3142THY    CA478542   0.657   1.790   8.882  0.4891  0.3297  0.2133
 3142THY    HA478543   0.578   1.750   8.944 -0.6807 -0.8422 -1.9297
 3142THY    CA578544   0.632   1.907   8.809 -0.5547  0.2834 -0.4633
 3142THY    CM178545   0.496   1.975   8.806 -0.5484 -0.6065  0.2742
 3142THY    HM178546   0.413   1.907   8.783 -0.0140 -1.7702  1.5815
 3142THY    HM278547   0.475   2.021   8.903 -1.9297 -0.9755  0.1743
 3142THY    HM378548   0.503   2.053   8.730 -1.7815  2.5305  3.1462
 3142THY    CA678549   0.740   1.941   8.724  0.2393  0.2810 -0.7626
 3142THY    HA678550   0.739   2.022   8.652  1.0119  0.7107 -0.3034
 3143THY      O78551   3.815   3.341   7.185  0.1666  0.4434  0.1867
 3143THY     HO78552   3.884   3.281   7.153  0.0746 -0.5194  1.6951
 3143THY    CA178553   3.748   3.257   7.266 -0.3233  0.2953 -0.2968
 3143THY    CA278554   3.616   3.283   7.311 -0.1591  0.5096  0.5169
 3143THY    CP178555   3.539   3.408   7.265  0.5380 -0.7763  0.1194
 3143THY    HP178556   3.593   3.476   7.197  1.4617 -0.0358  1.5373
 3143THY    CP278557   3.416   3.368   7.179 -0.3297  0.1049  0.2177
 3143THY    HP278558   3.353   3.311   7.248  0.9328  1.4454  2.6168
 3143THY    HP378559   3.358   3.454   7.145  0.5810 -0.1511 -2.1469
 3143THY    HP478560   3.438   3.309   7.089 -2.0846 -0.2777  0.0097
 3143THY    CP378561   3.501   3.486   7.394  1.0734 -0.2498 -0.6882
 3143THY    HP578562   3.437   3.428   7.460  0.6466  2.7121  1.7394
 3143THY    HP678563   3.598   3.491   7.446 -0.7958 -1.4356  3.2676
 3143THY    HP778564   3.458   3.585   7.375 -1.5174 -0.8520  1.4432
 3143THY    CA378565   3.547   3.189   7.390 -1.0966 -0.3096 -0.0378
 3143THY    HA378566   3.445   3.211   7.417 -0.6510  1.4875  0.3174
 3143THY    CA478567   3.613   3.078   7.437  0.1445 -0.1790  0.0165
 3143THY    HA478568   3.571   3.007   7.508 -0.7596 -0.9605 -1.2579
 3143THY    CA578569   3.746   3.056   7.395  0.4777  0.0800 -1.3009
 3143THY    CM178570   3.819   2.934   7.447 -0.0288 -0.3572  0.1908
 3143THY    HM178571   3.748   2.851   7.442 -2.0100  1.3102 -0.9519
 3143THY    HM278572   3.902   2.916   7.378  0.3976  0.5947  0.4256
 3143THY    HM378573   3.852   2.948   7.551  0.9227  2.0674 -0.3648
 3143THY    CA678574   3.809   3.141   7.311 -0.3762 -1.0643  0.2436
 3143THY    HA678575   3.909   3.117   7.275  0.6485  0.2605  1.9960
 3144THY      O78576   0.781   0.776   3.019 -0.6778 -0.0351  0.1273
 3144THY     HO78577   0.782   0.830   3.100  0.4921  0.3445 -0.1327
 3144THY    CA178578   0.711   0.838   2.928  0.9853 -0.5925 -0.2584
 3144THY    CA278579   0.693   0.791   2.798  0.0932 -0.0454  0.1363
 3144THY    CP178580   0.722   0.646   2.761 -0.3259  0.2348  0.0029
 3144THY    HP178581   0.813   0.612   2.811 -0.8037 -1.6968 -0.3424
 3144THY    CP278582   0.609   0.549   2.805  0.4016 -0.2360  0.4124
 3144THY    HP278583   0.616   0.452   2.754  0.7813 -0.2590  0.5113
 3144THY    HP378584   0.620   0.535   2.913 -0.8896 -1.1386  0.4546
 3144THY    HP478585   0.509   0.585   2.776  1.1905  1.0133 -0.8617
 3144THY    CP378586   0.744   0.631   2.606  0.0271 -0.1828 -0.3938
 3144THY    HP578587   0.651   0.649   2.550  0.7340 -2.9062 -2.6992
 3144THY    HP678588   0.809   0.715   2.578  0.4989 -0.5450 -0.4081
 3144THY    HP778589   0.778   0.528   2.589 -1.3765 -0.8734  0.7515
 3144THY    CA378590   0.627   0.880   2.715 -0.6488 -0.0277  0.4115
 3144THY    HA378591   0.589   0.862   2.615 -1.1478  2.5563  0.0594
 3144THY    CA478592   0.576   1.003   2.762 -0.0219  0.1839 -0.0751
 3144THY    HA478593   0.522   1.064   2.690 -1.2855  1.1799  1.6544
 3144THY    CA578594   0.594   1.044   2.891 -0.1228  0.7452 -0.1509
 3144THY    CM178595   0.529   1.174   2.932 -0.4787  0.0463  0.1952
 3144THY    HM178596   0.536   1.177   3.041  0.4019 -1.7124  0.2292
 3144THY    HM278597   0.586   1.260   2.896  0.8415 -0.7398  0.3556
 3144THY    HM378598   0.424   1.189   2.903 -1.0571 -1.4075  1.3817
 3144THY    CA678599   0.667   0.962   2.971 -0.8205  0.3065  0.4602
 3144THY    HA678600   0.699   1.001   3.067 -1.8807  0.5243  0.7309
 3145THY      O78601   9.113   6.450   7.252  0.1613  0.3891  0.3973
 3145THY     HO78602   9.192   6.401   7.222 -0.5532 -1.3738  1.2189
 3145THY    CA178603   9.123   6.553   7.175  0.5389 -0.1895 -0.3687
 3145THY    CA278604   9.036   6.660   7.180  1.1872  0.1097  0.4899
 3145THY    CP178605   8.907   6.649   7.257  0.3572 -0.0323  0.0480
 3145THY    HP178606   8.907   6.568   7.330 -0.4825  0.7366  0.9237
 3145THY    CP278607   8.887   6.765   7.352 -0.4051 -0.3688  0.3667
 3145THY    HP278608   8.810   6.745   7.427  0.3339  0.7918  1.4794
 3145THY    HP378609   8.975   6.805   7.404 -1.5213  1.9290  0.6585
 3145THY    HP478610   8.852   6.852   7.295  0.9170 -0.9079 -1.3488
 3145THY    CP378611   8.783   6.634   7.166  0.5296 -0.0288  0.2321
 3145THY    HP578612   8.779   6.714   7.091 -0.4152 -0.3821 -0.1080
 3145THY    HP678613   8.776   6.537   7.116  3.0115 -1.7706  2.9528
 3145THY    HP778614   8.697   6.639   7.235  1.1180 -1.0759  1.0744
 3145THY    CA378615   9.055   6.768   7.088  0.0284  0.4407 -0.0278
 3145THY    HA378616   8.978   6.842   7.069  0.4669  0.2854 -2.9707
 3145THY    CA478617   9.171   6.772   7.014  1.0527 -0.1589 -0.7975
 3145THY    HA478618   9.185   6.860   6.952  1.8238 -0.2075 -0.6985
 3145THY    CA578619   9.259   6.667   7.014 -0.0822 -1.1672  0.5117
 3145THY    CM178620   9.375   6.681   6.922 -0.4074 -0.4892  0.2717
 3145THY    HM178621   9.404   6.587   6.873 -0.0971 -0.4963  0.4665
 3145THY    HM278622   9.343   6.747   6.841  1.1852  0.6572  0.5256
 3145THY    HM378623   9.465   6.726   6.966  0.1802 -1.2396 -0.1436
 3145THY    CA678624   9.230   6.555   7.083  1.0166  0.9550 -0.1604
 3145THY    HA678625   9.293   6.467   7.072  1.1773  1.0397  0.0628
 3146THY      O78626   7.835   2.371   3.637 -0.2297 -0.1684  0.0800
 3146THY     HO78627   7.803   2.461   3.655 -1.0186 -0.0125 -1.7651
 3146THY    CA178628   7.961   2.351   3.607 -0.9977 -0.0900 -0.1724
 3146THY    CA278629   8.025   2.218   3.580  0.7267 -0.5136  0.5406
 3146THY    CP178630   7.925   2.097   3.554 -0.7384 -0.0821  0.2119
 3146THY    HP178631   7.852   2.115   3.634 -0.9346  0.8127 -0.1590
 3146THY    CP278632   7.839   2.111   3.429  0.1028  0.2399  0.3398
 3146THY    HP278633   7.787   2.208   3.427 -1.5365 -0.6174 -0.0450
 3146THY    HP378634   7.894   2.095   3.336  0.6397  1.6164  0.3900
 3146THY    HP478635   7.758   2.037   3.432 -1.2874  1.7055  0.6875
 3146THY    CP378636   7.975   1.949   3.568  0.5829 -0.8698  0.2621
 3146THY    HP578637   7.890   1.883   3.549 -0.1891 -0.6524  2.6073
 3146THY    HP678638   8.061   1.934   3.501  0.1114  0.9117 -0.8025
 3146THY    HP778639   7.998   1.933   3.674  1.1329  0.8169  0.4272
 3146THY    CA378640   8.162   2.198   3.587 -0.8355  0.0252 -0.6931
 3146THY    HA378641   8.207   2.100   3.579 -1.1858 -0.1510 -0.5259
 3146THY    CA478642   8.241   2.310   3.615 -0.3745 -0.1095  1.1445
 3146THY    HA478643   8.348   2.291   3.616 -0.0656  0.6228 -2.8644
 3146THY    CA578644   8.187   2.434   3.629 -0.0997 -0.3942  0.2742
 3146THY    CM178645   8.272   2.549   3.663  0.1461 -0.2503  0.0374
 3146THY    HM178646   8.353   2.561   3.590  0.0565  1.6016  0.1855
 3146THY    HM278647   8.228   2.649   3.658  2.6122  0.9306 -0.0233
 3146THY    HM378648   8.311   2.546   3.765 -0.3682  0.8592  0.2740
 3146THY    CA678649   8.048   2.456   3.624 -1.5972 -0.0746  0.0416
 3146THY    HA678650   8.011   2.557   3.640  1.7524  1.5450 -1.3352
 3147THY      O78651   3.569   1.243   1.981 -0.1116  0.0899  0.3375
 3147THY     HO78652   3.486   1.282   1.948 -0.4138  0.4078  1.4380
 3147THY    CA178653   3.636   1.333   2.057  0.1710 -0.2742  0.4643
 3147THY    CA278654   3.774   1.339   2.072  0.3735 -0.2391 -0.3707
 3147THY    CP178655   3.853   1.244   1.984 -0.7229  0.5098 -0.3688
 3147THY    HP178656   3.790   1.157   1.968  0.0879  0.0709 -1.2682
 3147THY    CP278657   3.888   1.304   1.857 -0.3914 -0.5733  0.4248
 3147THY    HP278658   3.797   1.360   1.835 -2.2994 -2.4626  2.8276
 3147THY    HP378659   3.974   1.370   1.870  1.1461 -2.2073 -0.9154
 3147THY    HP478660   3.910   1.233   1.776 -0.7272  0.6874 -0.7942
 3147THY    CP378661   3.977   1.198   2.059  0.3899 -0.1714 -0.6856
 3147THY    HP578662   4.046   1.281   2.076 -0.4554  0.3429  0.3768
 3147THY    HP678663   3.948   1.149   2.153 -4.1857 -0.9608 -2.2156
 3147THY    HP778664   4.019   1.120   1.995 -0.9334 -1.0846 -0.4855
 3147THY    CA378665   3.828   1.417   2.181  0.2725  0.0945 -0.2061
 3147THY    HA378666   3.930   1.399   2.213  0.0677  0.3581  0.6278
 3147THY    CA478667   3.741   1.488   2.263  0.1775 -1.1094  0.7528
 3147THY    HA478668   3.778   1.528   2.358  1.9103 -1.8675  0.4379
 3147THY    CA578669   3.603   1.484   2.230 -0.6386 -0.3528 -0.2409
 3147THY    CM178670   3.511   1.575   2.309 -0.2943 -0.0223  0.1298
 3147THY    HM178671   3.440   1.522   2.373  0.8051 -0.5481  0.9544
 3147THY    HM278672   3.565   1.634   2.384 -0.7843  0.9183 -0.2447
 3147THY    HM378673   3.453   1.648   2.253 -0.6864  0.2949  0.9403
 3147THY    CA678674   3.551   1.411   2.123 -0.7806  0.0790 -0.1574
 3147THY    HA678675   3.444   1.399   2.113 -0.9457 -0.1534  1.5884
 3148THY      O78676   5.278   4.231   3.974  0.1191  0.0318  0.6751
 3148THY     HO78677   5.288   4.296   4.045 -0.0427 -0.1696  0.8805
 3148THY    CA178678   5.146   4.214   3.961 -0.1032 -0.3706  0.2631
 3148THY    CA278679   5.085   4.084   3.955  0.3407  0.1766  0.1049
 3148THY    CP178680   5.163   3.950   3.932  0.2551  0.8092  0.0795
 3148THY    HP178681   5.264   3.976   3.965  1.6266 -2.3954 -1.2229
 3148THY    CP278682   5.102   3.850   4.029  0.9290  0.0785  0.2884
 3148THY    HP278683   5.074   3.892   4.127  2.0060  0.3672  0.4886
 3148THY    HP378684   5.010   3.821   3.979  1.4299  0.0736 -0.6525
 3148THY    HP478685   5.171   3.765   4.039  0.9208 -0.1081 -1.0873
 3148THY    CP378686   5.160   3.902   3.790  0.3081  0.3419  0.6634
 3148THY    HP578687   5.205   3.978   3.726  1.3442  1.5733  2.7361
 3148THY    HP678688   5.217   3.809   3.776  0.5838  0.2300  2.3209
 3148THY    HP778689   5.056   3.890   3.757  0.7831 -0.9572 -0.4641
 3148THY    CA378690   4.938   4.086   3.947  0.3496  0.4034  0.4039
 3148THY    HA378691   4.895   3.987   3.936 -0.0512  0.4875  1.1466
 3148THY    CA478692   4.861   4.206   3.937 -0.5642 -0.2149 -0.0254
 3148THY    HA478693   4.753   4.192   3.945 -0.6352  1.1627  1.9068
 3148THY    CA578694   4.930   4.330   3.940 -0.8524 -0.0816  0.5183
 3148THY    CM178695   4.846   4.452   3.916  0.6319  0.1663 -0.1505
 3148THY    HM178696   4.800   4.505   4.000 -2.1684  2.9851 -3.1349
 3148THY    HM278697   4.911   4.521   3.861 -0.3318  0.5256 -0.8700
 3148THY    HM378698   4.764   4.424   3.848  0.3175  0.6974  0.0051
 3148THY    CA678699   5.073   4.336   3.952 -0.0003  0.5174  0.6933
 3148THY    HA678700   5.116   4.434   3.969  0.5325  0.1037  1.8180
 3149THY      O78701   1.071   5.614   4.358  0.0609  0.0956 -0.2388
 3149THY     HO78702   1.087   5.589   4.265  0.5542 -0.0308 -0.1254
 3149THY    CA178703   1.020   5.737   4.347  0.3753  0.4056  0.1433
 3149THY    CA278704   0.987   5.813   4.461 -0.2118  0.0900 -0.2556
 3149THY    CP178705   1.004   5.763   4.609  0.7335  0.4543  0.2935
 3149THY    HP178706   1.081   5.686   4.600  1.6972  1.3863  0.3305
 3149THY    CP278707   1.045   5.862   4.708 -0.6913 -0.0119 -0.0998
 3149THY    HP278708   1.086   5.819   4.799 -1.2462  2.4591  1.4122
 3149THY    HP378709   1.128   5.920   4.666  0.9651 -2.3120 -0.1124
 3149THY    HP478710   0.957   5.922   4.738 -0.1170  0.4859  0.6238
 3149THY    CP378711   0.867   5.713   4.656 -0.8507  0.3128  0.6045
 3149THY    HP578712   0.838   5.635   4.585  1.2078  0.0641 -0.0257
 3149THY    HP678713   0.877   5.667   4.756 -2.0137 -0.1787  0.5154
 3149THY    HP778714   0.789   5.790   4.656 -0.2451  0.9320  1.2030
 3149THY    CA378715   0.929   5.946   4.439  0.6934  0.4168 -0.3325
 3149THY    HA378716   0.895   5.993   4.530 -1.1850  0.0899 -0.8226
 3149THY    CA478717   0.899   5.991   4.307  0.4007  0.7345  0.1618
 3149THY    HA478718   0.842   6.082   4.294 -3.6460 -1.4245  1.2927
 3149THY    CA578719   0.931   5.912   4.195  0.9752 -0.2512 -0.3744
 3149THY    CM178720   0.893   5.961   4.055  0.3333 -0.1103  0.1913
 3149THY    HM178721   0.981   5.944   3.992  0.2824  1.6146 -0.4074
 3149THY    HM278722   0.806   5.921   4.003  0.8677  0.2044 -0.9908
 3149THY    HM378723   0.877   6.070   4.059  2.3191  0.2655 -0.5326
 3149THY    CA678724   0.985   5.786   4.221 -0.1695  0.7052  0.1338
 3149THY    HA678725   0.998   5.722   4.134 -3.2484 -0.0768  0.1411
 3150THY      O78726   7.564   1.645   0.582 -0.3283 -0.0859 -0.0787
 3150THY     HO78727   7.527   1.732   0.558 -1.0485 -0.2559  0.3911
 3150THY    CA178728   7.577   1.644   0.716 -0.2426  0.0436  0.1426
 3150THY    CA278729   7.615   1.525   0.783  0.0295  0.2052  0.5185
 3150THY    CP178730   7.659   1.406   0.697 -0.4842  0.6644 -0.1071
 3150THY    HP178731   7.624   1.412   0.593  0.5454 -2.1663 -0.7185
 3150THY    CP278732   7.807   1.395   0.687 -0.1056  0.2525 -0.3434
 3150THY    HP278733   7.856   1.413   0.783 -1.7231  0.7606  0.4159
 3150THY    HP378734   7.846   1.300   0.648  0.0078  0.3422 -0.4463
 3150THY    HP478735   7.840   1.479   0.625 -0.1562 -0.0437 -0.7773
 3150THY    CP378736   7.600   1.269   0.749  0.3087  0.2578 -0.4724
 3150THY    HP578737   7.492   1.271   0.766  0.4067 -4.3616  2.5273
 3150THY    HP678738   7.621   1.185   0.681 -0.9258 -0.3408 -0.1293
 3150THY    HP778739   7.646   1.233   0.842  2.6769 -1.0734 -2.0377
 3150THY    CA378740   7.630   1.522   0.922  0.0893  0.4132  0.1771
 3150THY    HA378741   7.685   1.448   0.979 -0.3017  0.8414  1.1320
 3150THY    CA478742   7.578   1.634   0.996 -0.1968  0.0218 -0.3444
 3150THY    HA478743   7.598   1.636   1.103  0.3917 -0.3754 -0.4391
 3150THY    CA578744   7.514   1.741   0.930  0.1935  0.2413  0.0982
 3150THY    CM178745   7.452   1.848   1.018  0.3436  0.2932 -0.0603
 3150THY    HM178746   7.528   1.911   1.065 -0.7290  0.4914  1.4604
 3150THY    HM278747   7.396   1.914   0.950 -0.2350 -1.2111 -1.1166
 3150THY    HM378748   7.388   1.804   1.095 -2.2872  0.6750 -1.8655
 3150THY    CA678749   7.525   1.748   0.790  0.5935  0.3776 -0.0143
 3150THY    HA678750   7.474   1.830   0.739 -0.3213  1.1161  1.9730
 3151THY      O78751   6.263   4.173   2.411  0.4735  0.1051  0.8141
 3151THY     HO78752   6.277   4.202   2.319 -0.6844 -1.5512  0.0705
 3151THY    CA178753   6.382   4.131   2.458 -0.3495 -0.1270 -0.1080
 3151THY    CA278754   6.420   4.139   2.593  0.9639  0.2408  1.2500
 3151THY    CP178755   6.311   4.173   2.689 -0.1565 -0.6873 -0.3928
 3151THY    HP178756   6.211   4.172   2.644 -0.9024  0.7904  1.1126
 3151THY    CP278757   6.309   4.069   2.804 -1.2036  0.5976 -0.6708
 3151THY    HP278758   6.255   4.102   2.894  0.8044  1.3690  0.3119
 3151THY    HP378759   6.257   3.980   2.768 -2.0137  0.9991 -0.5101
 3151THY    HP478760   6.411   4.058   2.844 -1.9290  2.1759  1.9097
 3151THY    CP378761   6.337   4.319   2.743  0.2264 -0.7333  0.4295
 3151THY    HP578762   6.308   4.394   2.668  1.5284 -0.5432  0.0866
 3151THY    HP678763   6.281   4.336   2.835 -0.2484  0.5034 -0.0666
 3151THY    HP778764   6.445   4.335   2.755  0.0228  0.6424  0.5757
 3151THY    CA378765   6.552   4.097   2.623 -0.4298  0.1177 -0.8799
 3151THY    HA378766   6.579   4.094   2.728 -0.5273  2.9604 -0.6985
 3151THY    CA478767   6.639   4.050   2.529 -0.0939 -0.6130 -0.5052
 3151THY    HA478768   6.738   4.015   2.556 -0.5894 -0.2962  1.9433
 3151THY    CA578769   6.596   4.042   2.398 -0.4637 -0.7517  0.5291
 3151THY    CM178770   6.677   3.980   2.287 -0.0821  0.1293  0.5695
 3151THY    HM178771   6.677   4.051   2.204  0.5083  0.0618  0.5055
 3151THY    HM278772   6.783   3.955   2.303 -0.2893 -0.7638  0.6144
 3151THY    HM378773   6.623   3.894   2.246  1.2933 -0.1615 -0.7196
 3151THY    CA678774   6.467   4.081   2.369  0.0135 -0.0490 -0.9536
 3151THY    HA678775   6.432   4.074   2.266  0.3601 -2.9110 -0.9623
 3152THY      O78776   8.603   0.010   0.795  0.4656  0.4948 -0.2786
 3152THY     HO78777   8.593   0.088   0.852  1.5797  0.8237 -0.5180
 3152THY    CA178778   8.535  -0.095   0.858 -0.2622 -0.8819 -0.4815
 3152THY    CA278779   8.503  -0.215   0.793  0.3252  1.0619 -0.0833
 3152THY    CP178780   8.537  -0.231   0.645  0.5783 -0.7133  0.0843
 3152THY    HP178781   8.595  -0.148   0.601 -1.2628  1.2177  1.1556
 3152THY    CP278782   8.616  -0.359   0.613 -0.1308 -0.5269 -0.0191
 3152THY    HP278783   8.699  -0.367   0.684 -0.2862 -0.8550  0.1292
 3152THY    HP378784   8.552  -0.447   0.629 -1.2625  0.5374  1.5746
 3152THY    HP478785   8.660  -0.360   0.512 -0.9146 -3.2134 -0.4149
 3152THY    CP378786   8.409  -0.229   0.559  0.0957 -0.4668 -0.0128
 3152THY    HP578787   8.344  -0.315   0.577 -0.7364 -0.0581 -0.9384
 3152THY    HP678788   8.354  -0.137   0.581 -1.3397 -1.6123  1.4046
 3152THY    HP778789   8.439  -0.223   0.454 -2.5043  0.0682 -0.7937
 3152THY    CA378790   8.437  -0.322   0.861 -0.2532  0.6058  0.3319
 3152THY    HA378791   8.389  -0.403   0.807 -0.1298  0.8187 -0.0990
 3152THY    CA478792   8.410  -0.305   1.001 -0.4251 -0.0711  0.1857
 3152THY    HA478793   8.365  -0.385   1.059 -1.6634  2.1928  2.5543
 3152THY    CA578794   8.465  -0.194   1.067  0.0334  0.5655 -0.3628
 3152THY    CM178795   8.470  -0.185   1.220  0.3236 -0.3762  0.9023
 3152THY    HM178796   8.568  -0.149   1.251 -0.2451 -0.4366  2.8782
 3152THY    HM278797   8.393  -0.123   1.268  1.6073 -0.8298  3.7350
 3152THY    HM378798   8.459  -0.281   1.272  1.5742  0.5357  2.9458
 3152THY    CA678799   8.534  -0.089   1.000 -0.4831  0.8001  0.0651
 3152THY    HA678800   8.575  -0.007   1.058 -1.1672  1.6456 -0.6122
 3153THY      O78801   4.370   0.963   3.231  0.1526 -0.4690 -0.8750
 3153THY     HO78802   4.360   0.916   3.146  0.8907  2.3132 -2.6197
 3153THY    CA178803   4.460   0.887   3.309  0.5474 -0.1766 -1.6027
 3153THY    CA278804   4.440   0.864   3.454 -0.5684  0.2662  0.3539
 3153THY    CP178805   4.314   0.925   3.524  0.6272 -0.6915  0.1267
 3153THY    HP178806   4.257   0.998   3.467 -1.1880 -2.0065  0.1439
 3153THY    CP278807   4.212   0.817   3.581 -0.1888 -0.0235  0.6063
 3153THY    HP278808   4.177   0.753   3.500  0.9343 -1.4902  1.2333
 3153THY    HP378809   4.255   0.743   3.649 -1.2113 -0.9386  0.2850
 3153THY    HP478810   4.119   0.857   3.622 -0.9227 -1.1789  0.1246
 3153THY    CP378811   4.351   1.004   3.656 -0.6746 -0.3071 -0.2813
 3153THY    HP578812   4.428   1.075   3.624 -0.3054 -0.9910 -0.9537
 3153THY    HP678813   4.262   1.044   3.705 -2.3344 -2.3256 -1.4957
 3153THY    HP778814   4.388   0.926   3.724 -0.7385  1.0382  1.3501
 3153THY    CA378815   4.541   0.789   3.524  0.1484 -0.0149 -0.1568
 3153THY    HA378816   4.514   0.777   3.629  0.9990  2.2318  0.3822
 3153THY    CA478817   4.653   0.736   3.460  0.0587 -0.3929  0.6004
 3153THY    HA478818   4.714   0.661   3.510  0.4881  0.2330  1.0227
 3153THY    CA578819   4.671   0.764   3.325 -0.2099  0.0416  0.4348
 3153THY    CM178820   4.790   0.704   3.257 -0.1129  0.0049  0.2498
 3153THY    HM178821   4.774   0.598   3.234 -2.3008  0.3835 -0.1609
 3153THY    HM278822   4.826   0.757   3.168 -1.7284  1.9100  0.6820
 3153THY    HM378823   4.881   0.704   3.319  0.5147 -0.3848 -0.6457
 3153THY    CA678824   4.583   0.842   3.255 -0.2725  0.3421  0.6093
 3153THY    HA678825   4.599   0.865   3.150  0.2662 -0.0427  0.6024
 3154THY      O78826   7.841   2.935   8.593 -0.1251 -0.0989 -0.3124
 3154THY     HO78827   7.787   2.998   8.543 -0.8344  0.3499  0.9779
 3154THY    CA178828   7.926   2.887   8.500  0.9266 -0.2926 -0.3776
 3154THY    CA278829   8.047   2.829   8.531  0.0102 -0.6633  0.2533
 3154THY    CP178830   8.071   2.784   8.677 -0.3970  0.6448  0.2808
 3154THY    HP178831   7.998   2.816   8.751  1.1364 -0.2084  2.2704
 3154THY    CP278832   8.067   2.629   8.688 -0.8957  0.4075  0.0490
 3154THY    HP278833   7.976   2.586   8.645 -0.3000 -0.5861 -0.2586
 3154THY    HP378834   8.151   2.576   8.641 -1.4999 -1.3847  0.9307
 3154THY    HP478835   8.079   2.600   8.793 -1.4332  1.3402  0.3777
 3154THY    CP378836   8.203   2.829   8.741  0.1561 -0.5715  0.2600
 3154THY    HP578837   8.195   2.937   8.756 -0.3706 -0.5675 -0.0075
 3154THY    HP678838   8.216   2.788   8.841  0.3034  1.0215  0.9262
 3154THY    HP778839   8.296   2.813   8.686 -0.7719  0.2477 -1.6560
 3154THY    CA378840   8.147   2.805   8.431 -0.0303 -0.1200 -0.3233
 3154THY    HA378841   8.242   2.755   8.447 -0.7551 -1.2582  0.6230
 3154THY    CA478842   8.107   2.826   8.296  0.0192  0.1090 -0.0964
 3154THY    HA478843   8.171   2.797   8.212  2.5673  3.6012  0.4184
 3154THY    CA578844   7.983   2.885   8.260  0.1390 -0.0428 -0.2797
 3154THY    CM178845   7.929   2.896   8.123 -0.5950 -0.6563  0.0813
 3154THY    HM178846   7.881   2.803   8.091  0.3871 -1.2717  0.3690
 3154THY    HM278847   7.866   2.986   8.123 -0.1389 -0.2610  2.4829
 3154THY    HM378848   8.016   2.908   8.058 -0.3147  0.4245  0.6263
 3154THY    CA678849   7.898   2.922   8.371  0.1595 -0.5734  0.6285
 3154THY    HA678850   7.800   2.964   8.349 -0.5092 -2.1577  0.4256
 3155THY      O78851   7.971   4.169   9.374  0.2918 -0.0112 -0.5648
 3155THY     HO78852   8.046   4.231   9.378 -0.3598  0.7626  0.1553
 3155THY    CA178853   7.888   4.216   9.471  0.7508 -0.5095  0.1122
 3155THY    CA278854   7.752   4.180   9.480  0.4976 -0.3186  0.2553
 3155THY    CP178855   7.688   4.092   9.371  0.0346  0.6766  0.5922
 3155THY    HP178856   7.749   4.082   9.281  1.2499 -1.5529  1.5828
 3155THY    CP278857   7.676   3.946   9.417  0.3456  0.7001 -0.6022
 3155THY    HP278858   7.603   3.945   9.499  0.1374  0.6609 -0.7881
 3155THY    HP378859   7.640   3.882   9.336 -1.8509 -0.7208  1.3434
 3155THY    HP478860   7.765   3.897   9.459  0.3889  1.3811  0.1359
 3155THY    CP378861   7.552   4.145   9.324  0.6937  0.7531 -0.1337
 3155THY    HP578862   7.513   4.107   9.229 -1.4237  0.3909  0.8167
 3155THY    HP678863   7.469   4.123   9.393 -0.0614  0.2707 -1.1593
 3155THY    HP778864   7.571   4.252   9.313 -1.7138  1.1611 -0.8060
 3155THY    CA378865   7.675   4.228   9.586 -0.0486  0.0824  0.3320
 3155THY    HA378866   7.569   4.211   9.600  0.2966 -2.0151  0.8194
 3155THY    CA478867   7.732   4.316   9.670 -0.0669  0.0534 -0.3176
 3155THY    HA478868   7.672   4.353   9.752 -1.2166 -2.0586 -0.1322
 3155THY    CA578869   7.870   4.339   9.674  0.5424 -0.0818 -0.7456
 3155THY    CM178870   7.940   4.399   9.800  0.0914  0.1288  0.2344
 3155THY    HM178871   7.883   4.484   9.841  0.4439 -0.1936  1.4318
 3155THY    HM278872   7.947   4.333   9.887  4.0757  0.4368  0.3470
 3155THY    HM378873   8.037   4.447   9.781  0.3514  1.2875  3.7504
 3155THY    CA678874   7.943   4.292   9.578 -0.7745  0.6413  0.2182
 3155THY    HA678875   8.051   4.291   9.581 -0.7484 -0.9821 -0.6345
 3156THY      O78876   4.572   9.144   4.553  0.7139 -0.7091 -0.2292
 3156THY     HO78877   4.661   9.119   4.523  1.2790  1.8948 -0.9778
 3156THY    CA178878   4.524   9.051   4.638  0.3158 -0.7092  0.8330
 3156THY    CA278879   4.388   9.036   4.664 -0.0039  0.3210  0.1790
 3156THY    CP178880   4.283   9.129   4.600 -0.6658 -0.7141  0.0529
 3156THY    HP178881   4.326   9.208   4.537  0.9044  0.0377  1.9753
 3156THY    CP278882   4.189   9.050   4.512  0.4937  0.3466  0.1148
 3156THY    HP278883   4.127   8.983   4.573 -0.7001  1.7751  0.5363
 3156THY    HP378884   4.120   9.108   4.449 -0.3904 -0.5791  0.2096
 3156THY    HP478885   4.252   8.982   4.454  0.7265  0.1673  0.5762
 3156THY    CP378886   4.222   9.222   4.709 -0.7048 -0.1626 -0.8560
 3156THY    HP578887   4.301   9.278   4.761 -0.3199 -1.8942  0.5146
 3156THY    HP678888   4.156   9.296   4.662  0.9057  1.7333 -0.2617
 3156THY    HP778889   4.161   9.170   4.784 -0.5737  2.0237  0.8676
 3156THY    CA378890   4.349   8.937   4.753 -0.0442  0.9215  0.1306
 3156THY    HA378891   4.247   8.929   4.792  0.2089 -0.0231  0.6363
 3156THY    CA478892   4.445   8.862   4.820  0.0861  0.1011  0.2200
 3156THY    HA478893   4.411   8.802   4.904 -0.2166  2.4388  1.8628
 3156THY    CA578894   4.582   8.876   4.792  0.0406 -0.7450 -0.3336
 3156THY    CM178895   4.692   8.808   4.871 -0.1768 -0.1288  0.1021
 3156THY    HM178896   4.655   8.790   4.972  1.9972  0.9118  1.1290
 3156THY    HM278897   4.705   8.710   4.823 -0.5303  0.9870 -2.4269
 3156THY    HM378898   4.793   8.848   4.881 -0.3405  1.3458 -2.9140
 3156THY    CA678899   4.616   8.971   4.700 -0.1950  0.7863 -0.1891
 3156THY    HA678900   4.720   8.984   4.672  0.0625 -0.1028  0.3148
 3157THY      O78901   8.188   9.391   5.360 -0.5241  0.5098  0.6494
 3157THY     HO78902   8.166   9.377   5.454 -1.5420  1.9934  0.6638
 3157THY    CA178903   8.253   9.270   5.322  0.0572 -0.2089 -0.9044
 3157THY    CA278904   8.302   9.247   5.190 -0.0351 -0.1859 -0.1787
 3157THY    CP178905   8.267   9.351   5.082 -0.4391 -0.3580  0.2121
 3157THY    HP178906   8.199   9.431   5.115 -1.3534 -0.8938 -0.3387
 3157THY    CP278907   8.401   9.419   5.026 -0.5682 -0.2047 -0.6335
 3157THY    HP278908   8.475   9.440   5.104 -0.5094 -0.9984 -0.4642
 3157THY    HP378909   8.449   9.347   4.959 -1.2173  0.2492 -1.6061
 3157THY    HP478910   8.370   9.504   4.965 -0.4197  0.3787  0.0862
 3157THY    CP378911   8.200   9.271   4.977  0.4990 -0.0101 -0.1096
 3157THY    HP578912   8.149   9.335   4.904  1.5741  0.6965 -0.2709
 3157THY    HP678913   8.263   9.203   4.919  1.0170  1.3857 -1.2529
 3157THY    HP778914   8.124   9.205   5.021 -1.0195 -1.1714 -4.1153
 3157THY    CA378915   8.377   9.130   5.173 -0.1953 -0.6937 -1.0486
 3157THY    HA378916   8.412   9.102   5.074  1.9576  1.5322 -0.9944
 3157THY    CA478917   8.403   9.041   5.280  0.1591 -0.4513 -0.0911
 3157THY    HA478918   8.460   8.950   5.267  1.2435  0.1353  0.3797
 3157THY    CA578919   8.359   9.067   5.408  0.9325 -0.6185 -0.6224
 3157THY    CM178920   8.395   8.970   5.523  0.2474 -0.5103 -0.2235
 3157THY    HM178921   8.347   8.995   5.619 -0.3323  0.1586 -0.6755
 3157THY    HM278922   8.365   8.870   5.490 -1.8966 -0.6342  1.8215
 3157THY    HM378923   8.504   8.967   5.531  0.2620 -0.4403 -0.3893
 3157THY    CA678924   8.281   9.180   5.428 -0.2035  0.4954  0.0280
 3157THY    HA678925   8.241   9.201   5.527 -2.1151 -0.7554 -0.4304
 3158THY      O78926   7.326   5.837   1.660 -0.1527 -0.2656 -0.1419
 3158THY     HO78927   7.339   5.930   1.635 -0.8994  0.1649  0.9891
 3158THY    CA178928   7.403   5.802   1.769 -0.1236  0.4713 -0.5896
 3158THY    CA278929   7.438   5.668   1.803 -0.2416  0.1389 -0.1047
 3158THY    CP178930   7.373   5.559   1.712  0.1944 -0.3446  0.0407
 3158THY    HP178931   7.288   5.607   1.661  0.0116  2.4577  2.7040
 3158THY    CP278932   7.480   5.503   1.617 -0.0990 -0.0086 -0.0849
 3158THY    HP278933   7.446   5.426   1.548  0.1233  1.7191 -2.2372
 3158THY    HP378934   7.531   5.580   1.558  0.9730  0.8419  1.8658
 3158THY    HP478935   7.565   5.464   1.675 -1.6760 -2.2650  0.8575
 3158THY    CP378936   7.311   5.438   1.786  0.3994 -0.0047 -0.0778
 3158THY    HP578937   7.203   5.421   1.779  0.6240 -2.5139  1.0956
 3158THY    HP678938   7.361   5.349   1.746  0.6871  0.6659 -1.2391
 3158THY    HP778939   7.343   5.440   1.891  1.9650 -2.4847 -0.4115
 3158THY    CA378940   7.527   5.642   1.911 -0.6397  0.0324 -0.0979
 3158THY    HA378941   7.558   5.540   1.933  0.3350  0.3937  0.2341
 3158THY    CA478942   7.589   5.746   1.974 -0.1968 -0.0156 -0.5267
 3158THY    HA478943   7.644   5.719   2.064  1.4810  0.4023 -1.3756
 3158THY    CA578944   7.549   5.876   1.949  0.6362  0.5971  0.3281
 3158THY    CM178945   7.589   5.985   2.040  0.0329  0.1177  0.5856
 3158THY    HM178946   7.552   5.975   2.143 -0.2387  1.2573  0.6025
 3158THY    HM278947   7.698   5.995   2.052  0.0633  1.4588 -0.5873
 3158THY    HM378948   7.551   6.083   2.012 -3.7225 -1.4377 -0.3801
 3158THY    CA678949   7.455   5.906   1.852  0.6466  0.1742 -0.2544
 3158THY    HA678950   7.443   6.011   1.827 -0.3795  0.3358  0.8621
 3159THY      O78951   2.791   4.416   0.562  0.0719 -0.1051 -0.4555
 3159THY     HO78952   2.845   4.369   0.628  0.9728  1.1412 -0.2687
 3159THY    CA178953   2.689   4.332   0.531  0.2193  0.3425  0.4771
 3159THY    CA278954   2.636   4.316   0.399 -0.2080 -0.6892  0.5552
 3159THY    CP178955   2.701   4.390   0.279  0.0200  0.9683 -0.5576
 3159THY    HP178956   2.770   4.465   0.320  1.2688 -1.0657  1.2765
 3159THY    CP278957   2.792   4.296   0.196  0.5721 -0.2889  0.8022
 3159THY    HP278958   2.844   4.223   0.259 -1.3590 -3.1174 -0.6680
 3159THY    HP378959   2.720   4.243   0.134  1.6685  0.5406 -1.2714
 3159THY    HP478960   2.864   4.352   0.136 -1.2256  0.5236 -0.7011
 3159THY    CP378961   2.606   4.474   0.195  0.1702 -0.0165 -0.8460
 3159THY    HP578962   2.660   4.540   0.125 -3.0888  3.0094 -0.7629
 3159THY    HP678963   2.536   4.402   0.151 -0.6716  0.0634  0.3181
 3159THY    HP778964   2.543   4.537   0.258 -2.2061 -4.4414  1.7196
 3159THY    CA378965   2.534   4.231   0.376  1.2046 -0.0082  0.5156
 3159THY    HA378966   2.491   4.217   0.277  1.6831 -1.4293  0.4876
 3159THY    CA478967   2.482   4.161   0.481  0.2658 -0.3184 -0.1922
 3159THY    HA478968   2.406   4.084   0.473 -0.3262  0.2636 -0.3217
 3159THY    CA578969   2.531   4.176   0.616  0.3548  0.6122  0.1771
 3159THY    CM178970   2.471   4.086   0.724 -0.1646  0.7152  0.6577
 3159THY    HM178971   2.365   4.108   0.743  0.1930  1.4116  1.9570
 3159THY    HM278972   2.469   3.980   0.697 -0.8778  0.9766 -0.3916
 3159THY    HM378973   2.523   4.104   0.819 -0.3550  0.0357  0.8920
 3159THY    CA678974   2.646   4.252   0.634 -0.2183  0.1000  0.2664
 3159THY    HA678975   2.704   4.274   0.723 -0.0717  1.0572 -0.0485
 3160THY      O78976   7.859   1.841   8.778  0.1832  0.2065  0.9986
 3160THY     HO78977   7.938   1.861   8.725  1.0489  0.3930  2.3395
 3160THY    CA178978   7.849   1.937   8.875 -0.4138  0.3663 -0.3202
 3160THY    CA278979   7.749   1.935   8.973  0.5821 -0.1655 -0.4466
 3160THY    CP178980   7.630   1.830   8.986 -0.4309 -0.6928  1.2022
 3160THY    HP178981   7.649   1.759   8.904 -2.5367  0.5830 -0.5253
 3160THY    CP278982   7.614   1.756   9.117  0.5957  0.1941  0.1887
 3160THY    HP278983   7.566   1.818   9.194  0.0328  1.3707 -1.0619
 3160THY    HP378984   7.549   1.669   9.103 -0.3761  0.8427  0.4978
 3160THY    HP478985   7.710   1.722   9.156  0.2543  0.1331  0.9977
 3160THY    CP378986   7.506   1.905   8.944  0.6650 -0.7596  0.1683
 3160THY    HP578987   7.517   1.956   8.847  0.5244 -0.8123  0.1226
 3160THY    HP678988   7.419   1.843   8.918 -0.4697  1.6325 -2.3193
 3160THY    HP778989   7.471   1.982   9.014  0.4047 -1.3315  0.6687
 3160THY    CA378990   7.746   2.042   9.068  0.0441 -0.7141  0.6031
 3160THY    HA378991   7.672   2.054   9.148 -0.7153  1.7325 -0.3716
 3160THY    CA478992   7.841   2.145   9.070  0.7002 -0.9021  0.9443
 3160THY    HA478993   7.841   2.222   9.147  0.3445 -2.5264  2.6526
 3160THY    CA578994   7.939   2.135   8.976 -0.6201  0.3453  0.0538
 3160THY    CM178995   8.045   2.236   8.989 -0.7542  0.4591  0.6346
 3160THY    HM178996   8.082   2.258   8.889 -1.1961  1.8481  0.7536
 3160THY    HM278997   8.004   2.333   9.020  1.2911  2.2582 -1.8749
 3160THY    HM378998   8.131   2.198   9.045 -1.4776 -0.3645  1.2149
 3160THY    CA678999   7.940   2.033   8.873 -0.5396  0.2743 -1.7315
 3160THY    HA679000   8.033   2.040   8.816 -1.3651  0.6516 -3.0787
 3161THY      O79001   5.826   0.949   9.864 -0.0492  0.1681  0.0211
 3161THY     HO79002   5.792   0.948   9.955 -1.4511 -1.0154 -0.4636
 3161THY    CA179003   5.904   0.846   9.840  0.0600  0.3525 -0.6929
 3161THY    CA279004   5.963   0.810   9.711 -0.3380 -0.7824 -0.6787
 3161THY    CP179005   5.943   0.899   9.595 -0.2576 -0.2210 -0.1488
 3161THY    HP179006   5.876   0.982   9.620 -0.8640 -1.0288  0.9594
 3161THY    CP279007   6.064   0.962   9.557 -0.1473 -0.6456 -0.4887
 3161THY    HP279008   6.109   1.010   9.645 -0.6626 -0.2131 -0.4565
 3161THY    HP379009   6.129   0.887   9.510 -1.6661 -0.9311 -2.2329
 3161THY    HP479010   6.043   1.040   9.484  1.1669  1.8670  1.6509
 3161THY    CP379011   5.884   0.822   9.472  0.2497 -0.4541 -0.0097
 3161THY    HP579012   5.814   0.893   9.426 -1.7079 -1.9567  0.5016
 3161THY    HP679013   5.957   0.797   9.394 -1.9944 -0.2287 -2.3119
 3161THY    HP779014   5.830   0.732   9.505  2.3327 -2.1453 -0.9928
 3161THY    CA379015   6.039   0.689   9.711 -0.7711 -0.3188  0.0229
 3161THY    HA379016   6.078   0.655   9.616  0.3127  1.4977 -0.2341
 3161THY    CA479017   6.061   0.611   9.828 -0.2374 -0.6633 -0.3294
 3161THY    HA479018   6.118   0.519   9.831 -0.4811 -0.8173 -0.3620
 3161THY    CA579019   5.996   0.648   9.946  0.1547  0.0555 -0.2080
 3161THY    CM179020   6.033   0.570  10.064 -0.0700  0.1774  0.2173
 3161THY    HM179021   6.127   0.612  10.101 -0.8520  0.3101  2.1500
 3161THY    HM279022   5.960   0.570  10.146 -0.2482 -2.0458  0.1203
 3161THY    HM379023   6.050   0.464  10.043 -0.2713 -0.9295  4.6899
 3161THY    CA679024   5.918   0.763   9.954 -0.0213 -0.5083  0.0789
 3161THY    HA679025   5.880   0.789  10.052  1.0316 -1.0736  0.6573
 3162THY      O79026   8.976   2.586   3.989 -1.0739  0.4635  0.2852
 3162THY     HO79027   9.063   2.593   4.031 -0.1746  0.6280 -1.4916
 3162THY    CA179028   8.991   2.630   3.865 -0.7770 -0.2393  0.1136
 3162THY    CA279029   8.884   2.660   3.782 -0.2218  0.0415  0.0817
 3162THY    CP179030   8.743   2.626   3.820  0.4227  0.5404 -0.2598
 3162THY    HP179031   8.740   2.556   3.905 -2.9960  0.2918 -0.4657
 3162THY    CP279032   8.656   2.748   3.840  0.0706 -0.1048 -0.0740
 3162THY    HP279033   8.679   2.818   3.922  0.1253 -0.6207  0.3597
 3162THY    HP379034   8.638   2.802   3.747 -0.3866  2.7522  1.5770
 3162THY    HP479035   8.562   2.696   3.860  0.7892 -1.2717  0.4314
 3162THY    CP379036   8.674   2.546   3.712 -0.4345 -0.5461 -0.1742
 3162THY    HP579037   8.745   2.469   3.678 -0.1016 -0.8393  1.1159
 3162THY    HP679038   8.595   2.494   3.767  0.5976  1.7017  3.8915
 3162THY    HP779039   8.634   2.608   3.632 -0.0208  0.4694  0.3897
 3162THY    CA379040   8.911   2.722   3.659 -0.0350 -0.0736  0.3329
 3162THY    HA379041   8.827   2.744   3.594 -0.5850  0.6213  1.2514
 3162THY    CA479042   9.048   2.748   3.614 -0.2401  0.0316 -0.0059
 3162THY    HA479043   9.070   2.804   3.523 -1.3395 -1.5512 -1.2998
 3162THY    CA579044   9.151   2.715   3.709 -0.6556 -0.1435 -0.0241
 3162THY    CM179045   9.293   2.764   3.676 -0.6397  0.1391  0.4772
 3162THY    HM179046   9.372   2.733   3.745 -2.8968 -1.7445  2.3783
 3162THY    HM279047   9.320   2.750   3.570 -2.1991 -0.3535  0.1114
 3162THY    HM379048   9.274   2.869   3.699 -0.5732  0.1996  0.2615
 3162THY    CA679049   9.122   2.652   3.828  0.1932 -0.1448 -0.2044
 3162THY    HA679050   9.204   2.637   3.898 -0.8728  0.0723  1.1417
 3163THY      O79051   5.532   7.405   1.256  0.0047  0.2351  0.0884
 3163THY     HO79052   5.521   7.445   1.344  0.8880  0.6101  0.0319
 3163THY    CA179053   5.577   7.277   1.256 -0.7236  0.0570 -0.1945
 3163THY    CA279054   5.595   7.202   1.137 -0.4152 -0.4032 -0.0851
 3163THY    CP179055   5.566   7.267   0.998 -0.1990 -0.1854 -0.3476
 3163THY    HP179056   5.590   7.374   0.992 -0.8771  0.2248  2.7426
 3163THY    CP279057   5.626   7.195   0.873 -0.0672 -0.4073 -0.7800
 3163THY    HP279058   5.625   7.260   0.785  0.2924  2.3581  1.1125
 3163THY    HP379059   5.728   7.167   0.902 -0.5035 -2.0114 -0.7294
 3163THY    HP479060   5.581   7.096   0.863  1.9697 -1.2716 -1.9194
 3163THY    CP379061   5.415   7.256   0.976 -0.7460  0.3147  0.1126
 3163THY    HP579062   5.370   7.307   1.063 -0.7259 -0.3164  0.4955
 3163THY    HP679063   5.381   7.302   0.882 -0.6784 -0.0281 -0.0821
 3163THY    HP779064   5.388   7.151   0.962 -1.2774  0.6947 -2.2028
 3163THY    CA379065   5.638   7.073   1.146  0.0523  0.7955 -0.8229
 3163THY    HA379066   5.662   7.010   1.062 -0.3287 -1.1338  0.4571
 3163THY    CA479067   5.641   7.011   1.271  0.4492 -0.7326 -1.0271
 3163THY    HA479068   5.657   6.904   1.279 -0.4407 -0.7756  0.6756
 3163THY    CA579069   5.622   7.082   1.392  0.0164 -0.4709 -0.0093
 3163THY    CM179070   5.644   7.021   1.529  0.5807  0.4302  0.1209
 3163THY    HM179071   5.546   6.996   1.571  1.9905 -2.2133  2.1031
 3163THY    HM279072   5.694   6.924   1.521 -0.9156 -0.3692 -0.0288
 3163THY    HM379073   5.692   7.086   1.603  0.4676  0.4713  0.1596
 3163THY    CA679074   5.597   7.214   1.378 -0.2669 -0.2625 -0.6434
 3163THY    HA679075   5.593   7.270   1.471  2.9605  1.6327 -1.5032
 3164THY      O79076   0.249   5.215   9.126 -0.2115 -0.4757  0.4552
 3164THY     HO79077   0.305   5.157   9.181  0.9780 -0.0072 -0.2314
 3164THY    CA179078   0.151   5.253   9.202 -0.4457  0.1143  0.0563
 3164THY    CA279079   0.020   5.278   9.157 -0.1646  0.2066  0.1418
 3164THY    CP179080  -0.005   5.269   9.005  0.4127  0.2989 -0.1016
 3164THY    HP179081   0.078   5.299   8.941  2.1788  2.1490  2.7984
 3164THY    CP279082  -0.033   5.121   8.978 -0.4397 -0.1980  0.5735
 3164THY    HP279083  -0.135   5.089   9.000 -1.1733  2.4170  1.3909
 3164THY    HP379084  -0.025   5.112   8.869 -2.6741 -1.7443  0.4884
 3164THY    HP479085   0.038   5.051   9.024 -0.2743  0.0280  0.6635
 3164THY    CP379086  -0.121   5.354   8.949 -0.3875  1.2570 -0.0714
 3164THY    HP579087  -0.096   5.460   8.960 -0.0076  0.9567  2.5835
 3164THY    HP679088  -0.144   5.332   8.844 -0.1544 -0.0153  0.1306
 3164THY    HP779089  -0.216   5.332   8.999 -1.3204  2.1023 -1.4177
 3164THY    CA379090  -0.084   5.311   9.250  0.0514  0.5332 -0.1523
 3164THY    HA379091  -0.179   5.348   9.214 -0.3670 -0.8895 -0.5743
 3164THY    CA479092  -0.047   5.315   9.388  0.4656 -1.1827  0.9977
 3164THY    HA479093  -0.119   5.348   9.462  1.1233  0.3191  0.9889
 3164THY    CA579094   0.081   5.282   9.427 -0.9901 -0.1192  0.3857
 3164THY    CM179095   0.128   5.281   9.566  0.4449 -0.0840 -0.7294
 3164THY    HM179096   0.159   5.178   9.587 -0.4253 -1.0775 -3.7442
 3164THY    HM279097   0.219   5.338   9.588  1.7922 -2.0449 -0.9063
 3164THY    HM379098   0.053   5.304   9.642 -1.1310 -1.6627 -1.7254
 3164THY    CA679099   0.184   5.257   9.340 -0.2524  0.4652  0.6986
 3164THY    HA679100   0.285   5.246   9.376  0.6038  0.0324 -1.6418
 3165THY      O79101   6.430   1.061   4.749  0.1021 -0.3933 -0.0756
 3165THY     HO79102   6.349   1.081   4.800  1.4088  4.9133  0.5150
 3165THY    CA179103   6.534   1.113   4.817 -0.1972  0.4357  0.6628
 3165THY    CA279104   6.662   1.115   4.756 -1.2559  0.4964  0.4564
 3165THY    CP179105   6.674   1.055   4.619  0.3393 -0.3860  0.2570
 3165THY    HP179106   6.581   1.020   4.572  0.5794  1.5886 -1.8821
 3165THY    CP279107   6.713   1.167   4.516 -0.2384  0.5397 -0.7247
 3165THY    HP279108   6.813   1.209   4.532 -0.6299  2.4351 -2.6589
 3165THY    HP379109   6.717   1.136   4.411  1.2990  1.5785 -1.0030
 3165THY    HP479110   6.643   1.250   4.533 -1.0361 -0.4743  1.2998
 3165THY    CP379111   6.774   0.939   4.607  0.4528  0.7241  0.4401
 3165THY    HP579112   6.870   0.967   4.651  0.5858 -0.1399  0.7148
 3165THY    HP679113   6.736   0.845   4.648  1.3930 -1.1463 -2.6073
 3165THY    HP779114   6.794   0.904   4.505  0.4718  2.8144 -0.3207
 3165THY    CA379115   6.780   1.166   4.826  0.2948  0.3544 -0.5560
 3165THY    HA379116   6.877   1.165   4.778  0.7628 -1.2670  0.3160
 3165THY    CA479117   6.758   1.225   4.952 -0.0739 -0.7521 -0.4855
 3165THY    HA479118   6.842   1.264   5.009 -0.5749  0.5213 -0.5982
 3165THY    CA579119   6.622   1.235   5.011 -0.0213 -0.2505  0.4772
 3165THY    CM179120   6.598   1.300   5.145 -0.1800 -0.3618  1.0666
 3165THY    HM179121   6.553   1.236   5.222 -4.0623  1.8613  0.9317
 3165THY    HM279122   6.694   1.342   5.175 -0.8400  1.1197  1.1932
 3165THY    HM379123   6.520   1.377   5.137 -0.2645 -0.5287  0.0749
 3165THY    CA679124   6.518   1.176   4.938  0.2658  0.5246 -0.4634
 3165THY    HA679125   6.421   1.178   4.988  1.3870 -1.3042  2.0051
 3166THY      O79126   8.880   4.396   2.313  0.1068 -0.0180  0.0414
 3166THY     HO79127   8.819   4.398   2.237  0.0345  2.2593  0.0749
 3166THY    CA179128   8.800   4.338   2.397  1.0019  0.3527  0.4608
 3166THY    CA279129   8.825   4.320   2.533 -0.1205 -0.1329 -0.5706
 3166THY    CP179130   8.959   4.377   2.597 -0.3839  0.2557 -0.0709
 3166THY    HP179131   9.019   4.437   2.526  3.1524  0.5633  2.8611
 3166THY    CP279132   8.924   4.478   2.701  0.4681 -0.1415 -0.3239
 3166THY    HP279133   8.852   4.548   2.658  0.7828  0.7801  0.5988
 3166THY    HP379134   8.891   4.438   2.798  1.1290  1.8006  0.7613
 3166THY    HP479135   9.016   4.537   2.712  0.1090  0.4106 -0.2512
 3166THY    CP379136   9.054   4.265   2.658 -0.2534  0.4716 -0.0539
 3166THY    HP579137   9.003   4.209   2.737  0.5023 -1.2163 -0.7122
 3166THY    HP679138   9.079   4.198   2.575 -0.4332  0.5531 -0.1749
 3166THY    HP779139   9.143   4.315   2.699 -0.6089  1.1019 -0.0303
 3166THY    CA379140   8.731   4.260   2.615  0.1207 -0.1803 -0.8042
 3166THY    HA379141   8.740   4.243   2.722  0.1869  1.2858 -0.5615
 3166THY    CA479142   8.603   4.238   2.569  0.6794 -0.1315  0.1337
 3166THY    HA479143   8.528   4.190   2.631  2.1083 -1.2497  1.0598
 3166THY    CA579144   8.573   4.259   2.433  0.7364  0.6812  0.1065
 3166THY    CM179145   8.432   4.230   2.369 -0.1111  0.2119 -0.1104
 3166THY    HM179146   8.441   4.154   2.290 -0.6516  2.1391 -2.1204
 3166THY    HM279147   8.362   4.195   2.445 -0.8294 -1.4567 -1.4621
 3166THY    HM379148   8.399   4.317   2.311 -0.9264 -0.6510 -0.9705
 3166THY    CA679149   8.670   4.316   2.350 -1.2438  0.4333  0.0046
 3166THY    HA679150   8.646   4.329   2.245  0.3312 -0.9315 -0.5710
 3167THY      O79151   4.241   4.160   4.564  0.0648 -0.0838  0.2177
 3167THY     HO79152   4.230   4.079   4.617 -0.8393 -0.8856 -1.1515
 3167THY    CA179153   4.226   4.267   4.651  0.1440  0.1454 -0.0898
 3167THY    CA279154   4.251   4.400   4.616 -0.1855 -0.6205 -0.4663
 3167THY    CP179155   4.299   4.445   4.485 -0.2347  0.2586  0.6912
 3167THY    HP179156   4.354   4.366   4.432 -0.0849  0.1733  0.9691
 3167THY    CP279157   4.178   4.481   4.388 -0.0308  0.1325  0.3889
 3167THY    HP279158   4.216   4.531   4.298  0.6978  1.0099  1.1627
 3167THY    HP379159   4.117   4.392   4.370 -0.2429  0.1557  0.9528
 3167THY    HP479160   4.112   4.559   4.429  0.2493 -0.0096  1.1304
 3167THY    CP379161   4.398   4.567   4.493 -0.7300  0.6187  0.0824
 3167THY    HP579162   4.459   4.561   4.584  1.0706 -0.3695 -1.1269
 3167THY    HP679163   4.464   4.573   4.406 -1.2794 -0.2088 -0.4099
 3167THY    HP779164   4.349   4.664   4.481 -1.4512  0.0908 -1.6215
 3167THY    CA379165   4.222   4.502   4.714  0.7332  0.2168  0.7046
 3167THY    HA379166   4.230   4.607   4.689  1.8155 -0.2453 -1.0980
 3167THY    CA479167   4.185   4.469   4.842 -0.0690 -0.2315 -0.0770
 3167THY    HA479168   4.165   4.547   4.914 -3.6570 -1.0586  0.0327
 3167THY    CA579169   4.162   4.337   4.874 -0.3898 -0.0838  0.3979
 3167THY    CM179170   4.091   4.299   5.002  0.0476  0.3846 -0.3589
 3167THY    HM179171   4.053   4.380   5.065 -1.4193 -0.5253 -0.0375
 3167THY    HM279172   4.004   4.239   4.976  0.7013 -0.9551  0.4374
 3167THY    HM379173   4.154   4.226   5.053 -1.8385 -0.6078  0.6234
 3167THY    CA679174   4.176   4.238   4.776 -0.2513 -0.0212 -0.9502
 3167THY    HA679175   4.149   4.137   4.806  0.7547  0.2809  1.1164
 3168THY      O79176   0.989   2.454   6.332 -0.3153 -0.0380 -0.7532
 3168THY     HO79177   1.025   2.480   6.245 -0.2888  2.4138 -0.0821
 3168THY    CA179178   1.079   2.370   6.394 -0.0055 -0.1095 -0.0360
 3168THY    CA279179   1.084   2.349   6.538 -0.0370  0.4779  0.5461
 3168THY    CP179180   0.994   2.426   6.640 -0.3228  1.0138 -0.2118
 3168THY    HP179181   0.930   2.487   6.576  0.0857  0.3252 -1.3222
 3168THY    CP279182   0.919   2.322   6.722 -0.1215 -0.5856 -0.0011
 3168THY    HP279183   0.840   2.370   6.780 -0.0274  0.2025 -0.5151
 3168THY    HP379184   0.857   2.259   6.658 -0.9383  0.0457  0.1626
 3168THY    HP479185   0.995   2.270   6.783  0.1350 -1.1707 -0.8076
 3168THY    CP379186   1.073   2.527   6.721 -0.2311 -0.1212 -0.6623
 3168THY    HP579187   1.016   2.562   6.808  0.1104  2.1701 -1.3034
 3168THY    HP679188   1.165   2.484   6.761 -0.4483  1.4110  1.7187
 3168THY    HP779189   1.110   2.611   6.662 -4.1126  2.4945  0.2047
 3168THY    CA379190   1.177   2.259   6.593 -0.1059  1.0806  0.0214
 3168THY    HA379191   1.181   2.257   6.702  2.4090  0.3977 -0.0233
 3168THY    CA479192   1.276   2.201   6.511 -0.5285 -0.4589 -0.2834
 3168THY    HA479193   1.345   2.131   6.558 -0.9361 -2.1740 -2.0997
 3168THY    CA579194   1.278   2.233   6.370  0.5017  0.2655 -0.6208
 3168THY    CM179195   1.394   2.181   6.284  0.9923  0.4888  0.2827
 3168THY    HM179196   1.426   2.255   6.210 -0.1855 -2.1046 -3.0964
 3168THY    HM279197   1.482   2.157   6.345  1.2113 -1.9548 -0.8564
 3168THY    HM379198   1.356   2.091   6.234  2.5910 -0.2681  0.3726
 3168THY    CA679199   1.185   2.318   6.320 -0.3016 -0.4870  0.4422
 3168THY    HA679200   1.182   2.334   6.212  1.3981 -0.5227  0.3667
 3169THY      O79201   9.267   9.170   1.427  0.0946 -0.2522 -0.2253
 3169THY     HO79202   9.247   9.103   1.495 -0.8724  0.7547  0.5254
 3169THY    CA179203   9.323   9.116   1.314  0.2842  0.1058  0.0579
 3169THY    CA279204   9.362   9.191   1.209  0.5158  0.4812 -0.1573
 3169THY    CP179205   9.330   9.338   1.212 -0.6742  0.1853 -0.0307
 3169THY    HP179206   9.329   9.380   1.313 -1.9497 -0.1605  0.1237
 3169THY    CP279207   9.435   9.435   1.142  0.7863 -0.2289  0.4041
 3169THY    HP279208   9.410   9.536   1.176 -0.5324 -0.2470 -0.4026
 3169THY    HP379209   9.538   9.419   1.175  0.3927  0.3576  2.0000
 3169THY    HP479210   9.422   9.428   1.033 -1.2220  0.3705  0.5577
 3169THY    CP379211   9.188   9.373   1.164  0.2543  0.0559  0.4133
 3169THY    HP579212   9.163   9.479   1.165  0.1597  0.0297  1.0329
 3169THY    HP679213   9.176   9.322   1.067  1.9999 -0.5921  0.4954
 3169THY    HP779214   9.124   9.333   1.243  2.6786  0.9287  2.9830
 3169THY    CA379215   9.412   9.134   1.091 -0.6288 -0.9179  0.1797
 3169THY    HA379216   9.450   9.191   1.007 -2.0949 -1.4385 -0.8830
 3169THY    CA479217   9.422   8.998   1.087  0.2113  0.1879 -0.2775
 3169THY    HA479218   9.470   8.957   0.999  2.8876 -0.4047  1.3563
 3169THY    CA579219   9.385   8.917   1.208 -0.5190 -0.2133  0.8684
 3169THY    CM179220   9.382   8.772   1.220  0.6260  0.0895  0.6434
 3169THY    HM179221   9.395   8.730   1.119 -0.5609 -1.5904  1.1373
 3169THY    HM279222   9.445   8.725   1.297  1.9867  1.2036  0.2494
 3169THY    HM379223   9.283   8.742   1.256  0.8301  1.5362  2.5042
 3169THY    CA679224   9.344   8.980   1.317 -0.1985  0.1668 -0.1561
 3169THY    HA679225   9.320   8.926   1.408  1.2403 -1.4548 -0.6880
 3170THY      O79226   6.767   8.077   1.417  0.2982 -0.5537  0.4497
 3170THY     HO79227   6.738   7.998   1.369 -1.3590  0.3630 -0.1264
 3170THY    CA179228   6.773   8.177   1.322  0.3651  0.4746  0.2649
 3170THY    CA279229   6.803   8.309   1.361 -0.8749  0.6929  0.0708
 3170THY    CP179230   6.802   8.358   1.508 -0.4294  0.2174  0.2695
 3170THY    HP179231   6.770   8.276   1.574  1.6372  0.3824  1.5605
 3170THY    CP279232   6.945   8.405   1.554 -0.4832 -0.4256 -0.0704
 3170THY    HP279233   7.019   8.326   1.566  0.3683  0.3983  0.1924
 3170THY    HP379234   6.998   8.482   1.497  0.7876 -0.3745  1.1215
 3170THY    HP479235   6.923   8.446   1.654 -1.0173  2.9647 -1.4326
 3170THY    CP379236   6.700   8.467   1.543  1.2203  0.3219 -0.4178
 3170THY    HP579237   6.598   8.426   1.542  1.3541 -0.0219 -1.4992
 3170THY    HP679238   6.717   8.500   1.646  0.3427 -0.3245 -0.0482
 3170THY    HP779239   6.709   8.552   1.475  2.7676 -0.4146 -1.1664
 3170THY    CA379240   6.820   8.410   1.264 -0.2052  0.5081 -0.2748
 3170THY    HA379241   6.828   8.513   1.298 -0.9873  1.5009 -2.8230
 3170THY    CA479242   6.804   8.381   1.127 -0.0193  0.1242 -0.2598
 3170THY    HA479243   6.794   8.468   1.062  1.9966  0.6240  0.0392
 3170THY    CA579244   6.798   8.243   1.092 -0.0423  0.0053  0.5534
 3170THY    CM179245   6.779   8.196   0.952  0.2150 -0.1373  0.1372
 3170THY    HM179246   6.675   8.171   0.925 -0.5984 -0.2214  3.0445
 3170THY    HM279247   6.816   8.276   0.888 -1.3057  0.0044 -0.6247
 3170THY    HM379248   6.834   8.103   0.933  2.0980  1.0527 -0.5140
 3170THY    CA679249   6.770   8.141   1.188 -0.0380  0.5958 -0.0331
 3170THY    HA679250   6.764   8.034   1.167  0.5263 -0.1304  3.0670
 3171THY      O79251   3.663   5.063   3.938  0.6304  1.1041  0.6002
 3171THY     HO79252   3.652   5.124   4.012  0.8209  1.2862  0.4800
 3171THY    CA179253   3.720   4.947   3.977 -0.2518  1.0276  0.2083
 3171THY    CA279254   3.758   4.846   3.883  0.7241  0.1113 -0.7527
 3171THY    CP179255   3.765   4.883   3.736 -0.5996  0.2921  0.5151
 3171THY    HP179256   3.731   4.987   3.721  0.8749  0.6452 -0.6498
 3171THY    CP279257   3.911   4.885   3.682 -0.0252  0.3162  0.4082
 3171THY    HP279258   3.980   4.929   3.756  4.0276 -1.5664 -1.9121
 3171THY    HP379259   3.957   4.787   3.668  0.1940  0.4486  0.1894
 3171THY    HP479260   3.916   4.940   3.588  1.1591 -0.3294  0.0754
 3171THY    CP379261   3.685   4.796   3.639 -0.2442  0.0394  0.1669
 3171THY    HP579262   3.583   4.803   3.678 -0.9315  2.2352 -1.7599
 3171THY    HP679263   3.674   4.855   3.547 -2.5400  2.5918  1.9173
 3171THY    HP779264   3.724   4.695   3.622  0.1720  0.0809  0.8613
 3171THY    CA379265   3.822   4.735   3.925  0.1382 -0.0705 -0.2826
 3171THY    HA379266   3.873   4.673   3.852  2.4779  0.9048  0.4539
 3171THY    CA479267   3.842   4.717   4.067  0.4699  0.6327  0.3213
 3171THY    HA479268   3.898   4.635   4.111  0.3467  0.7540  0.7062
 3171THY    CA579269   3.785   4.802   4.158  0.3723  0.0029  0.2872
 3171THY    CM179270   3.795   4.793   4.312  0.1146 -0.5659  0.2106
 3171THY    HM179271   3.789   4.894   4.353  1.6905  0.3061 -1.5890
 3171THY    HM279272   3.717   4.731   4.358 -2.0130  1.2820 -0.6688
 3171THY    HM379273   3.895   4.753   4.330 -0.1288 -0.5291  1.7492
 3171THY    CA679274   3.730   4.923   4.113  0.2248  0.2575  0.3194
 3171THY    HA679275   3.696   5.004   4.177 -0.1550 -0.3068  0.8361
 3172THY      O79276   8.068   4.365   3.133 -0.1308 -0.4638 -0.3813
 3172THY     HO79277   7.985   4.315   3.135 -0.0914 -0.5384 -0.6027
 3172THY    CA179278   8.087   4.401   3.001 -0.0382 -0.0148 -0.3211
 3172THY    CA279279   8.156   4.521   2.966  0.0144 -0.2078 -0.1051
 3172THY    CP179280   8.209   4.615   3.076  0.8620  0.1343  0.2307
 3172THY    HP179281   8.173   4.577   3.172 -0.1849 -3.1937 -1.3257
 3172THY    CP279282   8.362   4.645   3.089 -0.6157 -0.2377  0.8672
 3172THY    HP279283   8.408   4.697   3.004 -0.3975 -0.9497  0.5397
 3172THY    HP379284   8.392   4.704   3.176  2.6531 -1.2504  0.5466
 3172THY    HP479285   8.429   4.559   3.093  0.8610  0.8368  0.1468
 3172THY    CP379286   8.141   4.756   3.064  0.1665 -0.2925 -0.5996
 3172THY    HP579287   8.031   4.752   3.058  0.1354  0.1733 -0.3830
 3172THY    HP679288   8.172   4.811   3.153 -0.2907 -0.6039 -0.2416
 3172THY    HP779289   8.178   4.803   2.972  1.7415 -0.0919  0.1027
 3172THY    CA379290   8.177   4.552   2.829 -0.6982  0.1833  0.3264
 3172THY    HA379291   8.241   4.634   2.802  0.8044 -1.3447 -0.9748
 3172THY    CA479292   8.126   4.465   2.732  0.1061  0.1768 -0.1882
 3172THY    HA479293   8.124   4.499   2.629 -3.2123  0.9956  0.0556
 3172THY    CA579294   8.052   4.355   2.767  0.0159  0.2169 -0.3507
 3172THY    CM179295   7.999   4.268   2.662  0.8807  0.7387  0.8619
 3172THY    HM179296   8.000   4.164   2.696 -1.1161 -0.2366 -1.6866
 3172THY    HM279297   7.898   4.290   2.624  1.6445  0.6792 -1.3731
 3172THY    HM379298   8.067   4.282   2.577  1.2710  1.6769  1.3131
 3172THY    CA679299   8.034   4.321   2.905 -0.3174 -0.3563  0.5141
 3172THY    HA679300   7.989   4.226   2.934  0.1644 -0.4112  1.0935
 3173THY      O79301   6.409   2.334   2.274  0.5907  0.0148  0.0864
 3173THY     HO79302   6.446   2.263   2.219  0.4003 -0.6827  0.8350
 3173THY    CA179303   6.490   2.342   2.386 -0.3766  0.3387  0.7097
 3173THY    CA279304   6.472   2.437   2.492 -0.1329 -0.0381  0.8326
 3173THY    CP179305   6.346   2.526   2.486 -0.3624  0.4833 -0.7704
 3173THY    HP179306   6.285   2.508   2.396 -1.2140 -0.3366 -0.0531
 3173THY    CP279307   6.264   2.499   2.620 -0.1607  0.1647 -0.1207
 3173THY    HP279308   6.237   2.395   2.642 -0.2688 -0.1580 -1.6739
 3173THY    HP379309   6.329   2.541   2.698 -1.1424  2.4847 -0.4538
 3173THY    HP479310   6.174   2.563   2.621 -0.6537 -0.5076 -0.5734
 3173THY    CP379311   6.398   2.671   2.477 -0.0777  0.2565  0.4469
 3173THY    HP579312   6.472   2.694   2.555  0.5960  1.1579 -0.4322
 3173THY    HP679313   6.426   2.687   2.372 -1.6208 -0.7551 -0.1526
 3173THY    HP779314   6.315   2.739   2.499  1.1333  1.8264  0.3085
 3173THY    CA379315   6.558   2.442   2.603  0.0307  0.3269  0.4487
 3173THY    HA379316   6.546   2.508   2.689 -2.1088 -0.0631  0.5019
 3173THY    CA479317   6.669   2.349   2.603  0.2525 -0.7351 -0.2564
 3173THY    HA479318   6.733   2.348   2.691  1.4920 -0.5476 -1.1190
 3173THY    CA579319   6.688   2.253   2.505  0.0325  0.4133  0.4415
 3173THY    CM179320   6.785   2.131   2.512  0.1333 -0.3565 -0.1552
 3173THY    HM179321   6.874   2.159   2.569 -0.1951  1.4096 -0.4468
 3173THY    HM279322   6.743   2.042   2.562 -1.1162 -0.2257 -0.9250
 3173THY    HM379323   6.826   2.099   2.416 -0.1105  0.7375 -0.6372
 3173THY    CA679324   6.606   2.255   2.393  0.8097 -0.1489  0.1850
 3173THY    HA679325   6.614   2.191   2.306 -0.9593 -0.1083 -0.0525
 3174THY      O79326   4.788   0.511   4.241 -0.1874 -0.3043 -0.6406
 3174THY     HO79327   4.828   0.599   4.254  0.5130 -0.8043  0.8431
 3174THY    CA179328   4.709   0.523   4.136  0.1792  0.4133  0.5563
 3174THY    CA279329   4.670   0.412   4.053  0.4145 -0.9209  0.0260
 3174THY    CP179330   4.717   0.270   4.075  0.0033  0.8222 -0.4069
 3174THY    HP179331   4.729   0.261   4.183 -1.8934 -0.2316 -0.2353
 3174THY    CP279332   4.605   0.171   4.047  0.1032 -0.3316 -0.5762
 3174THY    HP279333   4.600   0.157   3.938  0.3569 -0.2802 -0.5956
 3174THY    HP379334   4.626   0.075   4.094  0.0427 -0.0838 -0.0332
 3174THY    HP479335   4.510   0.211   4.084  0.5634  2.1583 -1.8166
 3174THY    CP379336   4.837   0.224   3.997 -0.2455  0.7011 -0.4811
 3174THY    HP579337   4.888   0.131   4.024 -0.9021  0.7319  0.9007
 3174THY    HP679338   4.807   0.225   3.891 -1.8659  0.7706 -0.0431
 3174THY    HP779339   4.913   0.304   4.003  0.2639  0.2687 -0.9790
 3174THY    CA379340   4.581   0.444   3.945  0.5087  0.6659 -0.6411
 3174THY    HA379341   4.532   0.362   3.893  0.8509  1.2859 -1.9595
 3174THY    CA479342   4.563   0.574   3.904 -0.2103 -0.2405  0.5053
 3174THY    HA479343   4.500   0.589   3.816 -0.7542 -3.9514  0.0892
 3174THY    CA579344   4.613   0.676   3.976 -0.7477 -0.3460  0.0338
 3174THY    CM179345   4.595   0.820   3.938 -0.1799  0.8458  0.4678
 3174THY    HM179346   4.683   0.880   3.964  1.4302 -1.8818  1.7826
 3174THY    HM279347   4.583   0.831   3.829 -1.7177 -0.7339  0.4216
 3174THY    HM379348   4.517   0.872   3.995 -0.5126  2.5865 -1.4505
 3174THY    CA679349   4.683   0.651   4.095 -0.3662 -0.2783  0.2814
 3174THY    HA679350   4.712   0.739   4.152 -0.5521  1.6311 -2.3624
 3175THY      O79351   0.728   7.964   1.144 -0.2918  0.5000  0.3666
 3175THY     HO79352   0.823   7.942   1.150 -0.4332 -0.4153 -0.4444
 3175THY    CA179353   0.730   8.089   1.100 -0.3761 -0.5539 -0.9210
 3175THY    CA279354   0.622   8.142   1.032 -0.2246 -0.2403  0.6579
 3175THY    CP179355   0.490   8.079   1.052  0.4645  0.2753  0.5892
 3175THY    HP179356   0.479   8.032   1.150  0.2265 -2.4286 -0.6419
 3175THY    CP279357   0.379   8.174   1.043  0.4289 -0.5311 -0.6220
 3175THY    HP279358   0.372   8.208   0.939  0.6149 -1.0539 -0.8098
 3175THY    HP379359   0.285   8.136   1.086  0.3364  1.9954  1.6407
 3175THY    HP479360   0.407   8.250   1.116 -1.9044  0.7988 -0.9840
 3175THY    CP379361   0.478   7.960   0.956  0.3393  0.4782  1.1589
 3175THY    HP579362   0.447   7.998   0.858 -2.1449  0.2992  1.8011
 3175THY    HP679363   0.568   7.899   0.949  0.7298  1.2019 -0.4999
 3175THY    HP779364   0.397   7.897   0.995 -0.2827  0.4925 -0.0664
 3175THY    CA379365   0.640   8.254   0.947 -0.1581 -0.4227  0.5142
 3175THY    HA379366   0.564   8.297   0.882 -0.4262  0.4311  1.3829
 3175THY    CA479367   0.765   8.317   0.941 -0.4147 -0.0704 -1.0208
 3175THY    HA479368   0.777   8.407   0.881  0.1017  1.7906  1.6988
 3175THY    CA579369   0.871   8.263   1.015  0.5689 -0.0449 -0.0876
 3175THY    CM179370   1.002   8.340   1.017  0.1542 -0.5669  0.3790
 3175THY    HM179371   0.984   8.446   1.041  2.6626  0.1307 -0.5098
 3175THY    HM279372   1.059   8.313   1.107  1.5445 -0.0466 -0.3297
 3175THY    HM379373   1.067   8.341   0.930  1.2097  0.4245  1.1453
 3175THY    CA679374   0.853   8.152   1.097  0.6029 -0.1518  0.0875
 3175THY    HA679375   0.933   8.101   1.149 -0.0938 -0.1218  1.2228
 3176THY      O79376   5.951   4.308   6.350  0.3005  0.4251  0.1317
 3176THY     HO79377   5.936   4.254   6.429  1.1443  0.4787  0.3419
 3176THY    CA179378   5.905   4.237   6.250 -0.7770  0.1715  0.2661
 3176THY    CA279379   5.984   4.228   6.131  0.2223 -0.1096  0.1504
 3176THY    CP179380   6.096   4.319   6.107 -0.8763 -0.0315  0.5805
 3176THY    HP179381   6.138   4.352   6.203  0.2612 -0.3415  0.2016
 3176THY    CP279382   6.210   4.240   6.032 -0.6882  0.0725  0.0231
 3176THY    HP279383   6.199   4.241   5.923 -0.0577  2.9381 -0.0897
 3176THY    HP379384   6.300   4.301   6.045 -0.3252 -0.7783  1.7732
 3176THY    HP479385   6.233   4.146   6.082  1.9230  0.3657 -0.5130
 3176THY    CP379386   6.052   4.450   6.041 -1.2165  0.5019  0.0115
 3176THY    HP579387   5.956   4.437   5.989 -1.9875  1.2570  1.1967
 3176THY    HP679388   6.044   4.521   6.124  1.0950  0.6878  0.1512
 3176THY    HP779389   6.129   4.484   5.971  1.5867 -2.5301  1.3367
 3176THY    CA379390   5.935   4.149   6.022 -0.0684  0.3084  0.2540
 3176THY    HA379391   5.985   4.148   5.925  1.3054 -1.0969  0.9173
 3176THY    CA479392   5.816   4.071   6.042 -0.1377  0.3226 -0.9305
 3176THY    HA479393   5.794   3.995   5.967  0.9765 -1.2264  0.2205
 3176THY    CA579394   5.743   4.073   6.164  0.0468 -0.8432  0.4484
 3176THY    CM179395   5.626   3.980   6.181  0.2602  0.0548  0.3465
 3176THY    HM179396   5.644   3.903   6.256 -2.6770 -1.2323 -0.1568
 3176THY    HM279397   5.539   4.036   6.217  0.1634  0.7071 -0.8582
 3176THY    HM379398   5.605   3.930   6.086 -1.2976 -0.7674  1.0999
 3176THY    CA679399   5.790   4.157   6.271  0.2772  1.0719  0.6121
 3176THY    HA679400   5.735   4.165   6.364 -1.0443  1.2982 -0.1645
 3177THY      O79401   4.430   0.603   0.720 -0.4748 -0.0387 -0.1985
 3177THY     HO79402   4.457   0.687   0.678 -0.3793  0.1696  0.2791
 3177THY    CA179403   4.299   0.617   0.744 -0.6500 -0.4108  0.4191
 3177THY    CA279404   4.232   0.517   0.813 -0.0047 -0.1910  0.4350
 3177THY    CP179405   4.302   0.394   0.881  0.8161 -0.1550  0.2390
 3177THY    HP179406   4.412   0.400   0.879  0.7549  1.1270 -0.7766
 3177THY    CP279407   4.267   0.395   1.034 -0.2020  0.3470 -0.5267
 3177THY    HP279408   4.162   0.414   1.058 -0.0829  4.0389 -2.2421
 3177THY    HP379409   4.295   0.301   1.084  1.4437  0.9306 -0.2679
 3177THY    HP479410   4.317   0.476   1.089  1.6497 -0.3556 -1.0986
 3177THY    CP379411   4.255   0.267   0.822  0.3183  0.5872  0.5442
 3177THY    HP579412   4.157   0.239   0.862 -0.4862  2.4920 -0.0103
 3177THY    HP679413   4.236   0.282   0.715 -2.3787 -1.8136  0.5768
 3177THY    HP779414   4.319   0.181   0.846 -1.1884 -0.4729  0.8994
 3177THY    CA379415   4.093   0.526   0.825  0.8321 -0.1910  1.0896
 3177THY    HA379416   4.032   0.456   0.881 -1.8359  0.4277 -0.8982
 3177THY    CA479417   4.021   0.629   0.760 -0.2407  0.3644  1.3125
 3177THY    HA479418   3.912   0.626   0.764 -0.4081  2.8282  0.1408
 3177THY    CA579419   4.094   0.723   0.687  0.1025 -0.3191 -0.3840
 3177THY    CM179420   4.023   0.819   0.597 -0.2250  0.4655  0.6243
 3177THY    HM179421   4.077   0.854   0.508  2.2128  0.9439  2.1776
 3177THY    HM279422   3.933   0.767   0.563  0.1525  1.3264 -1.8697
 3177THY    HM379423   3.993   0.903   0.660 -2.2831 -0.2658  0.6749
 3177THY    CA679424   4.231   0.728   0.682  0.4208  0.9939 -0.2626
 3177THY    HA679425   4.279   0.802   0.618 -1.2342 -0.4669 -3.4529
 3178THY      O79426   1.759   1.941   1.147  0.2639  0.1782 -0.0621
 3178THY     HO79427   1.719   1.969   1.231  0.8201  0.7361  0.0220
 3178THY    CA179428   1.704   1.827   1.103  0.4675  0.3510  0.2953
 3178THY    CA279429   1.700   1.803   0.965 -0.5133 -0.1980 -0.2133
 3178THY    CP179430   1.769   1.895   0.864 -0.0514  0.3156 -0.3310
 3178THY    HP179431   1.820   1.981   0.908 -0.1677  1.4433 -2.2997
 3178THY    CP279432   1.891   1.817   0.806 -0.8021  0.1669  0.0621
 3178THY    HP279433   1.855   1.727   0.754  2.8686 -0.9706 -0.8272
 3178THY    HP379434   1.952   1.878   0.739  0.8786 -1.4478  0.0522
 3178THY    HP479435   1.950   1.786   0.893  1.7158  2.4623 -0.7031
 3178THY    CP379436   1.672   1.942   0.751 -0.3583  0.0995 -0.1828
 3178THY    HP579437   1.636   1.854   0.696 -2.2579  0.2274  0.7919
 3178THY    HP679438   1.588   1.989   0.803 -0.9225 -2.3243  1.2594
 3178THY    HP779439   1.732   2.013   0.693  2.1180 -1.6205  0.1018
 3178THY    CA379440   1.625   1.686   0.923  0.0128 -0.3644  0.3970
 3178THY    HA379441   1.609   1.670   0.817  0.6080  0.3401  0.1933
 3178THY    CA479442   1.584   1.592   1.015  0.5031 -0.1690 -0.6896
 3178THY    HA479443   1.535   1.499   0.984 -2.9961  1.1442  0.3824
 3178THY    CA579444   1.606   1.609   1.159  0.1552 -0.5811  0.6984
 3178THY    CM179445   1.576   1.503   1.254  0.1515  0.1965  0.0059
 3178THY    HM179446   1.511   1.432   1.201  0.4221  0.9597 -1.4004
 3178THY    HM279447   1.663   1.452   1.295 -0.2953 -0.6404 -0.0607
 3178THY    HM379448   1.518   1.547   1.336  0.3087  0.3256  0.0488
 3178THY    CA679449   1.659   1.732   1.202 -0.3928 -0.0655  0.5737
 3178THY    HA679450   1.671   1.753   1.308  1.0227 -2.3074  0.9055
 3179THY      O79451   8.293   2.513   6.654 -0.0299  0.1553  0.0207
 3179THY     HO79452   8.353   2.437   6.668  0.2036  0.4345  0.5779
 3179THY    CA179453   8.368   2.611   6.602  0.5485 -0.2476 -0.0817
 3179THY    CA279454   8.321   2.731   6.552  0.1215 -0.1617  0.0351
 3179THY    CP179455   8.172   2.763   6.567 -0.5146 -0.4139 -0.1319
 3179THY    HP179456   8.122   2.719   6.654  0.8137  1.4984  1.6930
 3179THY    CP279457   8.147   2.915   6.586  0.6551  0.2859  0.4993
 3179THY    HP279458   8.150   2.971   6.492 -0.1972 -0.7492 -0.1740
 3179THY    HP379459   8.047   2.930   6.627  0.7694  2.0266  0.2044
 3179THY    HP479460   8.217   2.959   6.658  1.2000  0.8898 -0.3741
 3179THY    CP379461   8.107   2.717   6.437  0.0182  0.0531 -0.2681
 3179THY    HP579462   7.998   2.729   6.447  0.1990  0.0324  2.9741
 3179THY    HP679463   8.145   2.757   6.342  1.5624 -2.0343 -0.6052
 3179THY    HP779464   8.102   2.608   6.423  0.9022  0.1485 -1.4300
 3179THY    CA379465   8.400   2.821   6.482 -0.3054 -0.2628  0.3152
 3179THY    HA379466   8.360   2.914   6.443  0.6991 -0.1870 -0.5793
 3179THY    CA479467   8.529   2.779   6.455 -0.4999  0.4207  0.1397
 3179THY    HA479468   8.598   2.833   6.391  1.2650 -1.3306  0.4813
 3179THY    CA579469   8.580   2.664   6.508  0.0767  0.2172 -0.2278
 3179THY    CM179470   8.727   2.631   6.497  0.1348 -0.6630  0.3615
 3179THY    HM179471   8.782   2.723   6.473 -1.1151  1.0179  3.2604
 3179THY    HM279472   8.766   2.586   6.589  0.1940 -2.4941 -0.5303
 3179THY    HM379473   8.736   2.562   6.413 -0.0664  0.1596 -0.3488
 3179THY    CA679474   8.501   2.584   6.586  0.0573 -0.3405 -0.7031
 3179THY    HA679475   8.552   2.495   6.621 -0.3697 -0.6218 -0.7904
 3180THY      O79476   1.465   2.663   2.677 -0.3332  0.8179 -0.2673
 3180THY     HO79477   1.383   2.710   2.655 -0.6903 -0.0699 -0.8889
 3180THY    CA179478   1.442   2.581   2.783 -0.2451  0.1227  0.3167
 3180THY    CA279479   1.543   2.504   2.834  0.7447  0.3067  0.2272
 3180THY    CP179480   1.684   2.513   2.778  0.0184  0.4398 -0.1461
 3180THY    HP179481   1.688   2.573   2.686  1.1075 -0.5822 -0.7958
 3180THY    CP279482   1.780   2.574   2.887 -0.1627  0.4758  0.1109
 3180THY    HP279483   1.872   2.609   2.838 -1.4408  1.5253 -1.6847
 3180THY    HP379484   1.720   2.650   2.939 -0.8008  0.4923 -0.6309
 3180THY    HP479485   1.810   2.488   2.948 -0.2536  0.2074 -0.2182
 3180THY    CP379486   1.735   2.371   2.729  0.3840  0.1856 -0.3613
 3180THY    HP579487   1.760   2.310   2.816  3.3065  3.0573  1.0299
 3180THY    HP679488   1.658   2.330   2.663 -0.0996  1.9178 -0.9409
 3180THY    HP779489   1.829   2.394   2.677 -0.5459  2.6031 -1.1282
 3180THY    CA379490   1.510   2.411   2.942  0.1764  0.1281  0.3785
 3180THY    HA379491   1.590   2.351   2.984  1.0664 -0.9381 -2.5830
 3180THY    CA479492   1.380   2.411   2.994  0.1397 -0.2603 -0.2457
 3180THY    HA479493   1.362   2.359   3.088 -2.3982  1.0240  0.0653
 3180THY    CA579494   1.282   2.497   2.944  0.0824 -0.2739  0.5536
 3180THY    CM179495   1.140   2.495   2.986  0.6020  0.2021  0.0223
 3180THY    HM179496   1.089   2.592   2.979 -1.9156 -0.9790  0.8744
 3180THY    HM279497   1.079   2.420   2.935 -0.3837  0.9169  0.1345
 3180THY    HM379498   1.134   2.466   3.091 -0.4452  0.3531  0.0117
 3180THY    CA679499   1.322   2.577   2.838  0.4462  0.5721 -0.7995
 3180THY    HA679500   1.244   2.641   2.798  0.7103  2.1897  1.1154
 3181THY      O79501   1.838   0.200   0.271 -0.2778 -0.3817 -1.0176
 3181THY     HO79502   1.889   0.119   0.256  1.1106  0.0312  1.0285
 3181THY    CA179503   1.828   0.260   0.153  0.3596  0.1539  0.6206
 3181THY    CA279504   1.731   0.357   0.123  0.5693  0.1438 -0.0604
 3181THY    CP179505   1.642   0.416   0.237  0.2605  0.8639 -0.0043
 3181THY    HP179506   1.675   0.376   0.333 -0.1500  0.6404  0.0493
 3181THY    CP279507   1.661   0.563   0.258  0.0615  0.0040  0.5544
 3181THY    HP279508   1.747   0.586   0.323 -2.1079 -0.0568  3.6894
 3181THY    HP379509   1.679   0.616   0.164  0.3895 -0.6109  0.2628
 3181THY    HP479510   1.576   0.616   0.303  1.5018  1.6044  1.5485
 3181THY    CP379511   1.502   0.366   0.209  0.1283  0.3997  0.2124
 3181THY    HP579512   1.491   0.260   0.235 -0.5129  0.4671  0.2250
 3181THY    HP679513   1.428   0.424   0.265 -0.8336 -1.1391  0.5791
 3181THY    HP779514   1.482   0.371   0.102 -0.9114  0.5718  0.4102
 3181THY    CA379515   1.721   0.401  -0.005 -0.1509  0.4786  1.0842
 3181THY    HA379516   1.650   0.479  -0.032 -0.6532  0.2297  1.6726
 3181THY    CA479517   1.814   0.349  -0.095  0.8812 -0.3077  0.2325
 3181THY    HA479518   1.820   0.378  -0.200  0.9682  1.5416  0.7283
 3181THY    CA579519   1.905   0.248  -0.067  0.1818 -0.5615  0.1712
 3181THY    CM179520   1.998   0.194  -0.177 -0.2765 -0.3397 -0.0283
 3181THY    HM179521   2.100   0.216  -0.144 -1.0687  2.2292  0.9489
 3181THY    HM279522   1.979   0.092  -0.214  2.2985 -0.1524 -2.1584
 3181THY    HM379523   1.984   0.260  -0.263 -3.1410  2.3924  2.3103
 3181THY    CA679524   1.916   0.209   0.065 -0.3376  0.0283  0.2973
 3181THY    HA679525   1.989   0.133   0.089 -0.3949  0.4878  2.0369
 3182THY      O79526   3.863   7.326   3.017  0.3436  0.0974 -0.3105
 3182THY     HO79527   3.933   7.314   3.083 -0.9010 -0.4774  0.9413
 3182THY    CA179528   3.759   7.389   3.086 -0.0655  0.2221  0.0233
 3182THY    CA279529   3.637   7.432   3.028  0.3015  0.4874 -0.1500
 3182THY    CP179530   3.603   7.387   2.889 -0.0260  0.1802  0.3403
 3182THY    HP179531   3.696   7.362   2.837 -0.2942 -3.2518  1.3118
 3182THY    CP279532   3.522   7.251   2.890 -0.0178  0.0017  0.4323
 3182THY    HP279533   3.483   7.220   2.792  1.3287 -3.5875  0.8633
 3182THY    HP379534   3.588   7.168   2.918 -0.0775  0.2395  1.3136
 3182THY    HP479535   3.441   7.248   2.963 -0.4194 -1.6788 -0.0480
 3182THY    CP379536   3.528   7.492   2.806 -0.4835  0.0221  0.1261
 3182THY    HP579537   3.571   7.584   2.846  1.5706 -1.3040  1.1654
 3182THY    HP679538   3.557   7.490   2.700  1.4784  0.9636  0.6015
 3182THY    HP779539   3.419   7.495   2.821 -0.1460  1.1216  2.9405
 3182THY    CA379540   3.557   7.522   3.108 -0.1037  0.1112  0.5582
 3182THY    HA379541   3.462   7.564   3.078  0.3118  0.5515 -0.1793
 3182THY    CA479542   3.604   7.565   3.233  0.4579 -0.5914  0.2990
 3182THY    HA479543   3.535   7.625   3.291 -2.4203 -2.8051 -0.5803
 3182THY    CA579544   3.715   7.504   3.290 -0.2468 -0.0815  0.0634
 3182THY    CM179545   3.751   7.543   3.430  0.0941 -0.4283  0.4512
 3182THY    HM179546   3.822   7.467   3.465  0.4107 -0.4416 -0.2084
 3182THY    HM279547   3.812   7.634   3.432  0.9638 -1.0106  2.0145
 3182THY    HM379548   3.672   7.573   3.500  1.6159 -2.6415  3.3383
 3182THY    CA679549   3.800   7.429   3.210 -0.5060 -0.1920 -0.2209
 3182THY    HA679550   3.895   7.399   3.255 -0.1960 -1.5546 -1.6705
 3183THY      O79551   4.693   1.301   9.765 -0.1405  0.0098  0.2244
 3183THY     HO79552   4.665   1.392   9.784 -1.7206 -0.1709 -0.9942
 3183THY    CA179553   4.806   1.297   9.692  0.2137  0.5525  0.0236
 3183THY    CA279554   4.879   1.177   9.676  0.5459  1.3062 -0.6263
 3183THY    CP179555   4.826   1.047   9.741 -0.1443 -0.1949  0.2610
 3183THY    HP179556   4.726   1.053   9.784  0.1515 -1.9753  1.2926
 3183THY    CP279557   4.806   0.942   9.630 -0.1118  0.1073  0.3893
 3183THY    HP279558   4.897   0.882   9.616 -1.2280 -1.3655 -0.8954
 3183THY    HP379559   4.734   0.873   9.675 -0.1853 -0.3619 -0.4304
 3183THY    HP479560   4.767   0.973   9.533  1.6774 -2.1764 -1.1716
 3183THY    CP379561   4.915   1.006   9.869 -0.2563  0.1596 -0.3683
 3183THY    HP579562   4.893   1.079   9.948 -1.8430 -1.3474  0.6710
 3183THY    HP679563   4.886   0.904   9.900 -0.1881  0.5072  0.8983
 3183THY    HP779564   5.022   1.000   9.844  0.2976  3.5857  0.7615
 3183THY    CA379565   4.993   1.181   9.595  0.0122  0.0922  0.2091
 3183THY    HA379566   5.054   1.093   9.577 -2.0037 -1.6523  1.4411
 3183THY    CA479567   5.030   1.296   9.532  0.7162 -0.2400 -0.0666
 3183THY    HA479568   5.111   1.288   9.460  1.6162  1.2961  0.7277
 3183THY    CA579569   4.955   1.419   9.543 -0.4726  0.3224 -0.5575
 3183THY    CM179570   4.993   1.544   9.475  0.6764  0.6452 -0.2741
 3183THY    HM179571   4.966   1.544   9.369 -0.7944  1.9351  0.0678
 3183THY    HM279572   4.939   1.626   9.523  0.4745  0.0979  0.4673
 3183THY    HM379573   5.100   1.567   9.481  0.7664  0.2544 -0.3261
 3183THY    CA679574   4.849   1.416   9.634 -0.2307 -0.0500 -0.2535
 3183THY    HA679575   4.794   1.506   9.661 -0.6401  0.2766 -2.0316
 3184THY      O79576   0.432   2.318   4.018 -0.3764 -0.2288 -0.3913
 3184THY     HO79577   0.413   2.333   4.113  0.1659 -0.5591 -0.2267
 3184THY    CA179578   0.359   2.408   3.944 -0.3276 -0.3588  0.4641
 3184THY    CA279579   0.386   2.460   3.812 -0.0194  0.6724 -0.0413
 3184THY    CP179580   0.530   2.429   3.753  0.6621 -0.1009  0.0417
 3184THY    HP179581   0.560   2.331   3.792  1.2375  0.7500  1.8740
 3184THY    CP279582   0.540   2.442   3.602  0.0233  0.3729  0.5945
 3184THY    HP279583   0.539   2.546   3.566  0.1338  0.2445  0.2203
 3184THY    HP379584   0.635   2.398   3.572 -0.9298 -1.1735 -0.2868
 3184THY    HP479585   0.460   2.386   3.552 -0.6023  1.6555  0.1017
 3184THY    CP379586   0.630   2.532   3.812  0.1496  0.5036  0.2501
 3184THY    HP579587   0.606   2.549   3.918 -2.6980 -0.3283 -0.1634
 3184THY    HP679588   0.727   2.483   3.803 -0.5427 -1.2294  1.4566
 3184THY    HP779589   0.623   2.625   3.755 -0.1732  1.1229  1.2619
 3184THY    CA379590   0.295   2.545   3.749  0.0227  0.1867  0.2159
 3184THY    HA379591   0.325   2.586   3.653 -0.6660 -0.4324 -0.2709
 3184THY    CA479592   0.173   2.573   3.812  0.0171  0.6163  0.5479
 3184THY    HA479593   0.105   2.645   3.769 -0.4561 -0.5888 -0.8107
 3184THY    CA579594   0.142   2.521   3.934  0.3414 -0.4223 -0.3556
 3184THY    CM179595   0.011   2.551   4.003 -0.2037 -0.1021 -0.3162
 3184THY    HM179596  -0.047   2.458   4.011 -1.3498  0.2352 -3.3815
 3184THY    HM279597   0.032   2.609   4.093 -1.5119  0.5915 -0.4319
 3184THY    HM379598  -0.045   2.626   3.946 -2.0604 -1.2245 -0.0721
 3184THY    CA679599   0.231   2.435   3.997 -0.0374  0.3241  0.1216
 3184THY    HA679600   0.208   2.390   4.093 -0.5351 -1.1867 -0.6733
 3185THY      O79601   0.630   5.916   3.327 -0.2214  0.5485 -0.2601
 3185THY     HO79602   0.542   5.876   3.315 -0.7110  1.4378  0.2086
 3185THY    CA179603   0.607   6.051   3.311  0.6242  0.2096  0.4331
 3185THY    CA279604   0.675   6.149   3.379 -0.2405 -0.9570 -0.0894
 3185THY    CP179605   0.797   6.106   3.471  1.1884 -0.3012 -0.5029
 3185THY    HP179606   0.822   6.003   3.445  0.2878 -0.1923 -1.8782
 3185THY    CP279607   0.918   6.194   3.456  0.4485 -0.0240  0.2927
 3185THY    HP279608   0.952   6.184   3.352  0.3092 -0.3067  0.2753
 3185THY    HP379609   0.898   6.302   3.462 -1.4787 -0.3100 -0.4600
 3185THY    HP479610   1.001   6.167   3.523  1.1627 -0.8444 -0.8744
 3185THY    CP379611   0.744   6.111   3.615 -0.0733 -0.7989 -0.3092
 3185THY    HP579612   0.658   6.044   3.627 -0.3988 -0.2263  0.6798
 3185THY    HP679613   0.826   6.068   3.674  1.1556  0.4240 -1.0805
 3185THY    HP779614   0.730   6.215   3.648  0.6192 -0.7830 -0.0457
 3185THY    CA379615   0.629   6.285   3.366  0.5010 -0.0255 -0.9139
 3185THY    HA379616   0.679   6.360   3.426 -1.3167 -0.4743  1.2823
 3185THY    CA479617   0.525   6.320   3.281 -0.2880  0.3466  0.8278
 3185THY    HA479618   0.491   6.423   3.269 -1.1422  0.0084  0.2411
 3185THY    CA579619   0.466   6.218   3.197 -0.5563 -0.2314  0.0547
 3185THY    CM179620   0.366   6.267   3.101 -0.8168  0.2720 -0.1210
 3185THY    HM179621   0.390   6.373   3.091 -0.2628  0.3848  1.8868
 3185THY    HM279622   0.366   6.223   3.001  1.7486 -0.1833  0.0069
 3185THY    HM379623   0.263   6.253   3.135 -0.3815  0.1951  1.2358
 3185THY    CA679624   0.515   6.086   3.209  0.5987 -0.8466 -0.1330
 3185THY    HA679625   0.455   6.013   3.155  0.9401 -1.4273  0.2640
 3186THY      O79626   8.878   6.806   8.674  0.2821  0.1506 -0.7017
 3186THY     HO79627   8.897   6.813   8.579  2.1459 -0.8779 -0.4455
 3186THY    CA179628   8.905   6.680   8.713 -1.0224 -0.9791 -0.1159
 3186THY    CA279629   8.910   6.640   8.848  0.4537 -0.1121  0.3536
 3186THY    CP179630   8.842   6.724   8.962  0.0595  0.3621 -0.6106
 3186THY    HP179631   8.782   6.799   8.908  1.7890  2.4159  0.1905
 3186THY    CP279632   8.749   6.640   9.045 -0.3148 -0.1597 -0.5284
 3186THY    HP279633   8.816   6.563   9.085 -0.1353  0.4403  0.3600
 3186THY    HP379634   8.713   6.703   9.128 -0.2712  1.0224 -1.3735
 3186THY    HP479635   8.661   6.605   8.989 -1.5061  0.7408  0.7032
 3186THY    CP379636   8.946   6.785   9.059 -0.8985  0.4080  0.6214
 3186THY    HP579637   9.015   6.849   9.003 -0.6481 -0.4436 -0.0661
 3186THY    HP679638   8.901   6.852   9.134 -1.0525  2.3508 -1.1231
 3186THY    HP779639   9.011   6.710   9.105  0.2440  0.5675 -0.6803
 3186THY    CA379640   8.974   6.519   8.874 -0.5601 -0.0217 -0.1734
 3186THY    HA379641   8.986   6.484   8.976  1.5059  0.5407 -0.1590
 3186THY    CA479642   9.014   6.427   8.773 -0.0023 -0.4291  0.9797
 3186THY    HA479643   9.063   6.333   8.795 -0.4668 -0.7628  0.6132
 3186THY    CA579644   8.997   6.464   8.637  1.3177 -0.8917 -0.8822
 3186THY    CM179645   9.038   6.367   8.531  0.1442  1.0079 -0.4775
 3186THY    HM179646   9.000   6.393   8.431 -1.1987  1.7080  0.1901
 3186THY    HM279647   9.146   6.370   8.519 -0.0666  2.1413 -2.5822
 3186THY    HM379648   9.001   6.267   8.559 -0.1000  0.6951 -1.8412
 3186THY    CA679649   8.946   6.593   8.614 -0.0119  0.3648  0.7515
 3186THY    HA679650   8.938   6.614   8.508 -1.5329  0.2376  0.8113
 3187THY      O79651   5.743   5.246   2.729 -0.2918 -0.0650  0.0292
 3187THY     HO79652   5.739   5.334   2.770  0.7735  0.3171 -0.6459
 3187THY    CA179653   5.614   5.200   2.711 -0.0719  0.0939  0.4613
 3187THY    CA279654   5.595   5.061   2.681  0.1790  0.2335 -0.1501
 3187THY    CP179655   5.712   4.956   2.679 -0.2355 -0.9178  0.3880
 3187THY    HP179656   5.796   5.007   2.630  0.1049 -0.9034  0.9746
 3187THY    CP279657   5.751   4.912   2.815  0.3525  0.2877  0.3896
 3187THY    HP279658   5.804   4.991   2.869  0.8124 -0.4154  0.9719
 3187THY    HP379659   5.659   4.886   2.869  0.1807 -1.2165 -0.5729
 3187THY    HP479660   5.818   4.826   2.811  0.6630  0.4652  1.4910
 3187THY    CP379661   5.687   4.825   2.592 -0.1936  0.6382 -0.9012
 3187THY    HP579662   5.786   4.796   2.554 -0.7991 -1.1984 -1.1639
 3187THY    HP679663   5.641   4.742   2.646 -1.4947 -0.1778 -3.1084
 3187THY    HP779664   5.625   4.842   2.503 -2.4740 -1.1994  0.2349
 3187THY    CA379665   5.461   5.023   2.650  0.8007 -0.0301 -0.3467
 3187THY    HA379666   5.444   4.919   2.622 -0.6271 -0.1033  0.6697
 3187THY    CA479667   5.357   5.116   2.650 -0.0553  0.0063 -0.3009
 3187THY    HA479668   5.254   5.091   2.630 -0.1035  0.2944 -0.4162
 3187THY    CA579669   5.378   5.255   2.687 -0.0265 -0.0834  0.3905
 3187THY    CM179670   5.260   5.349   2.698  0.7666 -0.3837 -0.2708
 3187THY    HM179671   5.183   5.296   2.756  1.1642 -2.0288 -1.1942
 3187THY    HM279672   5.294   5.438   2.753  1.7403 -0.3466 -0.9122
 3187THY    HM379673   5.215   5.368   2.600 -2.9387 -0.6792  1.2186
 3187THY    CA679674   5.512   5.293   2.718  0.8117 -0.4886 -0.4646
 3187THY    HA679675   5.524   5.398   2.744 -3.4782  0.2510 -0.6701
 3188THY      O79676   1.959   0.013   1.448  0.0006 -0.7855 -0.4587
 3188THY     HO79677   1.895   0.082   1.474 -1.1254 -2.1767  0.6303
 3188THY    CA179678   1.915  -0.042   1.335 -0.3913  0.3099  0.0753
 3188THY    CA279679   1.995  -0.136   1.261 -0.5090  0.6303  0.0885
 3188THY    CP179680   2.127  -0.198   1.313  0.0258  0.0611  0.2681
 3188THY    HP179681   2.126  -0.193   1.423  0.2565 -1.8973  0.3870
 3188THY    CP279682   2.142  -0.349   1.279  0.0501  0.1468 -0.7800
 3188THY    HP279683   2.176  -0.378   1.179  0.6519 -0.6999 -0.3406
 3188THY    HP379684   2.216  -0.391   1.347 -1.2369  0.9047  1.2036
 3188THY    HP479685   2.043  -0.394   1.298  0.1998  0.0316 -0.2576
 3188THY    CP379686   2.250  -0.118   1.262  0.9612  0.4457 -0.2988
 3188THY    HP579687   2.297  -0.154   1.170  1.9367  0.9545 -0.0207
 3188THY    HP679688   2.231  -0.010   1.259  0.2072  0.2999 -0.9425
 3188THY    HP779689   2.327  -0.135   1.339  0.0806  1.7005  0.9051
 3188THY    CA379690   1.948  -0.185   1.138  0.5655 -0.8441 -0.2075
 3188THY    HA379691   2.001  -0.259   1.079  1.9072  0.8485 -1.2158
 3188THY    CA479692   1.831  -0.142   1.083 -0.0037  0.2627  0.6232
 3188THY    HA479693   1.804  -0.169   0.981  2.5916  0.3253 -0.1614
 3188THY    CA579694   1.756  -0.049   1.153 -0.1442  0.5726 -0.3431
 3188THY    CM179695   1.631  -0.004   1.087  0.3614 -0.1181 -0.4232
 3188THY    HM179696   1.657   0.094   1.047  0.1064 -0.1935 -0.7782
 3188THY    HM279697   1.593  -0.069   1.007 -1.4282 -0.3304  0.5460
 3188THY    HM379698   1.551  -0.005   1.162  2.2006  1.6329  1.7206
 3188THY    CA679699   1.798   0.006   1.276 -1.0068 -0.4791 -0.5337
 3188THY    HA679700   1.742   0.084   1.326  2.0781  1.5138  0.1078
 3189THY      O79701   1.403   6.693   4.383 -0.2782 -0.3314  0.3138
 3189THY     HO79702   1.440   6.647   4.461  0.4880  0.8077  0.6390
 3189THY    CA179703   1.275   6.712   4.425  0.1963 -0.3533 -0.6431
 3189THY    CA279704   1.203   6.817   4.366  0.1647 -0.5496  1.0265
 3189THY    CP179705   1.258   6.882   4.244 -0.2367 -0.3479  0.4859
 3189THY    HP179706   1.316   6.818   4.177  1.3883  1.8963 -0.3657
 3189THY    CP279707   1.150   6.937   4.154  0.1652 -0.2313 -0.0373
 3189THY    HP279708   1.186   6.954   4.052  0.5251 -1.4042 -0.1266
 3189THY    HP379709   1.067   6.865   4.156 -2.5635  2.6882  0.9253
 3189THY    HP479710   1.112   7.035   4.186 -0.6914  0.0876 -1.8903
 3189THY    CP379711   1.348   6.999   4.286 -0.0603 -0.5165  0.6818
 3189THY    HP579712   1.304   7.065   4.362  1.0348  0.6105  0.3647
 3189THY    HP679713   1.436   6.964   4.342 -0.7162 -2.3969  0.6256
 3189THY    HP779714   1.390   7.050   4.199 -0.4517 -2.8510 -0.9460
 3189THY    CA379715   1.080   6.859   4.427 -0.7136 -0.0767  0.2809
 3189THY    HA379716   1.026   6.942   4.382  0.6471  0.0622 -1.2058
 3189THY    CA479717   1.034   6.793   4.539 -1.0163  0.2024 -0.5320
 3189THY    HA479718   0.937   6.811   4.584 -0.2114 -1.0839  1.9662
 3189THY    CA579719   1.108   6.686   4.594  0.5205  0.0674 -0.2414
 3189THY    CM179720   1.076   6.628   4.729  0.1047 -0.0132 -0.7062
 3189THY    HM179721   0.981   6.574   4.717 -0.4896  0.0868  2.5239
 3189THY    HM279722   1.140   6.554   4.778 -0.1856  0.3848  0.2987
 3189THY    HM379723   1.055   6.707   4.802 -0.4450 -1.9392  1.3670
 3189THY    CA679724   1.229   6.649   4.540  0.1508  0.3021 -0.2341
 3189THY    HA679725   1.289   6.578   4.596  0.0015  0.3127 -0.0590
 3190THY      O79726   1.769   3.490   5.031 -0.7372 -0.4678 -0.1790
 3190THY     HO79727   1.773   3.398   5.059  0.6644 -0.2468  0.4049
 3190THY    CA179728   1.897   3.542   5.054 -0.2344 -0.1311  0.1404
 3190THY    CA279729   1.942   3.655   4.987  0.1167 -0.2135 -0.1357
 3190THY    CP179730   1.840   3.719   4.887 -0.7120  0.3208  0.9188
 3190THY    HP179731   1.768   3.653   4.837  0.0458  1.3524 -1.7053
 3190THY    CP279732   1.757   3.821   4.965 -0.5513 -0.1134 -0.0467
 3190THY    HP279733   1.729   3.791   5.066  1.4459  1.8854  1.1992
 3190THY    HP379734   1.806   3.918   4.971 -1.9182  0.6726 -0.9750
 3190THY    HP479735   1.669   3.825   4.900 -0.1973 -0.3651 -0.5495
 3190THY    CP379736   1.921   3.786   4.767 -0.5515  0.7146  0.1109
 3190THY    HP579737   1.851   3.819   4.689  0.8089  1.1875 -0.9525
 3190THY    HP679738   1.982   3.869   4.804 -0.3380 -0.2144  1.9420
 3190THY    HP779739   1.989   3.711   4.725 -2.3473 -0.4141 -0.9573
 3190THY    CA379740   2.064   3.711   5.017 -0.0220 -0.2051 -0.6445
 3190THY    HA379741   2.087   3.806   4.968 -1.9299 -0.2138 -1.6377
 3190THY    CA479742   2.149   3.645   5.105  0.2279  0.5182 -0.5075
 3190THY    HA479743   2.244   3.696   5.118 -1.1374  3.5201 -1.4787
 3190THY    CA579744   2.105   3.526   5.173 -0.7091 -0.8975  0.1908
 3190THY    CM179745   2.198   3.446   5.247  0.1346  0.0476 -0.2423
 3190THY    HM179746   2.143   3.419   5.338  0.1151 -0.6171 -0.4421
 3190THY    HM279747   2.233   3.357   5.193  1.4634 -1.5281  2.9719
 3190THY    HM379748   2.283   3.506   5.278  2.0943 -2.2145 -0.9135
 3190THY    CA679749   1.979   3.481   5.150  0.6139 -0.0996 -0.5494
 3190THY    HA679750   1.946   3.391   5.202  2.4039 -1.1029 -1.0299
 3191THY      O79751   2.111   6.941   9.455  0.2318  0.1046 -0.2406
 3191THY     HO79752   2.148   6.851   9.456 -0.3521 -0.1407 -0.2191
 3191THY    CA179753   2.221   7.016   9.457  0.3663 -0.4477 -0.3844
 3191THY    CA279754   2.243   7.127   9.544  0.2604  0.3403 -0.5168
 3191THY    CP179755   2.141   7.177   9.648 -0.1211 -0.4116  0.6980
 3191THY    HP179756   2.049   7.118   9.655 -0.7231  0.5890  1.3789
 3191THY    CP279757   2.202   7.162   9.794 -0.4697  0.0185  0.0693
 3191THY    HP279758   2.272   7.238   9.830 -0.3843  0.1290 -0.3204
 3191THY    HP379759   2.119   7.170   9.864 -0.5663 -1.4696  0.1655
 3191THY    HP479760   2.256   7.068   9.812  0.4476  0.6175  0.5327
 3191THY    CP379761   2.109   7.324   9.620  0.1301  0.5125  0.5624
 3191THY    HP579762   2.107   7.347   9.513 -0.7339 -1.6918  0.0379
 3191THY    HP679763   2.020   7.357   9.674  0.4745 -0.8957  2.0878
 3191THY    HP779764   2.192   7.384   9.659  0.5013 -0.0647  0.6828
 3191THY    CA379765   2.371   7.184   9.539 -0.6043 -0.6566 -0.4883
 3191THY    HA379766   2.398   7.259   9.613 -1.2517 -0.1874 -0.7119
 3191THY    CA479767   2.468   7.144   9.447 -0.1351  0.8095  0.0407
 3191THY    HA479768   2.566   7.190   9.451 -0.4776  1.5810 -0.3106
 3191THY    CA579769   2.437   7.052   9.346 -0.6265  0.1578  0.0673
 3191THY    CM179770   2.530   7.010   9.231 -0.1847 -0.5117  0.1762
 3191THY    HM179771   2.484   7.037   9.135 -0.9826 -1.3379  0.3162
 3191THY    HM279772   2.625   7.064   9.241  0.3661 -1.5085  0.5116
 3191THY    HM379773   2.549   6.903   9.246  2.6313 -0.1739 -0.3563
 3191THY    CA679774   2.312   6.986   9.360 -0.3912  0.3651 -0.5306
 3191THY    HA679775   2.281   6.908   9.292 -1.8467 -1.7521  2.3192
 3192THY      O79776   6.992   5.853   7.818 -0.2241  0.0521  0.0094
 3192THY     HO79777   6.959   5.877   7.906 -0.4548 -2.1986  0.6022
 3192THY    CA179778   6.901   5.756   7.766 -0.0121 -0.6420  0.1081
 3192THY    CA279779   6.821   5.785   7.654 -0.0590  0.1056  0.3207
 3192THY    CP179780   6.840   5.903   7.564  0.1212 -0.0196 -0.3195
 3192THY    HP179781   6.919   5.967   7.604  1.1264 -0.8958 -0.8467
 3192THY    CP279782   6.887   5.850   7.428 -0.7829 -0.1103 -0.7991
 3192THY    HP279783   6.829   5.764   7.393 -0.2506 -0.4586 -0.8266
 3192THY    HP379784   6.876   5.934   7.358  1.0989 -0.1264 -1.1696
 3192THY    HP479785   6.993   5.822   7.421 -0.7314  0.3736 -2.1518
 3192THY    CP379786   6.715   5.991   7.537 -0.5940 -0.6916  0.2107
 3192THY    HP579787   6.745   6.094   7.518 -0.1225 -1.0214 -0.8704
 3192THY    HP679788   6.646   5.954   7.461 -1.4209 -3.2378  2.0531
 3192THY    HP779789   6.655   6.000   7.629 -1.0106  0.3253 -0.1478
 3192THY    CA379790   6.706   5.710   7.630  0.1800 -0.4199  0.3799
 3192THY    HA379791   6.630   5.741   7.559 -1.4270 -2.3667  1.1407
 3192THY    CA479792   6.689   5.594   7.708 -0.0155 -0.1070  0.1069
 3192THY    HA479793   6.610   5.524   7.685 -1.5993  0.9487  2.0434
 3192THY    CA579794   6.771   5.563   7.816  0.0968  0.2345 -0.7518
 3192THY    CM179795   6.737   5.445   7.906 -0.0892 -0.3872  0.1130
 3192THY    HM179796   6.656   5.389   7.858  1.5529 -1.1396 -1.9701
 3192THY    HM279797   6.828   5.384   7.912  0.3633  0.1023 -1.2346
 3192THY    HM379798   6.712   5.480   8.007  2.0998 -2.0379  1.3016
 3192THY    CA679799   6.880   5.641   7.840  0.3244 -1.4349 -1.7344
 3192THY    HA679800   6.943   5.638   7.929  0.9854  1.5982 -1.9790
 3193THY      O79801   7.205   8.712   1.059  0.1763  0.1399  0.3559
 3193THY     HO79802   7.247   8.761   1.132  0.6999 -0.5698  0.5465
 3193THY    CA179803   7.074   8.736   1.075  0.0061 -0.0138 -0.7158
 3193THY    CA279804   6.982   8.703   0.972 -0.2939  0.0094  1.0233
 3193THY    CP179805   7.026   8.639   0.839  0.3237  0.1456 -0.5608
 3193THY    HP179806   7.136   8.634   0.832  0.6196  1.1029  2.2677
 3193THY    CP279807   6.957   8.500   0.811  0.0706  0.4770  0.5551
 3193THY    HP279808   6.987   8.431   0.891 -0.8969  0.4298  0.8883
 3193THY    HP379809   6.848   8.511   0.812  0.0877  0.7267  0.1428
 3193THY    HP479810   6.985   8.458   0.713 -0.1905  1.0466  0.2314
 3193THY    CP379811   6.987   8.728   0.724  0.1723  0.3382  0.3607
 3193THY    HP579812   7.035   8.826   0.736 -1.7275  1.1680  1.7024
 3193THY    HP679813   7.015   8.687   0.626  0.5881  1.5886 -0.0612
 3193THY    HP779814   6.878   8.740   0.712  0.4485  1.0899 -2.0366
 3193THY    CA379815   6.846   8.728   0.999 -0.0172 -0.2456 -0.3553
 3193THY    HA379816   6.771   8.708   0.923 -1.5510  1.0925  0.7113
 3193THY    CA479817   6.804   8.792   1.118  0.4098 -0.0166 -0.5173
 3193THY    HA479818   6.697   8.807   1.133  0.5746  1.9275 -0.9851
 3193THY    CA579819   6.899   8.824   1.216  0.3089 -0.3072  0.0820
 3193THY    CM179820   6.853   8.897   1.348  0.6265  0.5627 -0.1243
 3193THY    HM179821   6.936   8.945   1.401  0.5237 -0.8948  1.4369
 3193THY    HM279822   6.785   8.979   1.321  1.3818  0.2564 -3.3623
 3193THY    HM379823   6.801   8.839   1.425 -0.2489  1.1994 -0.2177
 3193THY    CA679824   7.035   8.795   1.192 -0.7687  0.3858 -0.5860
 3193THY    HA679825   7.107   8.823   1.269 -1.2564 -2.0737  0.8556
 3194THY      O79826   6.115   1.964   1.836 -0.0733  0.0858 -0.3491
 3194THY     HO79827   6.036   2.006   1.872 -0.5277 -1.3439  0.3992
 3194THY    CA179828   6.087   1.942   1.704  0.1768  0.0129 -0.8375
 3194THY    CA279829   6.184   1.878   1.623 -0.1712  0.2216  0.3085
 3194THY    CP179830   6.320   1.832   1.684  0.5538  0.7854  0.5166
 3194THY    HP179831   6.313   1.818   1.792  0.9980 -1.5267  0.2839
 3194THY    CP279832   6.363   1.696   1.624 -0.3322 -0.0752 -0.2781
 3194THY    HP279833   6.438   1.649   1.689 -1.1626  0.8713  1.4444
 3194THY    HP379834   6.280   1.624   1.615  0.2317 -0.5615 -1.8317
 3194THY    HP479835   6.412   1.718   1.529 -1.0317  1.2155 -0.3633
 3194THY    CP379836   6.428   1.939   1.671 -0.3243  0.0910 -0.0515
 3194THY    HP579837   6.405   2.024   1.737 -0.3038  0.8365 -0.9744
 3194THY    HP679838   6.525   1.895   1.696  0.3624  0.4855 -1.8759
 3194THY    HP779839   6.421   1.990   1.574 -2.9044  1.2824  0.6696
 3194THY    CA379840   6.161   1.868   1.486  0.4814 -0.3495  0.6219
 3194THY    HA379841   6.228   1.822   1.415  0.6295 -0.7721  1.0370
 3194THY    CA479842   6.036   1.912   1.435 -0.3977  0.4285  0.1702
 3194THY    HA479843   6.000   1.881   1.338 -1.5630 -1.1916  1.0646
 3194THY    CA579844   5.942   1.972   1.518 -0.2977  0.5547  0.7007
 3194THY    CM179845   5.814   2.021   1.445 -0.6613 -0.0601  0.9354
 3194THY    HM179846   5.726   2.003   1.508 -0.9926  0.7417  0.7172
 3194THY    HM279847   5.831   2.128   1.425 -3.5727  0.1894 -0.7633
 3194THY    HM379848   5.799   1.974   1.347 -0.0578 -0.7112  1.1520
 3194THY    CA679849   5.967   1.984   1.652  0.6101 -0.4892  0.2943
 3194THY    HA679850   5.897   2.036   1.717 -0.1560  2.3626 -2.5300
 3195THY      O79851   7.525   6.096   3.805  0.4468  0.2992  0.3748
 3195THY     HO79852   7.608   6.046   3.813  0.4145 -0.2019 -1.6580
 3195THY    CA179853   7.521   6.153   3.682  0.3312  0.1459  0.1920
 3195THY    CA279854   7.399   6.206   3.627  0.1014 -0.1641 -0.1006
 3195THY    CP179855   7.259   6.175   3.687  0.0016 -0.3781  0.4510
 3195THY    HP179856   7.264   6.128   3.786  0.1903 -0.3998  0.4300
 3195THY    CP279857   7.188   6.311   3.735  0.1331  0.5946  0.8203
 3195THY    HP279858   7.248   6.368   3.808 -1.2770  2.8262  0.3381
 3195THY    HP379859   7.165   6.384   3.657 -0.5704 -0.3991  0.0795
 3195THY    HP479860   7.099   6.286   3.794  0.1169  1.2871  1.0967
 3195THY    CP379861   7.165   6.089   3.600 -0.7812 -0.3572  0.0424
 3195THY    HP579862   7.217   5.993   3.592  1.8297  0.9347  0.3360
 3195THY    HP679863   7.067   6.078   3.647 -0.4004 -0.4874  0.8249
 3195THY    HP779864   7.148   6.117   3.495  0.1401  1.0670  0.2452
 3195THY    CA379865   7.407   6.263   3.499  0.4736 -0.2044  0.3149
 3195THY    HA379866   7.317   6.289   3.443  0.9014 -0.4433 -0.4969
 3195THY    CA479867   7.524   6.266   3.425 -0.1012  0.0091  0.4501
 3195THY    HA479868   7.514   6.278   3.318 -0.3624 -1.0386  0.3508
 3195THY    CA579869   7.638   6.226   3.489 -0.2226 -0.2331 -0.3689
 3195THY    CM179870   7.762   6.249   3.413 -0.5961 -0.0443 -0.2571
 3195THY    HM179871   7.759   6.223   3.306  0.4642  0.0013 -0.3102
 3195THY    HM279872   7.801   6.352   3.418  1.5942 -0.6993 -2.0450
 3195THY    HM379873   7.836   6.177   3.449 -0.5372  0.2819  0.2841
 3195THY    CA679874   7.641   6.168   3.617  0.0281 -0.5384  0.6793
 3195THY    HA679875   7.735   6.130   3.655  0.8393 -0.0383 -0.7562
 3196THY      O79876   4.268   6.882   2.163 -0.3900  0.2124  0.1760
 3196THY     HO79877   4.191   6.942   2.155 -0.6553 -0.1687 -0.1733
 3196THY    CA179878   4.352   6.922   2.065  0.3928  0.3608  0.3957
 3196THY    CA279879   4.484   6.874   2.063  0.0142 -0.4068 -0.8918
 3196THY    CP179880   4.540   6.773   2.171 -0.2251 -1.0266  0.4006
 3196THY    HP179881   4.465   6.725   2.236  0.5519 -0.8643  1.4425
 3196THY    CP279882   4.614   6.658   2.095 -0.3710 -0.4210 -0.0426
 3196THY    HP279883   4.711   6.679   2.048 -0.7577  2.5039  0.2633
 3196THY    HP379884   4.620   6.590   2.180 -0.2693  0.0482  0.3285
 3196THY    HP479885   4.544   6.607   2.028 -0.4573 -0.7826  0.3244
 3196THY    CP379886   4.624   6.842   2.273 -0.9494  0.6223 -0.1644
 3196THY    HP579887   4.728   6.856   2.239 -0.1637 -2.5085  0.5733
 3196THY    HP679888   4.574   6.935   2.301 -0.0340  0.6333  1.5460
 3196THY    HP779889   4.622   6.772   2.357  0.1581  0.7887  0.0258
 3196THY    CA379890   4.570   6.931   1.966 -0.5703  0.1974  0.1391
 3196THY    HA379891   4.672   6.896   1.952 -0.0081  1.9987 -0.5278
 3196THY    CA479892   4.528   7.031   1.880 -0.0837  0.8550  0.3829
 3196THY    HA479893   4.599   7.068   1.806 -0.7586 -1.2754 -1.4417
 3196THY    CA579894   4.393   7.075   1.881  0.3140  1.2406 -0.1072
 3196THY    CM179895   4.344   7.164   1.784  0.6256  0.0854 -0.5496
 3196THY    HM179896   4.388   7.264   1.776  1.3319  0.0917  2.2405
 3196THY    HM279897   4.349   7.117   1.685 -0.1521 -0.0296 -0.5445
 3196THY    HM379898   4.238   7.187   1.801  0.2600 -2.1493  0.5337
 3196THY    CA679899   4.309   7.012   1.972  0.6457  0.4105 -0.0982
 3196THY    HA679900   4.203   7.036   1.968  0.2400 -1.3545 -0.5032
 3197THY      O79901   0.826   5.373   4.153  0.1674  0.5139 -0.1452
 3197THY     HO79902   0.750   5.352   4.097 -0.4403 -0.4567  1.0143
 3197THY    CA179903   0.856   5.252   4.206 -0.4479  0.1892 -0.0289
 3197THY    CA279904   0.879   5.229   4.340  0.1256 -0.6827 -0.7174
 3197THY    CP179905   0.884   5.348   4.440 -0.7528 -0.0386 -0.6058
 3197THY    HP179906   0.896   5.446   4.393  2.6752  0.1767  0.4673
 3197THY    CP279907   0.751   5.339   4.512 -0.5229  0.1949 -0.0498
 3197THY    HP279908   0.746   5.426   4.578 -1.7001 -0.1695  0.3641
 3197THY    HP379909   0.666   5.351   4.444  0.1595 -1.1000 -1.2057
 3197THY    HP479910   0.740   5.240   4.559 -0.6483  0.2547  0.0438
 3197THY    CP379911   1.004   5.337   4.546  0.0728  0.6640 -0.2309
 3197THY    HP579912   1.029   5.437   4.584  0.4475  0.5981 -0.2985
 3197THY    HP679913   0.981   5.265   4.625  2.2372 -0.5233 -0.5995
 3197THY    HP779914   1.089   5.293   4.492  1.0244  0.0334  1.7034
 3197THY    CA379915   0.903   5.104   4.388 -0.5543  0.3396 -0.6273
 3197THY    HA379916   0.925   5.089   4.493  0.7711 -0.3539 -0.9818
 3197THY    CA479917   0.906   4.997   4.293 -0.3470 -0.2592  0.1142
 3197THY    HA479918   0.931   4.898   4.331 -1.5022 -0.3771  0.6217
 3197THY    CA579919   0.903   5.025   4.154  0.5714 -0.6232 -0.8422
 3197THY    CM179920   0.939   4.933   4.049  0.0964  0.0752 -0.0485
 3197THY    HM179921   1.027   4.968   3.994 -0.3623  0.3098 -0.6394
 3197THY    HM279922   0.944   4.828   4.082  0.4342 -0.4217 -1.5766
 3197THY    HM379923   0.857   4.940   3.977 -0.7386  0.4816  0.9303
 3197THY    CA679924   0.865   5.152   4.110 -0.2327 -0.3220 -0.2611
 3197THY    HA679925   0.869   5.172   4.004  0.8503 -0.9489 -0.3558
 3198THY      O79926   7.635   1.580   3.079  0.0100  0.6956 -0.3198
 3198THY     HO79927   7.539   1.564   3.070  0.2349 -0.2524 -1.1530
 3198THY    CA179928   7.655   1.705   3.123  0.2395 -0.5534  0.0148
 3198THY    CA279929   7.783   1.759   3.107 -0.4159  0.1287 -0.2567
 3198THY    CP179930   7.909   1.669   3.081 -0.2431 -0.0061  0.0994
 3198THY    HP179931   7.874   1.566   3.088 -0.0560 -0.0760  0.0252
 3198THY    CP279932   7.966   1.705   2.936  0.7043  0.9058  0.2405
 3198THY    HP279933   8.066   1.751   2.940  1.3417 -0.4418  0.3480
 3198THY    HP379934   7.982   1.621   2.868  1.5581  2.1829 -1.1788
 3198THY    HP479935   7.898   1.777   2.889  2.3720  3.8078  2.0030
 3198THY    CP379936   8.020   1.694   3.186 -0.6924  0.6835 -0.2063
 3198THY    HP579937   8.062   1.795   3.192  0.6958  0.0574  1.3342
 3198THY    HP679938   7.976   1.677   3.285 -1.8420  1.2200 -0.6036
 3198THY    HP779939   8.108   1.634   3.163 -0.8708  0.7727 -1.1824
 3198THY    CA379940   7.806   1.900   3.129 -0.5685 -0.5567 -0.0723
 3198THY    HA379941   7.906   1.938   3.113 -0.8645 -0.2722 -1.2928
 3198THY    CA479942   7.698   1.982   3.166 -0.3768  0.5007 -0.0049
 3198THY    HA479943   7.722   2.088   3.173  0.6057  0.2059  1.5610
 3198THY    CA579944   7.568   1.927   3.166 -0.7047 -0.3952  0.0167
 3198THY    CM179945   7.443   2.005   3.186 -0.2479  0.0592  0.0393
 3198THY    HM179946   7.382   1.985   3.097 -1.3204 -0.5151  0.8706
 3198THY    HM279947   7.390   1.955   3.268 -0.1928 -1.8252 -1.0221
 3198THY    HM379948   7.463   2.111   3.202  0.5521  0.0080 -0.5926
 3198THY    CA679949   7.548   1.789   3.149  0.3044 -0.3569 -0.3684
 3198THY    HA679950   7.450   1.747   3.132 -0.5548  1.2342  0.5153
 3199THY      O79951   0.921   1.812   2.466  0.2229 -0.7032  0.1971
 3199THY     HO79952   0.941   1.899   2.506  0.3629 -0.6896  0.0997
 3199THY    CA179953   1.040   1.748   2.479 -0.3457 -0.5061  0.4942
 3199THY    CA279954   1.098   1.674   2.371 -0.6163  0.1674 -0.2073
 3199THY    CP179955   1.028   1.672   2.238 -0.2723 -0.5703  0.8407
 3199THY    HP179956   0.933   1.726   2.245  0.0242  0.1734 -0.4372
 3199THY    CP279957   1.101   1.753   2.141 -0.2013 -0.7974 -0.0977
 3199THY    HP279958   1.159   1.683   2.080  1.2520  0.7795 -0.6221
 3199THY    HP379959   1.029   1.798   2.072 -0.1756  2.2375  1.6705
 3199THY    HP479960   1.175   1.826   2.177 -2.2766  0.8798  1.0553
 3199THY    CP379961   0.996   1.532   2.192 -0.5657  0.2216  0.0883
 3199THY    HP579962   1.085   1.468   2.201 -1.8789 -1.7304 -0.1520
 3199THY    HP679963   0.918   1.491   2.256 -2.7308  0.9605 -1.9346
 3199THY    HP779964   0.952   1.527   2.091  1.2234 -2.6179 -0.6705
 3199THY    CA379965   1.226   1.614   2.398 -0.8586 -0.0420 -0.3833
 3199THY    HA379966   1.280   1.559   2.322  0.2244  0.2312  0.1730
 3199THY    CA479967   1.283   1.619   2.527  0.2584  0.2403  0.5572
 3199THY    HA479968   1.380   1.571   2.538  1.2159  2.3841  2.2705
 3199THY    CA579969   1.228   1.684   2.634 -0.2141  0.6604  0.6426
 3199THY    CM179970   1.284   1.669   2.772 -0.0569 -0.7563  0.0233
 3199THY    HM179971   1.392   1.649   2.771 -0.1560 -1.3407 -1.3580
 3199THY    HM279972   1.262   1.755   2.836 -0.9279 -0.7558 -0.2681
 3199THY    HM379973   1.240   1.583   2.824  0.6258 -1.3302 -0.3250
 3199THY    CA679974   1.101   1.760   2.606  0.0439 -0.1664 -0.6710
 3199THY    HA679975   1.054   1.809   2.691 -0.6479  0.2270 -1.2678
 3200THY      O79976   6.193   9.656   7.529 -0.0265 -0.1642 -0.1241
 3200THY     HO79977   6.185   9.666   7.433 -0.5160  0.6527 -0.0086
 3200THY    CA179978   6.114   9.545   7.567  0.1471  0.0077 -0.3274
 3200THY    CA279979   6.142   9.474   7.689 -0.3319 -0.5516  0.1328
 3200THY    CP179980   6.265   9.511   7.769 -0.9962 -0.5578  0.5680
 3200THY    HP179981   6.309   9.608   7.741  0.2578 -1.8793 -2.4530
 3200THY    CP279982   6.240   9.533   7.922  0.0511  0.0578  0.3923
 3200THY    HP279983   6.228   9.436   7.972 -1.4504  1.1379  2.3065
 3200THY    HP379984   6.319   9.586   7.976 -0.0209  0.9402 -0.3559
 3200THY    HP479985   6.142   9.578   7.946 -0.3798 -0.3313 -0.5910
 3200THY    CP379986   6.374   9.400   7.743  0.2888 -0.0782 -0.0918
 3200THY    HP579987   6.459   9.408   7.812  0.5215  0.2521 -0.4125
 3200THY    HP679988   6.318   9.306   7.757 -1.8187  1.3295  1.5586
 3200THY    HP779989   6.402   9.399   7.637  0.8550 -0.4033  0.0536
 3200THY    CA379990   6.048   9.378   7.733 -0.2257  0.0882 -0.3690
 3200THY    HA379991   6.070   9.334   7.830 -1.8299  1.9031  0.8955
 3200THY    CA479992   5.937   9.350   7.659  0.6094 -0.4046  0.1297
 3200THY    HA479993   5.881   9.268   7.703  2.4982 -1.3794  0.8138
 3200THY    CA579994   5.909   9.419   7.541  0.3538 -0.4934 -0.5584
 3200THY    CM179995   5.782   9.390   7.462  0.0940  0.3671  0.1808
 3200THY    HM179996   5.704   9.465   7.482 -0.0346  0.1253  0.5944
 3200THY    HM279997   5.809   9.386   7.356  3.8175 -2.5582  1.0182
 3200THY    HM379998   5.734   9.298   7.495 -2.4617  0.9438 -1.6579
 3200THY    CA679999   5.993   9.519   7.498 -0.2034 -0.4288  0.0236
 3200THY    HA680000   5.980   9.577   7.407  0.0542  1.4881  1.1670
 3201THY      O80001   7.675   6.694   9.372  0.2168 -0.3851 -0.1281
 3201THY     HO80002   7.596   6.660   9.326 -1.2882  0.6271  1.5944
 3201THY    CA180003   7.656   6.646   9.497 -0.1218 -0.5915 -0.7401
 3201THY    CA280004   7.771   6.627   9.578 -0.3061 -0.7330 -0.8608
 3201THY    CP180005   7.912   6.659   9.530 -0.4033  0.6146 -0.8460
 3201THY    HP180006   7.898   6.642   9.423 -1.0200 -0.1264 -0.6563
 3201THY    CP280007   7.961   6.798   9.550  0.7013 -0.5885 -0.1400
 3201THY    HP280008   7.885   6.871   9.519 -0.2886 -1.8564 -0.8161
 3201THY    HP380009   7.983   6.811   9.656 -1.8679  0.2096  0.3554
 3201THY    HP480010   8.052   6.810   9.490  1.0982  1.9316  0.8518
 3201THY    CP380011   8.009   6.548   9.582  0.2613  0.2118  0.1452
 3201THY    HP580012   8.085   6.524   9.506 -0.5795 -0.3067 -0.5574
 3201THY    HP680013   8.069   6.580   9.668  2.3293 -0.1898 -1.0637
 3201THY    HP780014   7.949   6.457   9.599 -0.3127  0.7059  0.8189
 3201THY    CA380015   7.746   6.585   9.707 -0.2384  0.6335  0.2922
 3201THY    HA380016   7.820   6.577   9.787 -1.1591 -0.4586  1.0746
 3201THY    CA480017   7.623   6.548   9.746 -0.0879  0.0733 -0.4435
 3201THY    HA480018   7.611   6.514   9.849  0.1376  1.3907  0.0444
 3201THY    CA580019   7.514   6.570   9.664 -0.2507 -0.1008 -0.2138
 3201THY    CM180020   7.377   6.532   9.729 -0.6776  0.2515 -0.4531
 3201THY    HM180021   7.342   6.622   9.780  0.4110  2.0883 -2.7509
 3201THY    HM280022   7.307   6.508   9.648  0.5933 -1.8533 -0.9971
 3201THY    HM380023   7.386   6.446   9.795  0.0177  0.7081  0.0582
 3201THY    CA680024   7.523   6.624   9.535 -0.2442  0.3853  0.3579
 3201THY    HA680025   7.430   6.637   9.480 -0.8034  2.7030  1.7066
 3202THY      O80026   8.595   3.846   2.817 -0.5371 -0.1411 -0.2239
 3202THY     HO80027   8.602   3.818   2.910  0.0742  2.5103  0.6036
 3202THY    CA180028   8.514   3.958   2.824 -0.7875 -0.7926 -0.4718
 3202THY    CA280029   8.394   3.965   2.763 -0.2166 -0.5460  0.3171
 3202THY    CP180030   8.334   3.853   2.686  0.2955  0.3328 -0.2988
 3202THY    HP180031   8.386   3.763   2.722  0.8750  0.9434  0.4268
 3202THY    CP280032   8.186   3.820   2.718  0.1040  0.0016 -0.5072
 3202THY    HP280033   8.180   3.787   2.822 -1.1975 -1.4831 -1.0121
 3202THY    HP380034   8.122   3.905   2.696  1.2765  0.9267 -0.4720
 3202THY    HP480035   8.147   3.737   2.658  0.0818 -1.5523  1.5263
 3202THY    CP380036   8.347   3.858   2.541 -0.6202 -0.0917  1.0368
 3202THY    HP580037   8.293   3.938   2.489 -0.3980 -0.4924  0.1559
 3202THY    HP680038   8.452   3.876   2.512 -0.7423  3.5646  2.3185
 3202THY    HP780039   8.329   3.760   2.497 -0.0353 -0.1062  0.8185
 3202THY    CA380040   8.312   4.080   2.779  0.0824 -0.2793 -1.2617
 3202THY    HA380041   8.215   4.093   2.731  1.0889  1.6212 -2.9370
 3202THY    CA480042   8.357   4.184   2.864  0.5333 -0.0099  1.1607
 3202THY    HA480043   8.308   4.278   2.887  4.1300  2.0254  1.2583
 3202THY    CA580044   8.480   4.174   2.926  0.1498 -0.5528  0.2865
 3202THY    CM180045   8.530   4.294   2.998 -0.5014 -0.7843  0.1666
 3202THY    HM180046   8.465   4.382   2.984  0.2128 -0.3889 -0.7529
 3202THY    HM280047   8.539   4.279   3.106 -0.1552 -0.7914  0.1392
 3202THY    HM380048   8.626   4.327   2.956 -0.4544  1.2254  1.6841
 3202THY    CA680049   8.558   4.063   2.912  0.3826 -0.5217 -0.2618
 3202THY    HA680050   8.657   4.059   2.955  0.4732  2.0449 -0.1056
 3203THY      O80051   1.611   1.869   7.352 -0.0705  0.4045 -0.1186
 3203THY     HO80052   1.589   1.963   7.363  1.8638  0.8585  0.1892
 3203THY    CA180053   1.683   1.862   7.236 -0.2848  0.4473 -1.0377
 3203THY    CA280054   1.756   1.751   7.209  0.6024  0.8789 -0.1154
 3203THY    CP180055   1.762   1.622   7.298  0.0504  0.3754  0.5341
 3203THY    HP180056   1.672   1.617   7.360 -0.4900 -0.5397 -0.2979
 3203THY    CP280057   1.759   1.497   7.211 -0.5657 -0.1300  0.8541
 3203THY    HP280058   1.859   1.467   7.176 -0.7786  1.9205 -1.8710
 3203THY    HP380059   1.710   1.417   7.267  1.0950 -1.3149  0.6988
 3203THY    HP480060   1.688   1.516   7.130 -0.1885 -0.1767  0.5126
 3203THY    CP380061   1.887   1.626   7.392  0.0834 -0.1463  0.4899
 3203THY    HP580062   1.906   1.525   7.431  0.6388  0.5501  2.1197
 3203THY    HP680063   1.977   1.667   7.344 -0.0109 -2.5621 -2.0218
 3203THY    HP780064   1.861   1.693   7.475 -2.9434 -2.8327  1.9720
 3203THY    CA380065   1.852   1.755   7.097 -0.4883  0.0795 -0.6074
 3203THY    HA380066   1.916   1.673   7.064  0.8610  0.5031  0.8402
 3203THY    CA480067   1.861   1.875   7.025  0.2907  0.0949  0.8251
 3203THY    HA480068   1.930   1.884   6.942 -0.9813  0.5944 -0.2155
 3203THY    CA580069   1.779   1.980   7.055  0.6653  0.0993  0.7461
 3203THY    CM180070   1.780   2.116   6.982  0.0995 -0.3616  0.0379
 3203THY    HM180071   1.828   2.199   7.035 -0.2079 -0.9670  1.3324
 3203THY    HM280072   1.819   2.106   6.880 -3.8224 -0.8444 -1.5751
 3203THY    HM380073   1.677   2.148   6.965  0.6101  1.0549 -0.4759
 3203THY    CA680074   1.692   1.971   7.159  0.9192 -0.8534  0.3642
 3203THY    HA680075   1.630   2.057   7.185  1.0056 -0.8259  0.4814
 3204THY      O80076   5.549   5.293   5.661 -1.1332 -0.1944  0.1273
 3204THY     HO80077   5.641   5.265   5.646 -0.2290  2.1994  0.7628
 3204THY    CA180078   5.524   5.236   5.781 -0.3264  0.2615 -0.5833
 3204THY    CA280079   5.424   5.287   5.862 -0.4149 -0.8141 -0.0219
 3204THY    CP180080   5.335   5.401   5.825  0.1320 -0.4549  0.2898
 3204THY    HP180081   5.360   5.427   5.721  2.7316  0.8019  1.1321
 3204THY    CP280082   5.185   5.382   5.828 -1.0723 -0.3667 -0.1418
 3204THY    HP280083   5.129   5.474   5.808 -0.9031 -0.1386  0.4088
 3204THY    HP380084   5.168   5.317   5.742 -1.7075  2.7955 -2.5923
 3204THY    HP480085   5.160   5.348   5.929  1.4241  0.6308  0.8958
 3204THY    CP380086   5.369   5.530   5.904 -0.3275  0.0641 -0.2026
 3204THY    HP580087   5.344   5.531   6.010  1.1665 -0.0232  0.1748
 3204THY    HP680088   5.477   5.548   5.895 -0.3485  0.2167 -0.1607
 3204THY    HP780089   5.323   5.621   5.863  1.4430  1.2540  0.3346
 3204THY    CA380090   5.418   5.246   5.993 -0.0082 -0.2062  0.8297
 3204THY    HA380091   5.351   5.292   6.065  1.6679  3.2256  0.3939
 3204THY    CA480092   5.486   5.127   6.032  0.2198 -0.1482  0.5496
 3204THY    HA480093   5.466   5.086   6.131 -0.3402 -1.5272 -0.1272
 3204THY    CA580094   5.584   5.068   5.952  0.1736 -0.5373 -0.2708
 3204THY    CM180095   5.651   4.945   6.000 -0.6340  0.0976  0.0220
 3204THY    HM180096   5.751   4.970   6.038 -0.1708  0.3824 -1.3422
 3204THY    HM280097   5.607   4.889   6.083  0.3031  0.1331  0.5676
 3204THY    HM380098   5.659   4.868   5.923 -4.5019 -1.2126  0.6876
 3204THY    CA680099   5.605   5.127   5.825 -0.0390  0.2235  0.4265
 3204THY    HA680100   5.674   5.079   5.756  0.1532 -0.3282  1.0002
 3205THY      O80101   7.660   8.123   9.333  0.6679  0.0985  0.4271
 3205THY     HO80102   7.564   8.141   9.339  0.7405  0.6788 -0.0141
 3205THY    CA180103   7.703   8.139   9.207 -0.6171  0.2283  0.0842
 3205THY    CA280104   7.832   8.089   9.171  0.3274 -0.4880  0.0926
 3205THY    CP180105   7.900   7.994   9.264 -0.0126  0.0603  1.0854
 3205THY    HP180106   7.830   7.945   9.332 -2.7079  0.0407 -1.5181
 3205THY    CP280107   7.952   7.877   9.180  0.4288 -0.2303  0.6120
 3205THY    HP280108   7.966   7.790   9.247 -0.1627 -1.9019 -1.3288
 3205THY    HP380109   7.875   7.854   9.106 -0.4344  1.6692  0.8647
 3205THY    HP480110   8.043   7.893   9.122  0.1076  0.2532  0.2375
 3205THY    CP380111   8.013   8.058   9.341  0.9736  0.1552  0.4573
 3205THY    HP580112   8.079   8.120   9.278  2.0778 -1.1241  0.2971
 3205THY    HP680113   7.967   8.113   9.424 -2.6044 -2.9010  0.7880
 3205THY    HP780114   8.077   7.983   9.389 -1.7961 -0.3995  3.6445
 3205THY    CA380115   7.891   8.129   9.045 -0.0973 -0.4153  0.1579
 3205THY    HA380116   7.987   8.089   9.015  0.0977  1.2952 -1.7647
 3205THY    CA480117   7.818   8.214   8.965  1.0337 -0.3731 -0.0453
 3205THY    HA480118   7.852   8.241   8.865  3.1307 -2.5675 -0.0064
 3205THY    CA580119   7.693   8.266   9.008 -0.1542 -0.4660  0.3828
 3205THY    CM180120   7.625   8.368   8.919 -0.4406 -0.3409 -1.1147
 3205THY    HM180121   7.656   8.469   8.948 -0.2388 -0.2587 -1.6002
 3205THY    HM280122   7.665   8.365   8.816  0.4961 -0.7518 -0.7501
 3205THY    HM380123   7.517   8.354   8.923 -0.3968 -0.4668 -0.2844
 3205THY    CA680124   7.635   8.223   9.126 -0.0903  0.0161 -0.1301
 3205THY    HA680125   7.538   8.260   9.156 -0.0722  0.9291 -1.1274
 3206THY      O80126   2.707   0.025   0.052  0.0417  0.0968  0.3713
 3206THY     HO80127   2.673  -0.045   0.111  0.2675 -0.3461 -0.0218
 3206THY    CA180128   2.811   0.096   0.113  0.1483  0.8666  0.3960
 3206THY    CA280129   2.936   0.102   0.055 -0.2085  0.2979  0.3195
 3206THY    CP180130   2.970   0.026  -0.077 -0.1145  0.3574  0.1937
 3206THY    HP180131   2.881   0.020  -0.140  0.9779  1.1203 -1.5191
 3206THY    CP280132   3.066   0.100  -0.169  0.1524 -0.6792  0.6848
 3206THY    HP280133   3.042   0.206  -0.181  4.0694  0.2762 -0.1128
 3206THY    HP380134   3.161   0.109  -0.115  1.9384 -0.8267 -2.2317
 3206THY    HP480135   3.072   0.060  -0.271  0.0086 -0.5282  0.6165
 3206THY    CP380136   3.030  -0.113  -0.037 -0.1864 -0.2191 -0.1955
 3206THY    HP580137   3.039  -0.182  -0.121 -1.0094  2.6093 -2.7798
 3206THY    HP680138   3.128  -0.106   0.012  0.5513  0.8041 -1.7481
 3206THY    HP780139   2.965  -0.162   0.037  1.9983 -0.2868  1.7949
 3206THY    CA380140   3.040   0.176   0.118 -0.4124 -0.1338  0.1110
 3206THY    HA380141   3.138   0.196   0.075  0.4414 -0.0637  2.0035
 3206THY    CA480142   3.010   0.233   0.239 -0.4486  0.8644  0.2026
 3206THY    HA480143   3.081   0.296   0.292  0.6308 -0.0909 -0.0656
 3206THY    CA580144   2.884   0.213   0.295 -0.8410  0.4024 -0.2521
 3206THY    CM180145   2.860   0.267   0.432 -0.0751 -0.6450  0.8186
 3206THY    HM180146   2.863   0.377   0.433  0.1506 -0.5668 -1.5690
 3206THY    HM280147   2.766   0.239   0.481 -0.5692 -1.4829 -0.5439
 3206THY    HM380148   2.940   0.230   0.497  0.6392  0.3635  0.5392
 3206THY    CA680149   2.784   0.142   0.242 -0.0125 -0.1307 -0.1177
 3206THY    HA680150   2.684   0.133   0.282 -0.7545  0.8324 -1.6446
 3207THY      O80151   1.165   7.462   4.663 -0.1368 -0.2207  0.4323
 3207THY     HO80152   1.122   7.446   4.748 -3.4477 -0.3805 -1.1056
 3207THY    CA180153   1.096   7.392   4.569  0.9318  0.1399 -0.2834
 3207THY    CA280154   1.141   7.371   4.437 -0.1738  0.0281  0.4354
 3207THY    CP180155   1.274   7.442   4.390 -0.1503 -0.5602 -0.9078
 3207THY    HP180156   1.285   7.534   4.449  0.2657 -0.7522 -0.6824
 3207THY    CP280157   1.403   7.362   4.421 -0.1450  0.3862  0.0764
 3207THY    HP280158   1.488   7.428   4.402  1.3146 -1.9673 -2.1090
 3207THY    HP380159   1.407   7.344   4.529 -1.5028 -1.3488 -0.1235
 3207THY    HP480160   1.418   7.276   4.356  2.1971 -0.2810  1.3753
 3207THY    CP380161   1.274   7.489   4.246 -0.3110 -0.1987 -0.2243
 3207THY    HP580162   1.311   7.414   4.175  1.0975  1.1261 -0.9667
 3207THY    HP680163   1.172   7.515   4.218 -0.8141 -2.6057 -0.8285
 3207THY    HP780164   1.343   7.573   4.226 -2.2218  1.1566 -1.4829
 3207THY    CA380165   1.073   7.288   4.346  0.2342  0.3923 -0.7295
 3207THY    HA380166   1.124   7.265   4.253  0.4262  2.4032 -1.1763
 3207THY    CA480167   0.957   7.225   4.389  0.4845 -0.8438  0.4800
 3207THY    HA480168   0.905   7.157   4.323 -0.5686  0.3008  0.0877
 3207THY    CA580169   0.903   7.251   4.516 -0.2980  0.1943  0.1605
 3207THY    CM180170   0.788   7.165   4.566  0.1766 -0.5291 -0.4754
 3207THY    HM180171   0.736   7.139   4.473  1.6397  0.1371 -1.5286
 3207THY    HM280172   0.822   7.083   4.630 -1.3315 -1.0184 -0.2502
 3207THY    HM380173   0.726   7.230   4.628  0.3959  0.7878 -1.5850
 3207THY    CA680174   0.975   7.334   4.607  0.2371 -0.5537 -0.3948
 3207THY    HA680175   0.930   7.348   4.705 -1.0224 -0.8097 -0.9147
 3208THY      O80176   0.016   8.265   6.053  0.2713 -0.4665 -0.1301
 3208THY     HO80177   0.063   8.340   6.013 -0.6590 -0.6620 -1.6669
 3208THY    CA180178  -0.012   8.308   6.174  0.9645 -0.7895  0.1023
 3208THY    CA280179  -0.090   8.233   6.263 -0.3786  1.0338 -0.2562
 3208THY    CP180180  -0.159   8.105   6.214  0.2099 -0.0250 -0.0863
 3208THY    HP180181  -0.205   8.128   6.118  0.2743 -1.4240 -0.4843
 3208THY    CP280182  -0.054   7.994   6.204 -0.7199  0.1271 -0.1234
 3208THY    HP280183  -0.012   7.966   6.302 -0.9924 -0.0580 -0.0581
 3208THY    HP380184  -0.102   7.905   6.162 -1.3016 -0.3692  1.4928
 3208THY    HP480185   0.028   8.032   6.142 -1.6947  1.3956 -0.6615
 3208THY    CP380186  -0.270   8.048   6.303  0.0460  0.1132 -0.2221
 3208THY    HP580187  -0.353   8.119   6.318 -1.3198 -1.8957  2.8134
 3208THY    HP680188  -0.319   7.959   6.261  1.4335 -1.7886  1.9069
 3208THY    HP780189  -0.229   8.019   6.401 -0.8422  0.9770  0.4254
 3208THY    CA380190  -0.103   8.283   6.396  0.2028 -0.1381 -0.1696
 3208THY    HA380191  -0.172   8.233   6.463 -1.4380  0.6401 -1.1940
 3208THY    CA480192  -0.044   8.399   6.429 -0.5451 -0.9837 -0.5767
 3208THY    HA480193  -0.065   8.437   6.528 -2.1794  4.3879 -2.6184
 3208THY    CA580194   0.041   8.467   6.344 -0.0799 -0.0631 -0.1484
 3208THY    CM180195   0.113   8.592   6.398 -0.0262 -0.2310  0.0959
 3208THY    HM180196   0.221   8.587   6.381  0.3393 -1.6988  2.4477
 3208THY    HM280197   0.076   8.689   6.362  0.2933 -0.0093  0.3635
 3208THY    HM380198   0.096   8.599   6.506  0.0677 -1.1582  0.1862
 3208THY    CA680199   0.057   8.421   6.218 -1.2102 -0.2144  0.0242
 3208THY    HA680200   0.132   8.477   6.164  1.3370 -3.1229  0.2348
 3209THY      O80201   5.159   5.144   3.702  0.4478 -0.3038  0.4159
 3209THY     HO80202   5.215   5.195   3.640  0.2679  1.7597  1.8477
 3209THY    CA180203   5.033   5.191   3.686 -0.0786  0.0994  0.1200
 3209THY    CA280204   4.920   5.131   3.749  0.5792 -0.0301 -0.1825
 3209THY    CP180205   4.913   4.999   3.823  0.1030 -0.1841 -0.3604
 3209THY    HP180206   5.013   4.953   3.826  0.2203  0.0623  2.0146
 3209THY    CP280207   4.852   5.012   3.972 -0.6504 -0.3696  0.2578
 3209THY    HP280208   4.770   5.084   3.982 -1.1378 -0.8744 -0.0238
 3209THY    HP380209   4.818   4.912   3.999 -1.8645 -0.3472 -1.0370
 3209THY    HP480210   4.923   5.039   4.050  0.8316 -0.7754 -0.9010
 3209THY    CP380211   4.835   4.900   3.747  0.0744  0.1728 -1.2325
 3209THY    HP580212   4.738   4.931   3.709 -0.1223  0.3885 -0.5656
 3209THY    HP680213   4.887   4.869   3.655 -1.0492 -1.0550 -1.4878
 3209THY    HP780214   4.826   4.802   3.795 -1.5839  1.0300  0.2693
 3209THY    CA380215   4.795   5.198   3.733 -0.1671 -0.4824 -0.3702
 3209THY    HA380216   4.709   5.148   3.777 -1.4804 -1.6969 -3.9465
 3209THY    CA480217   4.788   5.313   3.657 -0.2090  0.9104 -0.0087
 3209THY    HA480218   4.695   5.364   3.637 -1.0974  0.6917  3.0994
 3209THY    CA580219   4.901   5.374   3.604  0.0125 -0.4608 -0.2873
 3209THY    CM180220   4.885   5.512   3.521  0.3799 -0.1757  0.3905
 3209THY    HM180221   4.841   5.594   3.578 -0.6926  0.6935 -1.5717
 3209THY    HM280222   4.983   5.551   3.492  1.0745 -2.2729 -0.3178
 3209THY    HM380223   4.820   5.498   3.434 -1.0436  0.8857  1.2511
 3209THY    CA680224   5.027   5.316   3.620 -0.7222 -0.4562  1.0363
 3209THY    HA680225   5.113   5.365   3.577 -1.4460  0.1747  0.2774
 3210THY      O80226   4.507   8.259   6.434 -0.1664 -0.0748 -0.4959
 3210THY     HO80227   4.448   8.187   6.406 -0.0278  0.0915 -1.2491
 3210THY    CA180228   4.420   8.362   6.461 -0.2230 -0.0847 -0.7108
 3210THY    CA280229   4.460   8.462   6.552 -0.3333 -0.4461  0.6182
 3210THY    CP180230   4.598   8.448   6.624 -0.6127 -0.3037 -0.2586
 3210THY    HP180231   4.671   8.421   6.547 -0.9515 -2.0441 -0.0040
 3210THY    CP280232   4.651   8.573   6.686 -0.8210  0.0379  0.1829
 3210THY    HP280233   4.757   8.556   6.705 -0.3288  3.2485  0.8958
 3210THY    HP380234   4.649   8.653   6.611 -1.4628 -1.9662 -2.0336
 3210THY    HP480235   4.590   8.604   6.772  0.5078  0.0275  1.1480
 3210THY    CP380236   4.591   8.337   6.728  0.3070  0.6353  0.4497
 3210THY    HP580237   4.688   8.329   6.779  0.5628 -0.7175 -0.1982
 3210THY    HP680238   4.517   8.366   6.804 -2.6037  0.3554 -2.0727
 3210THY    HP780239   4.562   8.238   6.692 -0.2711  0.1731  2.1191
 3210THY    CA380240   4.376   8.567   6.577  0.1583 -0.3551 -0.0118
 3210THY    HA380241   4.397   8.653   6.639  0.4825 -0.6354  0.2720
 3210THY    CA480242   4.247   8.568   6.521 -0.0810 -0.0118 -1.1256
 3210THY    HA480243   4.174   8.646   6.543  0.9330  0.6731 -0.1104
 3210THY    CA580244   4.206   8.462   6.444 -0.6050 -1.2618 -0.5949
 3210THY    CM180245   4.071   8.462   6.379 -0.1966  0.4141  0.3359
 3210THY    HM180246   4.086   8.539   6.302  0.8076  0.6711  0.7644
 3210THY    HM280247   4.066   8.361   6.337  2.2152  0.8775 -1.2638
 3210THY    HM380248   3.993   8.488   6.452  1.2544 -2.1653  3.0655
 3210THY    CA680249   4.292   8.361   6.412  0.4661  0.2389  0.0395
 3210THY    HA680250   4.262   8.286   6.340  0.3782 -1.3986  1.7279
 3211THY      O80251   3.686   9.004   9.948  0.0997  0.1213  0.3875
 3211THY     HO80252   3.617   8.966  10.004 -1.9078  1.3740 -1.1118
 3211THY    CA180253   3.797   8.976  10.014  0.4429  0.3789 -0.6886
 3211THY    CA280254   3.923   9.035   9.982  0.2142  0.3058 -0.0088
 3211THY    CP180255   3.941   9.126   9.858 -0.0633 -0.6038 -0.3381
 3211THY    HP180256   3.873   9.089   9.780 -0.6617 -1.2453  0.4715
 3211THY    CP280257   3.901   9.272   9.882  0.4539  0.3994  0.0096
 3211THY    HP280258   3.971   9.319   9.952  0.9473 -0.1772 -0.0918
 3211THY    HP380259   3.915   9.326   9.788 -3.1063 -0.4716 -1.1817
 3211THY    HP480260   3.796   9.286   9.912 -0.8334  0.7255 -4.0285
 3211THY    CP380261   4.076   9.118   9.784 -0.7964  0.3074 -0.0244
 3211THY    HP580262   4.162   9.148   9.844 -0.9281  0.5576  0.0386
 3211THY    HP680263   4.095   9.013   9.757 -3.6384  0.3248 -2.7001
 3211THY    HP780264   4.079   9.172   9.688  1.3354  0.3745  0.0277
 3211THY    CA380265   4.032   9.010  10.066 -0.6438 -0.0031  0.8698
 3211THY    HA380266   4.125   9.062  10.044 -0.4507 -0.9514 -0.6991
 3211THY    CA480267   4.019   8.933  10.181  0.3122  0.9508 -0.3320
 3211THY    HA480268   4.104   8.921  10.248  1.6365 -0.2339 -2.1076
 3211THY    CA580269   3.891   8.889  10.216 -0.0015 -0.7315 -0.5741
 3211THY    CM180270   3.869   8.836  10.356  0.0185  0.0170  0.6024
 3211THY    HM180271   3.836   8.915  10.425 -1.8293 -2.9673  3.4609
 3211THY    HM280272   3.794   8.755  10.359  1.1343 -1.0487  2.4741
 3211THY    HM380273   3.960   8.791  10.396  1.7094  0.6796 -2.2464
 3211THY    CA680274   3.783   8.899  10.125 -0.4218  0.2778  0.7083
 3211THY    HA680275   3.687   8.859  10.158 -1.6012  1.8765 -0.6150
 3212THY      O80276   1.817   6.319   0.727  0.5354 -0.1798 -0.4917
 3212THY     HO80277   1.752   6.365   0.671  0.2663  0.2149  0.1389
 3212THY    CA180278   1.740   6.270   0.826  0.3009 -0.3936  0.0786
 3212THY    CA280279   1.801   6.194   0.929  0.0559  0.8151  0.4737
 3212THY    CP180280   1.956   6.173   0.936  0.2627  0.3756  0.3230
 3212THY    HP180281   2.001   6.247   0.868 -0.0633  1.8169  1.6228
 3212THY    CP280282   2.012   6.177   1.076 -0.2327 -0.8204  0.2949
 3212THY    HP280283   1.975   6.267   1.127  1.4399  0.0121  0.1037
 3212THY    HP380284   1.997   6.083   1.129  0.5126  0.0972  2.2468
 3212THY    HP480285   2.119   6.202   1.074 -0.8667  2.4192 -1.0969
 3212THY    CP380286   1.990   6.034   0.866 -0.4850  0.2036 -0.7405
 3212THY    HP580287   1.944   6.045   0.766 -0.6575  0.0403 -0.6789
 3212THY    HP680288   2.095   6.003   0.861 -0.2851  0.8964 -1.0277
 3212THY    HP780289   1.934   5.952   0.912 -2.9222  0.8942 -2.2758
 3212THY    CA380290   1.709   6.137   1.022  1.0393 -0.0676 -0.4284
 3212THY    HA380291   1.738   6.060   1.093 -0.6779 -0.3646  0.0069
 3212THY    CA480292   1.564   6.158   1.017 -0.6622 -0.4737 -0.8110
 3212THY    HA480293   1.494   6.119   1.089  0.6447  0.3761  1.0027
 3212THY    CA580294   1.516   6.237   0.918 -0.2146 -0.3284  0.4103
 3212THY    CM180295   1.371   6.254   0.908  0.1847 -0.2104 -0.9263
 3212THY    HM180296   1.337   6.352   0.872 -1.7265 -0.1526  0.8120
 3212THY    HM280297   1.321   6.182   0.842 -1.1569 -0.9414  0.8068
 3212THY    HM380298   1.333   6.242   1.010  1.5913 -0.9226 -0.4663
 3212THY    CA680299   1.601   6.294   0.817  0.4333 -0.3392  0.4367
 3212THY    HA680300   1.559   6.357   0.740  1.2568  0.2461  0.4638
 3213THY      O80301   4.941   9.276   4.578 -0.5827  0.1301  0.2057
 3213THY     HO80302   4.907   9.355   4.532  0.9842  0.4169 -0.5201
 3213THY    CA180303   5.071   9.275   4.550  0.2798  0.2708  0.1338
 3213THY    CA280304   5.159   9.182   4.609 -0.0755 -0.0210  0.1493
 3213THY    CP180305   5.114   9.075   4.705 -0.0788  0.4715 -0.4078
 3213THY    HP180306   5.016   9.096   4.750  0.4189  2.0544  0.0139
 3213THY    CP280307   5.093   8.957   4.607 -0.4288 -0.2647  0.5628
 3213THY    HP280308   5.033   8.976   4.518  0.8906  1.2500 -0.0617
 3213THY    HP380309   5.194   8.937   4.567 -0.6017 -0.0569  0.0189
 3213THY    HP480310   5.067   8.861   4.652  1.4259 -1.7099 -1.2273
 3213THY    CP380311   5.202   9.045   4.821 -0.2279 -0.2139 -0.1307
 3213THY    HP580312   5.151   8.971   4.884  0.0236 -1.0420 -0.8828
 3213THY    HP680313   5.297   9.009   4.781  0.5500  1.7023 -0.1242
 3213THY    HP780314   5.215   9.139   4.876 -1.2176  0.7892 -1.5332
 3213THY    CA380315   5.298   9.186   4.568 -0.2302  0.2452  1.0976
 3213THY    HA380316   5.375   9.113   4.592 -0.0614 -0.7746 -2.1175
 3213THY    CA480317   5.338   9.289   4.473  0.3310 -0.0659  0.0253
 3213THY    HA480318   5.442   9.301   4.445  0.5170 -1.2098  0.1712
 3213THY    CA580319   5.240   9.373   4.410 -0.2825 -0.5500 -0.9937
 3213THY    CM180320   5.287   9.488   4.319 -0.1839 -0.6151 -0.1121
 3213THY    HM180321   5.243   9.586   4.337  1.2327  0.3454 -1.6270
 3213THY    HM280322   5.389   9.519   4.342  0.3599 -0.4445 -2.5632
 3213THY    HM380323   5.276   9.454   4.215  0.2211 -0.1040 -0.3193
 3213THY    CA680324   5.108   9.368   4.451  1.1257  0.3026 -0.1702
 3213THY    HA680325   5.028   9.431   4.412 -0.7428 -1.1154  1.1961
 3214THY      O80326   6.959   8.702   6.489 -0.1612 -0.0666 -0.1134
 3214THY     HO80327   6.896   8.689   6.562 -1.7702 -1.1269 -1.6107
 3214THY    CA180328   7.038   8.591   6.486  0.2002 -0.0521  0.2909
 3214THY    CA280329   7.157   8.584   6.406 -0.5150  0.4748  0.1103
 3214THY    CP180330   7.205   8.706   6.324 -0.3250 -0.0775 -0.8509
 3214THY    HP180331   7.136   8.789   6.342  2.3767  2.0372  0.6663
 3214THY    CP280332   7.345   8.756   6.358 -0.0513  0.6297  0.1031
 3214THY    HP280333   7.353   8.863   6.333  0.6468  0.8360  1.1542
 3214THY    HP380334   7.377   8.738   6.461 -0.0825  1.5374  0.2810
 3214THY    HP480335   7.418   8.707   6.293 -0.8890 -1.7869  0.8827
 3214THY    CP380336   7.194   8.689   6.171 -0.4833  0.6445  0.4582
 3214THY    HP580337   7.094   8.650   6.147 -0.0132 -0.3854  0.1033
 3214THY    HP680338   7.218   8.779   6.113  0.9956 -0.7018 -1.1431
 3214THY    HP780339   7.257   8.607   6.134  0.2145  0.9213  1.0099
 3214THY    CA380340   7.242   8.465   6.427 -0.0457 -0.2084 -0.0936
 3214THY    HA380341   7.332   8.453   6.367 -0.2406  1.8835 -0.8852
 3214THY    CA480342   7.196   8.362   6.516 -0.9438  0.4430  0.1722
 3214THY    HA480343   7.241   8.265   6.534  0.9850  1.0938 -0.8013
 3214THY    CA580344   7.081   8.376   6.591  0.2185 -0.7708  0.2796
 3214THY    CM180345   7.040   8.267   6.693 -0.2705 -1.2153  0.0972
 3214THY    HM180346   7.042   8.303   6.797  3.6834 -1.2537  0.2085
 3214THY    HM280347   6.936   8.238   6.680 -0.4467 -1.1858  1.2854
 3214THY    HM380348   7.104   8.179   6.686 -0.8919 -1.6273 -0.4841
 3214THY    CA680349   7.010   8.492   6.582 -0.2398 -0.1177 -0.3145
 3214THY    HA680350   6.926   8.506   6.650  0.7056 -0.7222  1.0210
 3215THY      O80351   8.532   4.429   4.970 -0.6844  0.2124  0.3045
 3215THY     HO80352   8.479   4.348   4.963 -1.3418  0.6818 -0.1975
 3215THY    CA180353   8.490   4.517   4.879 -0.6444 -0.0771 -0.4705
 3215THY    CA280354   8.570   4.625   4.832 -0.1067  0.8629 -0.0822
 3215THY    CP180355   8.716   4.636   4.869  0.6670  0.0146  0.5711
 3215THY    HP180356   8.731   4.570   4.956  1.4939 -2.0007 -1.0076
 3215THY    CP280357   8.816   4.589   4.760  0.5513 -0.5544  0.6439
 3215THY    HP280358   8.915   4.573   4.803  0.5608 -2.3827  0.0476
 3215THY    HP380359   8.768   4.498   4.722  0.6830  0.2074 -1.5091
 3215THY    HP480360   8.819   4.652   4.670 -1.5259 -1.2210  0.0298
 3215THY    CP380361   8.758   4.785   4.915  0.0181  0.5160  0.3708
 3215THY    HP580362   8.673   4.828   4.969 -1.7060 -0.0462 -1.7425
 3215THY    HP680363   8.851   4.780   4.973  1.7553 -0.5758 -2.3008
 3215THY    HP780364   8.776   4.846   4.826 -1.7078 -1.9081 -1.7751
 3215THY    CA380365   8.514   4.721   4.746 -0.1900  0.6373 -0.3664
 3215THY    HA380366   8.573   4.803   4.708 -1.7973  1.8221 -0.4227
 3215THY    CA480367   8.384   4.703   4.703  0.3087  0.4650  0.6180
 3215THY    HA480368   8.349   4.765   4.621  1.2266 -1.2917 -1.1610
 3215THY    CA580369   8.304   4.597   4.746 -0.8073 -0.0970  0.2385
 3215THY    CM180370   8.155   4.579   4.702 -1.0954  0.8684 -0.5073
 3215THY    HM180371   8.108   4.493   4.752 -0.8485  1.1617  0.2343
 3215THY    HM280372   8.096   4.668   4.725 -1.3727  1.0963 -1.9981
 3215THY    HM380373   8.145   4.561   4.594 -1.3205 -0.0239 -0.3444
 3215THY    CA680374   8.355   4.504   4.833  0.4471  0.3467  0.4837
 3215THY    HA680375   8.291   4.428   4.877  0.5217 -0.0674 -0.1114
 3216THY      O80376   2.780   5.627   1.639  0.2159  0.5134  0.1356
 3216THY     HO80377   2.709   5.680   1.680 -0.8925  1.0920 -2.3582
 3216THY    CA180378   2.902   5.679   1.665 -0.5389 -0.1828  1.0003
 3216THY    CA280379   2.973   5.728   1.552  0.0239 -0.6408  0.4731
 3216THY    CP180380   2.904   5.740   1.408 -0.3163  0.6416  0.1302
 3216THY    HP180381   2.800   5.710   1.422 -0.7151  1.5473 -0.8236
 3216THY    CP280382   2.905   5.871   1.342 -0.7180 -0.0357  0.0450
 3216THY    HP280383   2.825   5.929   1.390  0.6319 -0.3277  2.8801
 3216THY    HP380384   2.996   5.931   1.359 -0.8422  0.1561  0.0299
 3216THY    HP480385   2.895   5.870   1.233  1.0318  0.3829 -0.1563
 3216THY    CP380386   2.969   5.635   1.315 -0.3577  0.6076 -0.1693
 3216THY    HP580387   2.919   5.618   1.219  0.2708  2.7470 -0.9366
 3216THY    HP680388   3.076   5.656   1.307 -0.0920 -0.1878  1.0466
 3216THY    HP780389   2.958   5.536   1.361 -0.9741 -0.0116 -1.5830
 3216THY    CA380390   3.105   5.768   1.575 -0.8567  0.9207 -0.6906
 3216THY    HA380391   3.165   5.784   1.486 -0.1328  0.7255 -0.2442
 3216THY    CA480392   3.172   5.757   1.696  0.3155 -0.2084 -0.0357
 3216THY    HA480393   3.280   5.765   1.704  0.3861  1.0760 -1.6531
 3216THY    CA580394   3.089   5.719   1.810 -0.1720  0.3243  0.3354
 3216THY    CM180395   3.145   5.737   1.946  0.2864  0.7711  0.1304
 3216THY    HM180396   3.249   5.703   1.941  0.6768  1.8082  0.8244
 3216THY    HM280397   3.152   5.843   1.975  0.2649  0.3855  1.6052
 3216THY    HM380398   3.084   5.685   2.020 -1.3470  1.0804 -0.9384
 3216THY    CA680399   2.958   5.684   1.784  0.4928  0.2301 -0.0256
 3216THY    HA680400   2.894   5.658   1.868 -2.9901  0.9416 -2.2197
 3217THY      O80401   0.502   0.901   9.166 -0.4728  0.0111 -0.0766
 3217THY     HO80402   0.448   0.827   9.135  2.3694 -2.9999  1.5053
 3217THY    CA180403   0.431   0.973   9.260  1.3673 -0.4731 -0.2074
 3217THY    CA280404   0.465   1.104   9.289 -0.1092  0.0319  0.6640
 3217THY    CP180405   0.588   1.168   9.228  0.0023  0.4967  0.2894
 3217THY    HP180406   0.645   1.093   9.173 -3.3827  0.4196 -3.5538
 3217THY    CP280407   0.547   1.272   9.128  0.0467  0.4990  0.1994
 3217THY    HP280408   0.619   1.284   9.047  2.6870 -1.4445  2.0601
 3217THY    HP380409   0.451   1.250   9.080 -0.3463  0.3885  1.0050
 3217THY    HP480410   0.539   1.370   9.177  1.2388  0.6174  0.1771
 3217THY    CP380411   0.687   1.228   9.329  0.5369 -0.1786 -0.4985
 3217THY    HP580412   0.766   1.271   9.266 -1.0025 -0.8128 -3.0088
 3217THY    HP680413   0.643   1.307   9.390  1.1277  0.1876 -0.5384
 3217THY    HP780414   0.727   1.152   9.398  0.1857  0.4331  0.3936
 3217THY    CA380415   0.389   1.169   9.392  0.5039  0.4622 -0.1003
 3217THY    HA380416   0.415   1.269   9.424 -0.8060  0.6180  0.5491
 3217THY    CA480417   0.292   1.096   9.468  0.4627 -0.5248  0.3940
 3217THY    HA480418   0.241   1.140   9.553  0.5945  0.0207  0.1946
 3217THY    CA580419   0.255   0.964   9.437  0.4222 -0.7533 -0.1199
 3217THY    CM180420   0.154   0.880   9.515 -0.8553 -0.0251 -0.2431
 3217THY    HM180421   0.078   0.836   9.450  0.2147 -2.2144 -0.0971
 3217THY    HM280422   0.207   0.793   9.556 -1.5531 -0.8034 -0.9638
 3217THY    HM380423   0.101   0.935   9.594  0.2270  0.3122  0.2713
 3217THY    CA680424   0.322   0.906   9.327  0.2600 -0.0675 -0.0350
 3217THY    HA680425   0.290   0.806   9.299  1.9038 -1.2041  1.9061
 3218THY      O80426   7.455   6.876   8.659 -0.1374 -0.5831  0.0225
 3218THY     HO80427   7.420   6.874   8.568  0.1212 -3.5641 -0.1080
 3218THY    CA180428   7.354   6.907   8.743  0.5490  0.0891 -0.8334
 3218THY    CA280429   7.350   6.851   8.876  0.2503 -0.3504 -0.2606
 3218THY    CP180430   7.460   6.755   8.915 -0.2924  0.5635 -0.0682
 3218THY    HP180431   7.500   6.713   8.822  2.2833  1.6269  0.4894
 3218THY    CP280432   7.566   6.836   8.990  0.2653 -0.1890  0.3418
 3218THY    HP280433   7.579   6.928   8.933  2.4249 -0.0615  0.9284
 3218THY    HP380434   7.529   6.855   9.092 -1.5791  1.3325 -0.5619
 3218THY    HP480435   7.669   6.796   8.989  0.5659  0.5420  1.0863
 3218THY    CP380436   7.405   6.625   8.996  0.1552 -0.0228 -0.2510
 3218THY    HP580437   7.487   6.555   9.019 -0.4210 -0.7782 -0.4858
 3218THY    HP680438   7.373   6.651   9.098  0.5041 -0.9154  0.0909
 3218THY    HP780439   7.324   6.571   8.948 -0.1240 -0.4875  0.7097
 3218THY    CA380440   7.253   6.895   8.962 -0.0715  0.1196 -0.1017
 3218THY    HA380441   7.255   6.845   9.059  0.0193  0.1406 -0.0923
 3218THY    CA480442   7.164   7.002   8.928  0.1445 -0.0950  0.1565
 3218THY    HA480443   7.082   7.027   8.995 -0.2965 -0.2141 -0.3393
 3218THY    CA580444   7.180   7.064   8.802  1.0189 -0.1026 -0.0114
 3218THY    CM180445   7.089   7.178   8.753 -0.6812 -0.0352  0.5428
 3218THY    HM180446   7.133   7.237   8.671 -1.7454  0.5716  0.3995
 3218THY    HM280447   7.001   7.123   8.719 -0.8883 -0.0190  1.0416
 3218THY    HM380448   7.066   7.254   8.829 -0.9637 -0.9081  1.3479
 3218THY    CA680449   7.270   7.014   8.708 -0.2835  0.3897  0.2263
 3218THY    HA680450   7.273   7.056   8.608 -2.5369  0.5635  0.1879
 3219THY      O80451   5.819   9.650   7.738  0.3342  0.3029  0.2433
 3219THY     HO80452   5.888   9.702   7.691 -0.3438  1.2437  0.2602
 3219THY    CA180453   5.779   9.727   7.843  0.3911 -0.1694  0.1886
 3219THY    CA280454   5.752   9.674   7.971  0.1838  0.4487 -0.0609
 3219THY    CP180455   5.738   9.526   7.993 -0.3411  0.1089  0.0900
 3219THY    HP180456   5.786   9.465   7.916  1.1508  0.7978  0.4265
 3219THY    CP280457   5.806   9.487   8.127 -0.1388  0.0229 -0.5044
 3219THY    HP280458   5.797   9.378   8.137 -2.2521  0.1253 -0.8857
 3219THY    HP380459   5.912   9.513   8.134  0.3159 -2.0147  1.6847
 3219THY    HP480460   5.750   9.531   8.210 -1.7210 -1.5707 -0.6719
 3219THY    CP380461   5.594   9.480   8.003  0.0091 -0.2600 -0.0821
 3219THY    HP580462   5.552   9.496   7.903  0.2000  1.8201  0.1214
 3219THY    HP680463   5.578   9.372   8.014 -0.0893 -0.3958 -1.4098
 3219THY    HP780464   5.530   9.540   8.069 -0.1320 -0.7702  0.2502
 3219THY    CA380465   5.724   9.772   8.070  0.6160  0.5943 -0.1935
 3219THY    HA380466   5.676   9.741   8.162 -0.3753  1.3356 -0.4455
 3219THY    CA480467   5.713   9.906   8.043  0.6044 -0.5143  0.3213
 3219THY    HA480468   5.689   9.976   8.122 -1.8220  1.6397 -2.1094
 3219THY    CA580469   5.761   9.951   7.918 -0.2392  0.0382  0.3116
 3219THY    CM180470   5.767  10.099   7.890 -0.6908 -0.2209 -0.4352
 3219THY    HM180471   5.727  10.134   7.795  0.1386 -1.0926 -1.1256
 3219THY    HM280472   5.716  10.149   7.974 -1.3266 -0.6565 -0.5571
 3219THY    HM380473   5.875  10.120   7.887 -0.3254 -1.0015  3.1599
 3219THY    CA680474   5.793   9.862   7.820  0.3579 -0.1437  0.4993
 3219THY    HA680475   5.835   9.901   7.728  0.0703 -2.5428 -0.7216
 3220THY      O80476   5.208   3.491   1.841  0.1348 -0.1182 -0.1378
 3220THY     HO80477   5.285   3.482   1.899 -0.0392 -0.2854  0.0698
 3220THY    CA180478   5.159   3.617   1.874  0.0067  0.4061 -0.9751
 3220THY    CA280479   5.028   3.646   1.851  0.9776 -0.4185 -0.3053
 3220THY    CP180480   4.932   3.553   1.791  0.1326 -0.1246  0.1544
 3220THY    HP180481   4.988   3.475   1.738  2.2044  0.1220  1.8609
 3220THY    CP280482   4.856   3.474   1.906 -0.5630 -0.0422  0.0790
 3220THY    HP280483   4.783   3.410   1.854  1.4296 -1.3489 -1.2485
 3220THY    HP380484   4.927   3.429   1.975  1.1250  1.8092 -0.3627
 3220THY    HP480485   4.800   3.545   1.969 -0.8860 -2.1011  2.2388
 3220THY    CP380486   4.841   3.616   1.687 -0.4065 -0.4280  0.0222
 3220THY    HP580487   4.770   3.688   1.730  0.7225  3.0189 -3.2651
 3220THY    HP680488   4.902   3.687   1.629 -0.3340  0.4336  1.0970
 3220THY    HP780489   4.787   3.545   1.624 -1.1964  1.7175 -1.8492
 3220THY    CA380490   4.985   3.774   1.888 -0.7328  0.1578  0.8374
 3220THY    HA380491   4.888   3.819   1.866  0.1914  1.1088 -1.6566
 3220THY    CA480492   5.081   3.859   1.945  0.0477  0.4138  0.2993
 3220THY    HA480493   5.053   3.959   1.974  4.1266  1.5898  0.7778
 3220THY    CA580494   5.219   3.826   1.959  0.7999  0.4877 -0.0766
 3220THY    CM180495   5.325   3.928   2.012 -0.2430  0.0543 -0.1163
 3220THY    HM180496   5.356   4.003   1.938 -1.6058 -0.2990 -1.0970
 3220THY    HM280497   5.282   3.985   2.095 -0.1236  0.4340 -0.3120
 3220THY    HM380498   5.413   3.882   2.058  1.6565  1.4624 -2.1177
 3220THY    CA680499   5.258   3.700   1.927 -0.5838  0.0775  0.9649
 3220THY    HA680500   5.362   3.668   1.931 -0.6829 -0.6516 -1.0225
 3221THY      O80501   8.702   2.542   5.701 -0.3090 -0.1028 -0.1079
 3221THY     HO80502   8.770   2.497   5.649  0.4097 -2.6403  2.7404
 3221THY    CA180503   8.758   2.532   5.821  0.0760 -0.2359 -0.5150
 3221THY    CA280504   8.672   2.537   5.935 -0.1914 -0.7026 -0.2315
 3221THY    CP180505   8.522   2.570   5.918 -0.1020 -0.0988 -0.9877
 3221THY    HP180506   8.497   2.644   5.841 -1.5955 -0.1557 -0.6045
 3221THY    CP280507   8.441   2.447   5.895  0.0105 -0.0255 -0.1336
 3221THY    HP280508   8.334   2.464   5.876  0.2968  1.2444 -0.7160
 3221THY    HP380509   8.471   2.384   5.811 -0.5939 -1.1223  0.4489
 3221THY    HP480510   8.443   2.385   5.986 -0.9728 -0.5652 -0.4674
 3221THY    CP380511   8.457   2.639   6.047 -0.6292 -0.6797  0.2053
 3221THY    HP580512   8.358   2.682   6.027 -0.6227 -2.1498 -4.0091
 3221THY    HP680513   8.446   2.568   6.130 -4.3893  0.1366  0.5658
 3221THY    HP780514   8.526   2.712   6.093  0.4398 -0.6321 -1.3994
 3221THY    CA380515   8.723   2.496   6.064  0.9315  0.0667  0.6990
 3221THY    HA380516   8.646   2.476   6.139 -1.4154  1.2540 -1.2448
 3221THY    CA480517   8.854   2.473   6.071 -0.1011  0.5692 -0.9626
 3221THY    HA480518   8.904   2.468   6.167 -1.1408  1.0986 -0.3867
 3221THY    CA580519   8.944   2.489   5.965 -0.0614  0.4742  0.2151
 3221THY    CM180520   9.086   2.461   5.968  0.2823  0.1174 -0.1499
 3221THY    HM180521   9.105   2.447   6.075  0.2204  2.7192  0.2577
 3221THY    HM280522   9.120   2.373   5.912 -0.4952 -1.1179  1.2483
 3221THY    HM380523   9.139   2.545   5.920  1.7814 -1.1750 -0.8587
 3221THY    CA680524   8.894   2.507   5.835  0.0804 -0.4302 -0.2905
 3221THY    HA680525   8.955   2.511   5.745 -1.8746 -0.0196 -1.6740
 3222THY      O80526   9.232   0.524   7.928 -0.1362 -0.3997  0.0099
 3222THY     HO80527   9.142   0.555   7.908 -0.1215 -0.8102 -0.7625
 3222THY    CA180528   9.222   0.430   8.021 -0.7817  0.8226  0.2543
 3222THY    CA280529   9.326   0.333   8.036 -0.0585  0.0269 -0.1822
 3222THY    CP180530   9.455   0.341   7.959  0.6353  0.1910 -0.6429
 3222THY    HP180531   9.434   0.370   7.855 -0.0753  2.4364  0.0646
 3222THY    CP280532   9.546   0.459   8.006  0.9155  0.0184  0.1786
 3222THY    HP280533   9.488   0.546   8.040  0.4568 -0.9308  1.9612
 3222THY    HP380534   9.614   0.445   8.090  1.1136  0.8748  0.1654
 3222THY    HP480535   9.618   0.488   7.928  0.3386  1.1095  0.0223
 3222THY    CP380536   9.549   0.223   7.950 -0.1093  0.2673  0.1634
 3222THY    HP580537   9.504   0.123   7.944 -1.4438  0.7948  0.9672
 3222THY    HP680538   9.625   0.236   7.873  0.1040 -0.4177  0.2482
 3222THY    HP780539   9.609   0.219   8.041 -0.6839  2.0247  0.6511
 3222THY    CA380540   9.311   0.234   8.137 -0.3174  0.1245 -0.1318
 3222THY    HA380541   9.381   0.155   8.158 -1.3933 -0.8197  0.0072
 3222THY    CA480542   9.193   0.224   8.210 -0.1779  0.7496 -0.6392
 3222THY    HA480543   9.171   0.142   8.278  0.0502  2.5442  1.7157
 3222THY    CA580544   9.092   0.322   8.194  0.8785 -0.7438 -0.0780
 3222THY    CM180545   8.965   0.313   8.269  0.0164 -0.3893 -0.3966
 3222THY    HM180546   8.921   0.414   8.264 -1.3457 -0.9291  0.0432
 3222THY    HM280547   8.896   0.242   8.220 -0.7113  0.8042 -1.1684
 3222THY    HM380548   8.980   0.274   8.370 -2.0216 -0.5775 -0.1090
 3222THY    CA680549   9.109   0.424   8.097  0.2741  0.0361 -0.6465
 3222THY    HA680550   9.029   0.495   8.081 -0.2308 -0.2988  0.2887
 3223THY      O80551   1.048   2.623   1.492 -0.3737  0.3674 -0.0523
 3223THY     HO80552   0.975   2.680   1.462 -0.0146  0.8302 -0.0525
 3223THY    CA180553   1.155   2.710   1.477  0.0298 -0.0718  0.8276
 3223THY    CA280554   1.287   2.663   1.442  0.5568 -0.4028 -0.8260
 3223THY    CP180555   1.317   2.508   1.461  0.0444  0.3058  0.3059
 3223THY    HP180556   1.267   2.476   1.554 -1.2859  1.1418 -0.0952
 3223THY    CP280557   1.255   2.437   1.346 -0.4422  0.3943  0.6188
 3223THY    HP280558   1.294   2.478   1.252 -1.7295  1.3255  0.4604
 3223THY    HP380559   1.281   2.332   1.363 -0.6333  0.5082  1.6622
 3223THY    HP480560   1.145   2.441   1.346 -0.5511 -0.3832 -2.3921
 3223THY    CP380561   1.466   2.465   1.477  0.6123  0.0507 -0.1995
 3223THY    HP580562   1.482   2.361   1.508  0.9396  0.0329 -0.4246
 3223THY    HP680563   1.507   2.468   1.376 -1.5458 -1.5313 -1.1895
 3223THY    HP780564   1.525   2.526   1.547 -1.2591 -2.1164  3.5645
 3223THY    CA380565   1.387   2.759   1.414 -0.6051  0.1590  0.1645
 3223THY    HA380566   1.490   2.730   1.394  0.1985  2.2479  0.9655
 3223THY    CA480567   1.354   2.895   1.412 -0.0465 -0.4786 -0.7562
 3223THY    HA480568   1.442   2.953   1.387  0.1947 -0.5876 -0.1931
 3223THY    CA580569   1.224   2.936   1.433  0.2280  0.0141  0.0700
 3223THY    CM180570   1.185   3.076   1.402 -0.3206  0.4416 -0.5157
 3223THY    HM180571   1.243   3.142   1.469 -0.5524 -0.8783  1.0695
 3223THY    HM280572   1.235   3.092   1.306  2.9433  0.0471  0.9465
 3223THY    HM380573   1.079   3.100   1.403 -0.8198 -1.4849  1.2341
 3223THY    CA680574   1.122   2.847   1.469 -0.4709  0.1171  0.6868
 3223THY    HA680575   1.019   2.880   1.477 -1.3298 -2.6077  2.2822
 3224THY      O80576   5.472   8.338   4.863  0.1336  0.4679  0.2323
 3224THY     HO80577   5.486   8.242   4.864  0.9124  0.5487 -0.8465
 3224THY    CA180578   5.500   8.384   4.990  0.3213 -0.3977  0.1444
 3224THY    CA280579   5.454   8.515   5.021  0.2323 -0.0679 -0.0111
 3224THY    CP180580   5.395   8.607   4.916  0.1817  0.5695 -0.0735
 3224THY    HP180581   5.361   8.554   4.826 -0.4852 -1.6703  1.4317
 3224THY    CP280582   5.267   8.675   4.965  0.0207 -0.2291  0.0244
 3224THY    HP280583   5.205   8.705   4.880  0.1628  0.7774  0.2564
 3224THY    HP380584   5.210   8.601   5.021  0.4415 -1.2413 -0.8589
 3224THY    HP480585   5.292   8.756   5.035 -1.0226 -0.6394  0.8922
 3224THY    CP380586   5.471   8.723   4.862 -0.5198 -0.1704  0.1728
 3224THY    HP580587   5.410   8.767   4.782 -2.2399 -1.8681  0.4541
 3224THY    HP680588   5.493   8.795   4.941  1.6901 -1.6747  1.0270
 3224THY    HP780589   5.569   8.685   4.831  0.2692  2.1834 -0.4244
 3224THY    CA380590   5.494   8.567   5.145  0.1334  0.7890 -0.0749
 3224THY    HA380591   5.471   8.668   5.177 -1.1373  0.5631 -0.2031
 3224THY    CA480592   5.549   8.483   5.236 -0.3345 -0.0452  0.5124
 3224THY    HA480593   5.569   8.512   5.339 -1.2575  1.5653  0.2742
 3224THY    CA580594   5.600   8.358   5.201  0.3910 -0.0112 -0.3995
 3224THY    CM180595   5.655   8.260   5.303  0.1069 -0.0826  0.2848
 3224THY    HM180596   5.738   8.207   5.257  0.1088 -0.4671  0.7227
 3224THY    HM280597   5.701   8.314   5.387  1.7978  2.8038 -2.3013
 3224THY    HM380598   5.580   8.189   5.340 -0.3811  0.6750  0.7893
 3224THY    CA680599   5.576   8.306   5.077 -0.1321  0.1751 -0.1894
 3224THY    HA680600   5.607   8.206   5.045 -1.1400  0.0044 -0.6734
 3225THY      O80601   6.247   3.027   0.487  0.1066 -0.1031 -0.0023
 3225THY     HO80602   6.239   3.021   0.390 -1.1455 -1.0075  0.1306
 3225THY    CA180603   6.214   2.906   0.535 -0.4301 -0.3476  0.4885
 3225THY    CA280604   6.201   2.884   0.674  0.4438 -0.1316 -0.1368
 3225THY    CP180605   6.212   3.000   0.771  0.1706  0.1330  0.1380
 3225THY    HP180606   6.306   3.053   0.755  0.9125 -0.4533  2.1833
 3225THY    CP280607   6.100   3.105   0.763 -0.1173 -0.6206 -0.5627
 3225THY    HP280608   6.000   3.070   0.790  0.1954  1.0101  3.2873
 3225THY    HP380609   6.117   3.188   0.832  1.9776 -0.6878 -0.9129
 3225THY    HP480610   6.077   3.151   0.666  0.9441 -0.5237 -0.7839
 3225THY    CP380611   6.227   2.974   0.923  0.3501  0.5128  0.0780
 3225THY    HP580612   6.128   2.952   0.964  1.0447  3.2288  3.7303
 3225THY    HP680613   6.295   2.891   0.946  0.7197  0.6864 -0.3778
 3225THY    HP780614   6.261   3.065   0.974  0.7402 -0.7321  2.1640
 3225THY    CA380615   6.157   2.755   0.715  0.4892 -0.2599  0.6241
 3225THY    HA380616   6.142   2.727   0.819 -1.3244 -0.8008  0.2444
 3225THY    CA480617   6.127   2.650   0.618 -0.4100 -0.3862 -0.4358
 3225THY    HA480618   6.084   2.557   0.655 -1.9822  0.3611 -0.3246
 3225THY    CA580619   6.150   2.679   0.477 -0.6231  0.0357  0.1492
 3225THY    CM180620   6.124   2.569   0.375  0.1109 -0.0143 -0.8792
 3225THY    HM180621   6.084   2.615   0.283  3.1383  1.9283 -1.3655
 3225THY    HM280622   6.218   2.516   0.354  0.9309  1.5011 -1.1551
 3225THY    HM380623   6.048   2.493   0.400  1.3488 -1.0185 -0.0419
 3225THY    CA680624   6.194   2.806   0.439 -0.4505  0.6512  0.0709
 3225THY    HA680625   6.208   2.827   0.334 -1.0651  0.9964  0.0537
 3226THY      O80626   0.410   6.586   0.200  0.2939 -0.3952 -0.2850
 3226THY     HO80627   0.360   6.513   0.159  2.3908 -1.9066 -0.3224
 3226THY    CA180628   0.510   6.536   0.276  0.4684  0.7736  0.0714
 3226THY    CA280629   0.605   6.626   0.323 -0.4276 -0.0198 -0.3385
 3226THY    CP180630   0.593   6.774   0.316 -0.8139 -0.3643 -0.1480
 3226THY    HP180631   0.487   6.798   0.296 -1.6602 -2.3375  1.5789
 3226THY    CP280632   0.635   6.849   0.444 -0.1846  0.5728  0.1170
 3226THY    HP280633   0.743   6.859   0.456  0.3699 -0.5101 -3.0293
 3226THY    HP380634   0.602   6.953   0.448  0.6063  0.8456 -0.3007
 3226THY    HP480635   0.589   6.802   0.532  1.2634 -2.2416 -0.5250
 3226THY    CP380636   0.670   6.818   0.182 -0.3780 -0.2158  0.1607
 3226THY    HP580637   0.614   6.795   0.091  1.1031  1.8822 -1.3801
 3226THY    HP680638   0.680   6.927   0.171 -0.8374 -0.3235 -1.6903
 3226THY    HP780639   0.768   6.769   0.182 -1.0114 -1.5175  0.0345
 3226THY    CA380640   0.716   6.570   0.393 -0.5959  0.7365 -0.7854
 3226THY    HA380641   0.789   6.635   0.441 -2.0540  1.1726  0.9156
 3226THY    CA480642   0.713   6.432   0.415  0.0086  0.1471  0.0496
 3226THY    HA480643   0.789   6.391   0.480  0.6822  0.6249 -0.4187
 3226THY    CA580644   0.617   6.347   0.370  0.0049  0.0911  0.2851
 3226THY    CM180645   0.644   6.197   0.405 -0.5947 -0.3185  0.1785
 3226THY    HM180646   0.730   6.173   0.468 -0.9908 -0.5397  0.6401
 3226THY    HM280647   0.553   6.159   0.454 -0.3448 -0.2625  0.6923
 3226THY    HM380648   0.672   6.143   0.313  0.8262  2.1788 -0.9558
 3226THY    CA680649   0.508   6.401   0.305  0.0230  0.5318 -1.0965
 3226THY    HA680650   0.427   6.340   0.266  0.2732 -1.1057  0.7860
 3227THY      O80651   1.561   5.087   2.027 -0.4633 -0.0771 -0.1557
 3227THY     HO80652   1.588   5.118   1.939 -0.0888 -0.7591 -0.2887
 3227THY    CA180653   1.678   5.098   2.101 -0.4167 -0.9148 -0.2650
 3227THY    CA280654   1.688   5.068   2.237 -0.0779 -0.1670  0.1709
 3227THY    CP180655   1.571   5.019   2.318  0.0504  1.0631  0.4707
 3227THY    HP180656   1.480   5.062   2.274  1.2150  1.7111 -1.3759
 3227THY    CP280657   1.554   4.861   2.300 -0.2791 -0.2145 -0.1085
 3227THY    HP280658   1.642   4.816   2.346  0.5758  1.7025  0.2205
 3227THY    HP380659   1.463   4.816   2.343  1.1194 -1.1880  2.0146
 3227THY    HP480660   1.568   4.839   2.194  2.5745 -3.8917  0.8199
 3227THY    CP380661   1.567   5.067   2.470  0.0283  0.8135 -0.3091
 3227THY    HP580662   1.483   5.018   2.521 -0.6587  3.0584  0.8386
 3227THY    HP680663   1.655   5.040   2.528  2.6309 -0.7047 -4.5254
 3227THY    HP780664   1.550   5.175   2.476 -1.8019  0.4995  1.2558
 3227THY    CA380665   1.816   5.084   2.303  0.5902 -0.4276  0.1913
 3227THY    HA380666   1.827   5.055   2.407 -0.8986  0.4256  0.6101
 3227THY    CA480667   1.928   5.115   2.237  0.0052 -1.0999  0.5939
 3227THY    HA480668   2.027   5.112   2.280  0.9592  2.0965 -1.0524
 3227THY    CA580669   1.917   5.143   2.096  0.0015 -0.1284 -0.0342
 3227THY    CM180670   2.043   5.156   2.014 -0.0550 -0.0637  0.0558
 3227THY    HM180671   2.137   5.163   2.070  0.7682  1.8752 -1.4408
 3227THY    HM280672   2.055   5.091   1.927  2.5471  1.6867 -1.0223
 3227THY    HM380673   2.048   5.250   1.957  0.7524  0.4236  0.9190
 3227THY    CA680674   1.797   5.129   2.030  0.0253  0.3296  0.5283
 3227THY    HA680675   1.789   5.149   1.924 -1.1562  1.6840  0.8314
 3228THY      O80676   7.320   1.970   4.098 -0.8739  0.2782 -0.2065
 3228THY     HO80677   7.223   1.963   4.088 -0.6840 -1.1124 -1.3002
 3228THY    CA180678   7.373   1.886   4.012 -0.3636 -0.5506  0.7755
 3228THY    CA280679   7.500   1.902   3.962  0.1887 -0.2640 -0.0362
 3228THY    CP180680   7.594   2.012   4.022 -0.1745 -0.2193  0.3247
 3228THY    HP180681   7.539   2.096   4.067  0.1188 -1.5984  3.5440
 3228THY    CP280682   7.685   1.952   4.123  0.0067  0.5493  0.0049
 3228THY    HP280683   7.623   1.914   4.205  0.0317 -0.0709 -0.2611
 3228THY    HP380684   7.731   1.858   4.093 -3.0389 -0.5983 -1.5099
 3228THY    HP480685   7.755   2.025   4.166 -0.5258  1.4809 -0.6515
 3228THY    CP380686   7.689   2.087   3.916  0.1984  1.0974  0.2950
 3228THY    HP580687   7.739   2.163   3.976  0.6550  1.4495 -0.5149
 3228THY    HP680688   7.763   2.013   3.883 -0.4684  0.2466  0.6717
 3228THY    HP780689   7.635   2.128   3.830 -0.6091 -0.9575 -0.2571
 3228THY    CA380690   7.543   1.807   3.875 -0.2887 -0.4711  0.3296
 3228THY    HA380691   7.643   1.808   3.832 -0.9742 -0.7678 -1.3578
 3228THY    CA480692   7.467   1.700   3.830  0.7745 -1.0623  0.3865
 3228THY    HA480693   7.502   1.633   3.752 -2.2124  1.5542 -3.6378
 3228THY    CA580694   7.351   1.677   3.898  0.8177 -0.8901  0.2032
 3228THY    CM180695   7.277   1.547   3.889 -0.6402 -0.0565 -0.7279
 3228THY    HM180696   7.328   1.484   3.815  1.0560  0.0634  0.2759
 3228THY    HM280697   7.285   1.498   3.987 -0.0713 -0.3439 -0.9138
 3228THY    HM380698   7.170   1.557   3.870 -0.8455 -0.4141  0.1785
 3228THY    CA680699   7.300   1.773   3.985  0.1392  0.0701  0.3548
 3228THY    HA680700   7.202   1.767   4.031 -0.2712  0.8937 -0.3769
 3229THY      O80701   4.871   4.228   6.017 -0.0253 -0.2111  0.5511
 3229THY     HO80702   4.928   4.154   6.047  1.6253  1.2155  1.0732
 3229THY    CA180703   4.800   4.193   5.909 -0.3782  0.6379  0.5089
 3229THY    CA280704   4.740   4.291   5.831 -0.2841 -0.0139  0.2152
 3229THY    CP180705   4.762   4.440   5.867  0.0302 -1.1780 -0.1039
 3229THY    HP180706   4.757   4.449   5.976 -1.1299 -1.0710 -0.1586
 3229THY    CP280707   4.897   4.506   5.820  0.8662  0.2137 -0.2129
 3229THY    HP280708   4.890   4.502   5.711  0.9295 -3.4268 -0.2091
 3229THY    HP380709   4.904   4.611   5.848  0.6927  0.2063 -0.1350
 3229THY    HP480710   4.990   4.452   5.840  0.1999 -0.6239  0.7491
 3229THY    CP380711   4.652   4.543   5.824  0.3657  0.1697  0.3109
 3229THY    HP580712   4.564   4.481   5.841  2.0386 -1.7299  2.7021
 3229THY    HP680713   4.637   4.625   5.895 -0.5293 -1.2489  1.8324
 3229THY    HP780714   4.649   4.571   5.718  0.4099  1.1021  0.5401
 3229THY    CA380715   4.665   4.256   5.722  0.2376  0.3515  0.5836
 3229THY    HA380716   4.618   4.328   5.656 -0.1781 -1.2930 -1.0348
 3229THY    CA480717   4.644   4.122   5.696 -0.1507 -0.1439  0.1505
 3229THY    HA480718   4.585   4.111   5.605  0.0941  4.3416 -0.8135
 3229THY    CA580719   4.703   4.023   5.769  0.2208  0.6105 -0.4171
 3229THY    CM180720   4.686   3.870   5.723  0.1469 -0.4761 -0.4198
 3229THY    HM180721   4.587   3.857   5.676  0.2002  0.9630 -0.9968
 3229THY    HM280722   4.766   3.833   5.659 -0.3550 -0.6815 -0.9424
 3229THY    HM380723   4.667   3.801   5.806 -0.8328  0.6009  0.2869
 3229THY    CA680724   4.782   4.060   5.875  0.3317  0.0039 -0.7818
 3229THY    HA680725   4.842   3.987   5.928  1.0735  1.0444 -0.1443
 3230THY      O80726   2.158   7.546   5.317  0.1998  0.0289  0.8519
 3230THY     HO80727   2.145   7.601   5.396 -0.7900  2.3651 -0.8321
 3230THY    CA180728   2.031   7.492   5.300  0.3802  0.3303  0.7292
 3230THY    CA280729   2.002   7.393   5.205  0.5186 -0.6583  0.2005
 3230THY    CP180730   2.104   7.350   5.106 -0.2135  0.1119  0.6675
 3230THY    HP180731   2.174   7.434   5.098  0.2198 -0.1135  1.9268
 3230THY    CP280732   2.185   7.232   5.159 -0.6709  0.0047 -0.1378
 3230THY    HP280733   2.290   7.239   5.127 -1.2729  2.1276 -1.8750
 3230THY    HP380734   2.191   7.244   5.268 -0.5668  4.2252 -0.4593
 3230THY    HP480735   2.138   7.136   5.135 -1.0934  0.2897 -0.4754
 3230THY    CP380736   2.068   7.328   4.959  0.2578 -0.3589 -0.1778
 3230THY    HP580737   2.013   7.413   4.918  1.1298  0.2773 -0.0456
 3230THY    HP680738   2.156   7.301   4.900  0.9921  0.8738  0.3404
 3230THY    HP780739   2.000   7.243   4.945 -1.0189  0.3633  1.3172
 3230THY    CA380740   1.866   7.345   5.191 -0.7362  0.1209  0.4699
 3230THY    HA380741   1.837   7.271   5.117  1.3130  0.4299 -0.7338
 3230THY    CA480742   1.777   7.378   5.285  0.6742 -0.5986  0.5716
 3230THY    HA480743   1.676   7.338   5.286 -0.4123  1.9033 -0.6047
 3230THY    CA580744   1.808   7.470   5.386 -0.1982  0.4011  0.5848
 3230THY    CM180745   1.707   7.511   5.488 -0.4510  0.5164  0.6247
 3230THY    HM180746   1.750   7.496   5.588 -1.8729 -0.3792  1.1424
 3230THY    HM280747   1.681   7.616   5.477 -0.8033  0.3208 -0.4835
 3230THY    HM380748   1.610   7.463   5.469  0.6204 -0.9115 -1.6194
 3230THY    CA680749   1.937   7.523   5.392 -0.0121 -0.2440  0.0294
 3230THY    HA680750   1.960   7.596   5.469  1.3911  1.1682 -1.6320
 3231THY      O80751   3.228   3.805   5.559  0.2050 -0.1078  0.9564
 3231THY     HO80752   3.250   3.809   5.464  1.6843  0.7365  1.2997
 3231THY    CA180753   3.255   3.683   5.601  0.2969  0.7749  0.9238
 3231THY    CA280754   3.187   3.627   5.714 -0.0338  0.1389  0.1297
 3231THY    CP180755   3.084   3.708   5.784  0.4434  0.0314  0.3377
 3231THY    HP180756   3.038   3.782   5.718  0.7265 -0.1871 -0.1065
 3231THY    CP280757   2.961   3.628   5.830 -1.1842 -0.1165 -0.5702
 3231THY    HP280758   2.877   3.696   5.849 -0.8954 -0.0783  0.6261
 3231THY    HP380759   2.935   3.551   5.757 -2.1143 -1.5002  1.1536
 3231THY    HP480760   2.963   3.574   5.925  0.0568  0.8391 -0.0119
 3231THY    CP380761   3.144   3.790   5.892 -0.0040 -0.6248 -0.6310
 3231THY    HP580762   3.181   3.712   5.960  0.4471 -0.0037 -0.1510
 3231THY    HP680763   3.227   3.846   5.849  1.3407 -1.2258  1.0768
 3231THY    HP780764   3.072   3.864   5.929  0.6507  1.0491 -2.5169
 3231THY    CA380765   3.212   3.490   5.746  0.1261  0.8094 -0.1889
 3231THY    HA380766   3.147   3.437   5.814  0.0055 -0.8948 -1.5499
 3231THY    CA480767   3.303   3.415   5.668 -0.3617 -0.0058  0.0436
 3231THY    HA480768   3.332   3.314   5.697  0.5674  0.3536  0.4384
 3231THY    CA580769   3.373   3.474   5.556 -0.3006  0.2505  0.6214
 3231THY    CM180770   3.480   3.400   5.477  1.2441 -0.0289 -0.6513
 3231THY    HM180771   3.491   3.294   5.504  3.6640 -0.0770 -1.5320
 3231THY    HM280772   3.469   3.410   5.368  2.0694 -3.0366 -1.1205
 3231THY    HM380773   3.573   3.444   5.513  0.8750 -0.2102  0.5535
 3231THY    CA680774   3.348   3.606   5.523 -0.1903 -0.7998 -0.1184
 3231THY    HA680775   3.397   3.656   5.440 -2.0953 -0.6498 -1.2234
 3232THY      O80776   9.766   7.548   5.017  0.6720 -0.1711 -0.0870
 3232THY     HO80777   9.759   7.462   5.062  0.6805 -1.6551 -2.6749
 3232THY    CA180778   9.713   7.517   4.897  0.2076  0.8382  0.8098
 3232THY    CA280779   9.693   7.615   4.796 -0.2651 -0.4721  0.1570
 3232THY    CP180780   9.718   7.762   4.829 -0.6291  0.5997 -0.2455
 3232THY    HP180781   9.729   7.772   4.937 -1.0143  1.7945 -0.3007
 3232THY    CP280782   9.850   7.803   4.766 -0.1308  0.0814  0.7377
 3232THY    HP280783   9.923   7.733   4.807 -1.8113 -2.2095  0.0307
 3232THY    HP380784   9.852   7.784   4.659  0.6521 -1.3824  0.9939
 3232THY    HP480785   9.874   7.908   4.785 -0.6307 -0.2064  3.3947
 3232THY    CP380786   9.600   7.850   4.785 -0.2368 -0.1559  0.1560
 3232THY    HP580787   9.621   7.953   4.815  0.8128 -0.6749  1.2716
 3232THY    HP680788   9.587   7.864   4.677 -1.0201  0.8703  0.3667
 3232THY    HP780789   9.509   7.804   4.826 -0.7398  0.3165 -0.4116
 3232THY    CA380790   9.652   7.575   4.668  0.4548 -0.4181 -0.9146
 3232THY    HA380791   9.635   7.649   4.590 -3.1019  1.4381  1.3563
 3232THY    CA480792   9.614   7.440   4.654  0.0501  0.7895 -0.4645
 3232THY    HA480793   9.576   7.398   4.561  0.5751  0.4584 -0.5286
 3232THY    CA580794   9.632   7.344   4.751  0.3833 -0.2709  0.2377
 3232THY    CM180795   9.624   7.195   4.710 -0.3799  0.4032  0.0570
 3232THY    HM180796   9.542   7.165   4.644  0.1383  1.0731 -0.9211
 3232THY    HM280797   9.713   7.174   4.649 -0.4349 -1.7766  0.6464
 3232THY    HM380798   9.631   7.134   4.801 -1.1496  0.3712  0.0995
 3232THY    CA680799   9.685   7.381   4.873  0.2120  0.0961  0.0017
 3232THY    HA680800   9.710   7.305   4.946  0.2107 -0.6588 -0.7714
 3233THY      O80801   9.882   0.798   3.621  0.4912 -0.3902 -0.0788
 3233THY     HO80802   9.890   0.840   3.708  2.8183  0.7763 -0.7813
 3233THY    CA180803   9.789   0.871   3.552 -0.2401 -0.1573  0.2404
 3233THY    CA280804   9.689   0.815   3.474 -0.4567  0.2928  0.0376
 3233THY    CP180805   9.666   0.664   3.472 -0.6869  0.1323  0.3952
 3233THY    HP180806   9.764   0.613   3.469 -0.7907 -0.0606  0.2211
 3233THY    CP280807   9.598   0.615   3.598 -0.5114  0.4760 -0.1057
 3233THY    HP280808   9.509   0.672   3.625  1.1122  2.8536  0.4663
 3233THY    HP380809   9.584   0.506   3.586  2.0609 -0.4214  3.5292
 3233THY    HP480810   9.664   0.617   3.685  2.0073 -0.6118 -1.8558
 3233THY    CP380811   9.595   0.615   3.342 -0.2444  0.1961  0.0424
 3233THY    HP580812   9.622   0.512   3.315 -2.0468 -0.1507 -0.6238
 3233THY    HP680813   9.486   0.606   3.349 -0.2831  0.2874 -0.3778
 3233THY    HP780814   9.610   0.681   3.256 -2.6859  1.5197  0.5533
 3233THY    CA380815   9.609   0.895   3.396  0.2470  0.4512  0.1069
 3233THY    HA380816   9.531   0.858   3.330  0.1362  0.0641  0.4507
 3233THY    CA480817   9.643   1.030   3.377 -0.2583  0.1085 -0.3634
 3233THY    HA480818   9.580   1.091   3.313 -0.9826  0.0509  0.2678
 3233THY    CA580819   9.743   1.092   3.454 -0.4020  0.7947 -0.1105
 3233THY    CM180820   9.780   1.235   3.463  0.1593 -0.0925  0.7288
 3233THY    HM180821   9.884   1.256   3.492  0.7343 -0.9734 -0.5628
 3233THY    HM280822   9.769   1.284   3.365 -0.3710  0.4426  1.0520
 3233THY    HM380823   9.716   1.286   3.535 -0.2729  1.3204 -0.5951
 3233THY    CA680824   9.817   1.004   3.534  0.2865 -0.3965 -0.9851
 3233THY    HA680825   9.899   1.049   3.589 -1.0352 -0.2604  0.9776
 3234THY      O80826   2.601   4.696   3.150  0.3119  0.1026  0.0503
 3234THY     HO80827   2.664   4.722   3.220  0.6841  1.7904 -0.8651
 3234THY    CA180828   2.479   4.714   3.200  0.1343 -0.1362 -0.2453
 3234THY    CA280829   2.360   4.729   3.126  0.3426  0.3100  0.3601
 3234THY    CP180830   2.372   4.707   2.973  1.1952 -0.2919 -0.0468
 3234THY    HP180831   2.472   4.698   2.929  0.6600  0.6021 -1.5104
 3234THY    CP280832   2.302   4.567   2.952  0.0376  0.4286  0.1262
 3234THY    HP280833   2.347   4.483   3.006 -1.3171  1.0153  2.3299
 3234THY    HP380834   2.205   4.559   3.003  0.9795 -2.3296  1.7490
 3234THY    HP480835   2.282   4.534   2.850 -0.0357 -1.3934  0.6953
 3234THY    CP380836   2.302   4.817   2.892 -0.2667 -1.3308  0.3553
 3234THY    HP580837   2.196   4.820   2.916 -0.4763  2.4098 -0.3868
 3234THY    HP680838   2.340   4.920   2.905 -1.8680 -0.8025  1.0466
 3234THY    HP780839   2.318   4.782   2.789 -0.7916 -0.2135 -0.1220
 3234THY    CA380840   2.233   4.759   3.187  0.3803  0.0036 -0.2778
 3234THY    HA380841   2.142   4.774   3.130 -0.6097  2.3517  1.7370
 3234THY    CA480842   2.235   4.783   3.324  0.2672 -0.6558 -0.1522
 3234THY    HA480843   2.148   4.818   3.378  0.1706 -1.1151 -0.0067
 3234THY    CA580844   2.351   4.772   3.393  0.0495 -0.1672  0.9644
 3234THY    CM180845   2.360   4.824   3.535  0.5895 -0.1232  0.5515
 3234THY    HM180846   2.279   4.790   3.601 -0.6961  1.9443  0.1303
 3234THY    HM280847   2.457   4.800   3.580  0.8772  0.4427  0.2457
 3234THY    HM380848   2.365   4.933   3.538  0.2041 -0.0642 -0.7304
 3234THY    CA680849   2.474   4.739   3.336  0.4601 -0.4741 -0.1643
 3234THY    HA680850   2.565   4.736   3.397 -1.5414 -1.3088  3.0156
 3235THY      O80851   8.811   0.060   4.762  0.0344 -0.2371  0.1996
 3235THY     HO80852   8.868   0.006   4.705  1.7304  2.3222 -0.7025
 3235THY    CA180853   8.738  -0.015   4.847  0.9414  0.7502 -0.1641
 3235THY    CA280854   8.642   0.041   4.935 -0.3280  0.1239  0.4386
 3235THY    CP180855   8.603   0.184   4.934 -0.1984 -0.1707 -0.3178
 3235THY    HP180856   8.665   0.239   4.863 -0.0195  0.4035  0.2730
 3235THY    CP280857   8.453   0.218   4.900 -0.7859 -0.8604 -0.7301
 3235THY    HP280858   8.430   0.188   4.797  0.2715 -2.1784 -0.6102
 3235THY    HP380859   8.392   0.163   4.973 -0.2394 -0.8501 -0.2544
 3235THY    HP480860   8.437   0.327   4.903  3.3507 -0.0674 -1.2473
 3235THY    CP380861   8.641   0.256   5.064 -0.6433  0.0561  0.2816
 3235THY    HP580862   8.638   0.363   5.040 -0.3143 -0.1129 -0.5824
 3235THY    HP680863   8.591   0.236   5.159  0.3900 -0.7983  0.6645
 3235THY    HP780864   8.746   0.249   5.097 -0.5265  1.4097  0.2703
 3235THY    CA380865   8.577  -0.044   5.025 -0.0059  0.7107  0.3496
 3235THY    HA380866   8.489  -0.009   5.078 -0.7246 -1.9392  1.0207
 3235THY    CA480867   8.598  -0.185   5.017 -0.1427 -0.5360 -0.4000
 3235THY    HA480868   8.546  -0.254   5.082 -0.9134  1.1690  0.8901
 3235THY    CA580869   8.708  -0.236   4.935 -0.1497  0.1618 -0.1465
 3235THY    CM180870   8.745  -0.384   4.937 -0.0784 -0.0862  0.7968
 3235THY    HM180871   8.760  -0.404   4.830 -0.4636  1.6409  0.4025
 3235THY    HM280872   8.838  -0.399   4.993  0.3116 -1.5073 -0.1861
 3235THY    HM380873   8.674  -0.461   4.971 -0.1638 -0.3773 -0.0194
 3235THY    CA680874   8.778  -0.144   4.855  0.2777  0.3235  0.1346
 3235THY    HA680875   8.860  -0.181   4.793 -0.7768  1.0758 -1.8084
 3236THY      O80876   1.296   0.058   1.344  1.4357 -0.0446  0.1994
 3236THY     HO80877   1.222   0.120   1.333 -1.1117 -2.8415  0.3720
 3236THY    CA180878   1.235  -0.044   1.391  0.2060  0.3726 -0.1951
 3236THY    CA280879   1.300  -0.167   1.403  0.4237 -0.2583 -0.3233
 3236THY    CP180880   1.444  -0.194   1.365  0.4357 -0.1013  0.1439
 3236THY    HP180881   1.507  -0.105   1.360  2.6705 -1.5489  0.8145
 3236THY    CP280882   1.521  -0.274   1.473  0.6145 -0.0695 -0.1037
 3236THY    HP280883   1.466  -0.362   1.509 -0.4975  0.9639  0.8535
 3236THY    HP380884   1.612  -0.317   1.430 -0.4614 -0.0454 -2.5638
 3236THY    HP480885   1.540  -0.203   1.555  0.1914 -0.1746  0.0872
 3236THY    CP380886   1.449  -0.273   1.232  0.3338 -0.0932  0.3392
 3236THY    HP580887   1.407  -0.208   1.155  1.9363 -0.2047 -0.6773
 3236THY    HP680888   1.549  -0.302   1.195  0.0864 -0.9942  0.3436
 3236THY    HP780889   1.379  -0.355   1.253  0.5417  0.2593  2.6895
 3236THY    CA380890   1.221  -0.274   1.454  0.0209 -0.2583  0.6315
 3236THY    HA380891   1.263  -0.374   1.462  1.4674  0.4010  1.6778
 3236THY    CA480892   1.080  -0.253   1.481  0.3105 -0.2078 -0.1954
 3236THY    HA480893   1.023  -0.327   1.535 -0.3757 -1.0700 -2.0344
 3236THY    CA580894   1.026  -0.123   1.471  0.1714  0.4542  0.3988
 3236THY    CM180895   0.885  -0.110   1.511 -0.0876  0.3116 -0.3892
 3236THY    HM180896   0.846  -0.018   1.468 -1.6675 -0.7805 -1.4088
 3236THY    HM280897   0.827  -0.190   1.462 -0.9097 -0.7075  2.1121
 3236THY    HM380898   0.883  -0.112   1.620 -2.0912  0.1008 -0.3869
 3236THY    CA680899   1.101  -0.024   1.425 -0.8934 -0.5528 -0.0984
 3236THY    HA680900   1.055   0.074   1.423 -1.2973 -0.6994  0.9398
 3237THY      O80901   0.349   9.225   5.455  0.4435  0.1279 -0.7959
 3237THY     HO80902   0.410   9.164   5.501 -0.6786 -0.4870 -0.0643
 3237THY    CA180903   0.420   9.336   5.421 -0.3072  0.3288  0.1502
 3237THY    CA280904   0.354   9.440   5.350  0.6092  0.1838  0.2332
 3237THY    CP180905   0.203   9.441   5.337  0.1386  0.7500  0.7896
 3237THY    HP180906   0.164   9.401   5.432 -0.1578 -1.1896 -0.0991
 3237THY    CP280907   0.147   9.587   5.321  0.6553 -0.7091  0.7904
 3237THY    HP280908   0.184   9.633   5.229  0.4278 -1.5205  0.2843
 3237THY    HP380909   0.038   9.589   5.310  0.6305 -2.2704  0.5339
 3237THY    HP480910   0.169   9.641   5.414 -1.3437  3.4329 -0.8742
 3237THY    CP380911   0.156   9.351   5.230 -0.6130  0.1992 -0.4758
 3237THY    HP580912   0.210   9.373   5.137 -1.8823  1.8730 -0.8587
 3237THY    HP680913   0.175   9.246   5.256 -3.8778 -0.2158  0.6533
 3237THY    HP780914   0.047   9.349   5.219 -1.0258 -0.3327  2.6871
 3237THY    CA380915   0.433   9.544   5.302  0.7213  0.1894  0.2608
 3237THY    HA380916   0.387   9.628   5.251  0.5611 -0.4733 -0.7211
 3237THY    CA480917   0.577   9.549   5.335  0.2825  0.0640  0.4461
 3237THY    HA480918   0.643   9.629   5.303 -3.3468  3.0957 -0.1871
 3237THY    CA580919   0.639   9.446   5.407 -0.1809 -0.1368  1.1226
 3237THY    CM180920   0.785   9.447   5.427  1.0142  0.4034  0.0260
 3237THY    HM180921   0.812   9.344   5.455  0.0105  0.0319 -0.3129
 3237THY    HM280922   0.839   9.456   5.332  1.7778 -1.2388  0.2606
 3237THY    HM380923   0.810   9.525   5.499 -0.8444  1.4066 -0.3391
 3237THY    CA680924   0.560   9.337   5.445  0.4255  1.1790 -0.3210
 3237THY    HA680925   0.608   9.255   5.498 -3.0368  0.9478  2.8816
 3238THY      O80926   4.890   0.556   0.639  0.8917  0.4552 -0.3734
 3238THY     HO80927   4.827   0.509   0.697 -0.2519  0.7158 -1.3470
 3238THY    CA180928   4.897   0.498   0.516  0.3786 -0.0715 -0.7366
 3238THY    CA280929   4.970   0.546   0.406 -0.4677 -0.0956 -0.5371
 3238THY    CP180930   5.049   0.677   0.422 -0.3127  0.0838 -0.0586
 3238THY    HP180931   5.007   0.737   0.503 -0.9593 -1.8048  1.0900
 3238THY    CP280932   5.189   0.655   0.471  0.2208  0.2202  0.1344
 3238THY    HP280933   5.225   0.755   0.501 -1.5500  1.0183 -0.2481
 3238THY    HP380934   5.195   0.587   0.557  0.2083 -1.0825 -0.8783
 3238THY    HP480935   5.246   0.628   0.382 -0.6847  0.6349 -0.5889
 3238THY    CP380936   5.060   0.774   0.305 -0.2254  0.2836  0.1475
 3238THY    HP580937   5.084   0.880   0.324 -2.3137  0.7176  0.5819
 3238THY    HP680938   5.113   0.745   0.214 -1.1010 -1.9509  0.2778
 3238THY    HP780939   4.956   0.789   0.274 -0.3154 -1.5674 -0.5818
 3238THY    CA380940   4.973   0.482   0.287  0.5185 -0.0334 -0.2102
 3238THY    HA380941   5.024   0.536   0.207  1.9619  0.1831  0.8096
 3238THY    CA480942   4.901   0.359   0.271  0.1397 -0.3582 -0.1588
 3238THY    HA480943   4.902   0.306   0.176 -0.0195 -0.0044 -0.3581
 3238THY    CA580944   4.823   0.320   0.380  0.8860  0.8856  0.6193
 3238THY    CM180945   4.735   0.200   0.376 -0.0319 -0.0558 -0.2981
 3238THY    HM180946   4.627   0.215   0.370  0.0953  1.1167 -0.0559
 3238THY    HM280947   4.756   0.143   0.285  2.9120 -2.2609  1.5674
 3238THY    HM380948   4.751   0.140   0.466 -2.7971  1.7374  1.5615
 3238THY    CA680949   4.820   0.389   0.499 -0.2652  0.4159  0.1668
 3238THY    HA680950   4.765   0.345   0.582 -0.3428  3.0427  1.6320
 3239THY      O80951   1.489   3.492   4.532  0.4611  0.2714 -0.7103
 3239THY     HO80952   1.491   3.514   4.626  0.1591 -1.8174 -0.1641
 3239THY    CA180953   1.502   3.598   4.458 -0.0236  0.4629 -0.1295
 3239THY    CA280954   1.498   3.583   4.316 -0.6668  0.4920  0.4124
 3239THY    CP180955   1.447   3.458   4.245  0.0991  0.2746 -0.0349
 3239THY    HP180956   1.478   3.367   4.298 -0.2434  1.1167  1.6883
 3239THY    CP280957   1.291   3.469   4.232 -0.3170 -0.3011 -0.6787
 3239THY    HP280958   1.254   3.377   4.185  0.0593  0.1604 -1.9436
 3239THY    HP380959   1.234   3.489   4.323 -2.5598 -0.5326 -1.9657
 3239THY    HP480960   1.265   3.545   4.157 -1.0551 -1.1741 -1.3272
 3239THY    CP380961   1.513   3.440   4.102  0.2528  0.4096 -1.1590
 3239THY    HP580962   1.475   3.339   4.085  0.4528 -0.2121  1.5541
 3239THY    HP680963   1.476   3.508   4.025 -0.0393  0.0339 -1.3481
 3239THY    HP780964   1.623   3.439   4.111  0.0812  0.7106  2.6448
 3239THY    CA380965   1.529   3.698   4.240  0.4627  0.0741 -0.3063
 3239THY    HA380966   1.523   3.696   4.131  2.2616 -1.0070 -0.4335
 3239THY    CA480967   1.552   3.822   4.302 -0.5902  0.5185 -0.5626
 3239THY    HA480968   1.581   3.904   4.237  2.2132  0.8687  0.9927
 3239THY    CA580969   1.575   3.824   4.444 -0.8177 -0.0589  0.8418
 3239THY    CM180970   1.626   3.955   4.512 -0.6440  0.3001  0.2379
 3239THY    HM180971   1.733   3.976   4.502 -0.6366  0.0446 -0.2643
 3239THY    HM280972   1.568   4.035   4.464 -0.1467 -0.2817 -1.4147
 3239THY    HM380973   1.610   3.963   4.620  3.1769  0.5038  0.9076
 3239THY    CA680974   1.539   3.721   4.523 -0.5262  0.8717  0.2709
 3239THY    HA680975   1.565   3.721   4.628 -1.2594 -2.5210  0.5698
 3240THY      O80976   8.953   0.107   6.281  0.5669 -0.5087  0.2479
 3240THY     HO80977   8.866   0.139   6.252  0.3501  0.6333  2.0340
 3240THY    CA180978   8.934   0.016   6.381  0.2261  0.2005 -0.1423
 3240THY    CA280979   9.030  -0.007   6.486  0.3963  0.7373  0.4801
 3240THY    CP180980   9.151   0.087   6.497  0.1945  0.1961  0.2915
 3240THY    HP180981   9.165   0.148   6.407 -1.0818  0.7493  0.4476
 3240THY    CP280982   9.138   0.175   6.625 -0.0316 -0.5999  0.2938
 3240THY    HP280983   9.136   0.117   6.718 -1.6618 -0.0474  0.6347
 3240THY    HP380984   9.221   0.246   6.618 -0.8333  0.4098  0.7904
 3240THY    HP480985   9.050   0.240   6.619  0.5370  0.0481 -2.3670
 3240THY    CP380986   9.283   0.007   6.496 -0.8268  0.5493 -0.2647
 3240THY    HP580987   9.294  -0.057   6.407 -0.0844  0.3565 -0.0399
 3240THY    HP680988   9.373   0.069   6.492  0.7063 -1.4475  1.0931
 3240THY    HP780989   9.287  -0.055   6.587 -2.6487  1.6619  0.6402
 3240THY    CA380990   8.996  -0.099   6.588 -0.4660 -0.2627 -0.2904
 3240THY    HA380991   9.065  -0.110   6.672 -0.8300 -0.2423  0.0152
 3240THY    CA480992   8.876  -0.167   6.577 -0.3130  0.1057 -0.1937
 3240THY    HA480993   8.855  -0.240   6.655  1.0508 -1.8707 -1.5739
 3240THY    CA580994   8.779  -0.144   6.484 -0.4485  0.0663  0.3702
 3240THY    CM180995   8.641  -0.204   6.501 -0.0068  0.3686  0.5569
 3240THY    HM180996   8.615  -0.266   6.414  1.2607 -0.5288  0.7818
 3240THY    HM280997   8.630  -0.270   6.588 -1.1115  2.1115  1.7774
 3240THY    HM380998   8.571  -0.120   6.501  0.5683  0.9111 -1.6882
 3240THY    CA680999   8.805  -0.051   6.382  0.1544 -0.2815 -0.0372
 3240THY    HA681000   8.734  -0.034   6.302  1.9552 -0.3378 -1.7039
 3241THY      O81001   5.597   1.959   7.356  0.0433 -0.4102  0.7243
 3241THY     HO81002   5.530   1.889   7.364 -0.3237  0.0642  2.0263
 3241THY    CA181003   5.724   1.905   7.353  0.1514 -0.0566 -0.5978
 3241THY    CA281004   5.753   1.767   7.351  0.3676 -0.1410 -0.6881
 3241THY    CP181005   5.632   1.670   7.368 -0.3268 -0.3160 -0.5288
 3241THY    HP181006   5.550   1.718   7.422 -1.9865 -2.3514 -1.1103
 3241THY    CP281007   5.581   1.623   7.231  0.7231  0.4048  0.3838
 3241THY    HP281008   5.658   1.565   7.177  0.6953  0.3393  0.4153
 3241THY    HP381009   5.490   1.563   7.229 -0.3496  1.9623  0.6718
 3241THY    HP481010   5.566   1.711   7.167  1.2246 -0.2997 -0.7476
 3241THY    CP381011   5.673   1.552   7.457  0.1169  0.0595  0.3714
 3241THY    HP581012   5.594   1.493   7.505  0.3742  0.1325  0.8913
 3241THY    HP681013   5.727   1.479   7.395  1.4926  1.8112 -0.5618
 3241THY    HP781014   5.737   1.593   7.535 -1.2990  1.7138  0.7376
 3241THY    CA381015   5.886   1.721   7.335 -0.1496  0.7872 -0.6938
 3241THY    HA381016   5.905   1.615   7.343 -0.2330  0.8244  0.0725
 3241THY    CA481017   5.988   1.811   7.333 -0.3577 -0.0509 -0.4871
 3241THY    HA481018   6.091   1.777   7.336 -0.1394  0.5679 -0.7991
 3241THY    CA581019   5.959   1.950   7.338  0.3873  0.0965  0.5457
 3241THY    CM181020   6.075   2.048   7.340  0.7585 -0.0611 -1.0070
 3241THY    HM181021   6.120   2.045   7.440  0.3252 -0.2777 -0.8182
 3241THY    HM281022   6.144   1.998   7.270  0.7905 -2.0271  0.3402
 3241THY    HM381023   6.044   2.146   7.302 -2.9994 -1.3011 -1.5293
 3241THY    CA681024   5.828   1.997   7.353 -0.3593  0.2343 -1.0128
 3241THY    HA681025   5.815   2.104   7.372  1.5769  0.3608 -0.1985
 3242THY      O81026   6.029   4.015   2.455  0.6055  0.0429  0.1233
 3242THY     HO81027   6.116   4.047   2.484  1.0471  1.6284 -2.6971
 3242THY    CA181028   6.020   3.895   2.510 -0.3185 -0.0128 -0.0642
 3242THY    CA281029   5.898   3.823   2.507  0.2995 -0.2487  0.1140
 3242THY    CP181030   5.769   3.890   2.458 -0.4868  0.1637 -0.1980
 3242THY    HP181031   5.758   3.999   2.457  1.6548  0.4247 -1.3462
 3242THY    CP281032   5.754   3.852   2.302 -0.1512 -0.1390 -0.2223
 3242THY    HP281033   5.751   3.745   2.280 -0.9284 -0.0199 -0.7799
 3242THY    HP381034   5.655   3.877   2.260  0.2902  0.5998 -0.8390
 3242THY    HP481035   5.832   3.899   2.241  0.2090  2.0448  1.7820
 3242THY    CP381036   5.656   3.837   2.539  0.3280  0.5848 -0.7465
 3242THY    HP581037   5.664   3.880   2.639 -0.5324 -0.6406 -0.1172
 3242THY    HP681038   5.555   3.858   2.500 -0.2305 -0.7328 -0.0993
 3242THY    HP781039   5.662   3.729   2.555  1.8384  0.6690 -0.6016
 3242THY    CA381040   5.900   3.688   2.552 -1.1601  0.2876 -0.5001
 3242THY    HA381041   5.820   3.615   2.549 -0.4920 -0.4302 -1.5710
 3242THY    CA481042   6.016   3.634   2.603 -1.4424  0.2880 -0.7573
 3242THY    HA481043   6.023   3.534   2.645  0.6067  1.2934  1.5387
 3242THY    CA581044   6.139   3.714   2.606 -0.6913  0.2901  0.3970
 3242THY    CM181045   6.270   3.673   2.670 -0.7899 -0.1870  0.0377
 3242THY    HM181046   6.325   3.756   2.715  0.7580 -0.1293 -1.7894
 3242THY    HM281047   6.245   3.596   2.744 -1.3772  0.1809  0.2256
 3242THY    HM381048   6.339   3.612   2.610  2.6144  1.3046  2.1496
 3242THY    CA681049   6.134   3.844   2.554 -0.3800 -0.5254 -0.8930
 3242THY    HA681050   6.221   3.909   2.561 -0.3247 -0.3732 -2.6463
 3243THY      O81051   7.190   0.573   7.921  0.1084  0.1060 -0.3587
 3243THY     HO81052   7.259   0.587   7.987 -0.4963 -2.0982  0.8236
 3243THY    CA181053   7.268   0.582   7.806  0.1089 -0.1706 -0.4782
 3243THY    CA281054   7.215   0.545   7.677 -0.6655  0.2671 -0.1702
 3243THY    CP181055   7.072   0.490   7.670 -0.2768 -0.5063 -0.1357
 3243THY    HP181056   7.007   0.530   7.748 -1.0994 -0.7278 -0.6900
 3243THY    CP281057   7.004   0.503   7.536 -0.0260  0.1509 -0.0938
 3243THY    HP281058   7.001   0.606   7.498 -1.4137 -0.5020 -1.9354
 3243THY    HP381059   7.056   0.438   7.465 -0.1180  1.8715 -1.8064
 3243THY    HP481060   6.906   0.454   7.542  0.3686 -0.7302 -0.6060
 3243THY    CP381061   7.089   0.346   7.720  1.0000  0.4803  0.3438
 3243THY    HP581062   6.990   0.302   7.702  1.5874 -0.8145  0.1228
 3243THY    HP681063   7.150   0.280   7.656 -1.3436 -1.8800  0.3675
 3243THY    HP781064   7.105   0.333   7.827  0.1410 -3.9828  0.1265
 3243THY    CA381065   7.300   0.567   7.568  0.0042  0.0886 -0.4316
 3243THY    HA381066   7.272   0.528   7.471  0.3142 -0.0969 -0.4493
 3243THY    CA481067   7.432   0.611   7.585 -0.0731 -0.6808 -0.0321
 3243THY    HA481068   7.497   0.625   7.499 -2.1795 -1.3569 -1.8307
 3243THY    CA581069   7.477   0.656   7.707  0.2730  0.1050  0.0294
 3243THY    CM181070   7.611   0.721   7.713 -0.4859 -0.3805 -0.6229
 3243THY    HM181071   7.683   0.673   7.646  1.7784  1.9200 -0.0108
 3243THY    HM281072   7.611   0.827   7.682  2.6608 -0.6250 -1.7988
 3243THY    HM381073   7.656   0.716   7.813 -0.0642 -0.1616 -0.7963
 3243THY    CA681074   7.390   0.646   7.816 -0.7883  0.3478  0.0609
 3243THY    HA681075   7.416   0.689   7.912  1.0105  1.0023 -0.6751
 3244THY      O81076   0.150   9.028   1.298 -0.0178  0.0515  0.6760
 3244THY     HO81077   0.135   8.932   1.284  3.4313 -0.3381 -1.5366
 3244THY    CA181078   0.112   9.059   1.427 -0.0588  0.4256  0.5028
 3244THY    CA281079   0.071   9.186   1.460  0.4741 -0.6617 -0.2211
 3244THY    CP181080   0.047   9.292   1.346  0.3234  0.0403  0.0610
 3244THY    HP181081   0.055   9.249   1.246  0.5039  1.6036 -0.6274
 3244THY    CP281082  -0.097   9.362   1.367 -0.6469 -0.1977  0.5205
 3244THY    HP281083  -0.119   9.421   1.277  1.7629 -1.0578 -0.7297
 3244THY    HP381084  -0.181   9.291   1.367 -0.9049  0.0914 -0.1953
 3244THY    HP481085  -0.099   9.423   1.457 -1.6065 -0.3286  0.6053
 3244THY    CP381086   0.160   9.396   1.343 -0.6013 -0.9109  0.3681
 3244THY    HP581087   0.178   9.448   1.248  3.3558  0.6950  1.7560
 3244THY    HP681088   0.132   9.461   1.428 -0.5108 -0.1582 -0.1688
 3244THY    HP781089   0.256   9.346   1.357 -1.1682 -1.5606  2.2045
 3244THY    CA381090   0.033   9.216   1.590 -0.6937  0.6571  0.1589
 3244THY    HA381091   0.007   9.318   1.614  1.9217  1.9351 -1.9593
 3244THY    CA481092   0.050   9.113   1.681 -0.3058 -0.6435 -0.4810
 3244THY    HA481093   0.026   9.133   1.785 -2.9147 -1.9725 -0.7570
 3244THY    CA581094   0.081   8.982   1.649 -0.8040 -0.2757  0.4858
 3244THY    CM181095   0.087   8.884   1.759  0.2534 -0.5765 -0.1440
 3244THY    HM181096  -0.016   8.885   1.797  0.3335 -0.4426  0.0711
 3244THY    HM281097   0.121   8.789   1.717 -0.4327  0.1050 -2.3931
 3244THY    HM381098   0.155   8.927   1.833  1.6149  1.7188 -2.5755
 3244THY    CA681099   0.112   8.952   1.514  0.0205 -0.5212 -0.6303
 3244THY    HA681100   0.140   8.850   1.487 -1.6537 -1.7515  1.8879
 3245THY      O81101   9.291   6.125   6.520  0.1242 -0.9167  0.0498
 3245THY     HO81102   9.344   6.157   6.595  2.6136 -0.4906 -1.7299
 3245THY    CA181103   9.317   6.195   6.408  0.7858  0.6100  0.6803
 3245THY    CA281104   9.213   6.240   6.318 -0.2830  0.8227 -0.1292
 3245THY    CP181105   9.072   6.214   6.346 -0.3333 -0.0821  0.2062
 3245THY    HP181106   9.067   6.128   6.414  0.9877 -0.3295  0.0141
 3245THY    CP281107   9.008   6.335   6.419 -0.3987  0.5120  0.8472
 3245THY    HP281108   9.013   6.317   6.527 -0.2411  1.4229  0.9951
 3245THY    HP381109   9.047   6.433   6.390  0.4533 -0.6511 -2.3958
 3245THY    HP481110   8.902   6.342   6.395  0.2969  4.4180 -1.9209
 3245THY    CP381111   9.004   6.174   6.218 -0.1744  0.0055 -0.6049
 3245THY    HP581112   8.911   6.130   6.254 -0.5376  0.0676 -1.4558
 3245THY    HP681113   8.987   6.255   6.146 -0.7083 -0.8330 -1.4482
 3245THY    HP781114   9.061   6.102   6.159  0.8149  0.8534 -0.7200
 3245THY    CA381115   9.250   6.320   6.207 -0.3123  0.0865 -0.8906
 3245THY    HA381116   9.176   6.364   6.141 -1.0720 -1.6878 -1.2684
 3245THY    CA481117   9.389   6.349   6.196 -0.3103  0.4032 -0.4477
 3245THY    HA481118   9.416   6.422   6.120 -1.2832  0.1803 -1.0210
 3245THY    CA581119   9.487   6.307   6.289 -0.2869  0.2096 -0.2537
 3245THY    CM181120   9.628   6.355   6.276  0.2115  0.4358  0.7615
 3245THY    HM181121   9.697   6.325   6.355  1.3144 -1.3348 -0.7982
 3245THY    HM281122   9.663   6.303   6.186  0.1562 -0.2214  1.1177
 3245THY    HM381123   9.624   6.461   6.249  2.9157  0.0847 -1.5479
 3245THY    CA681124   9.453   6.220   6.388 -0.3942  0.2620 -0.0761
 3245THY    HA681125   9.528   6.183   6.458  0.2709  0.8392 -0.4735
 3246THY      O81126   2.090   9.163   6.415 -0.0618 -0.4595  0.1907
 3246THY     HO81127   2.106   9.221   6.339 -2.9691 -0.0135 -0.2289
 3246THY    CA181128   2.200   9.122   6.483 -0.0766 -0.1381 -0.3756
 3246THY    CA281129   2.181   9.035   6.596  0.1037 -0.0126  0.1899
 3246THY    CP181130   2.043   8.977   6.634 -0.3322  0.6204  0.9136
 3246THY    HP181131   1.976   8.972   6.548 -0.3500  0.9968  0.9039
 3246THY    CP281132   2.055   8.830   6.667 -0.8519  0.9254  0.0811
 3246THY    HP281133   1.957   8.780   6.669 -1.6082  2.1234 -2.3315
 3246THY    HP381134   2.121   8.794   6.587  0.2085  3.4299 -0.2788
 3246THY    HP481135   2.099   8.798   6.762  1.3552  0.0308 -1.1624
 3246THY    CP381136   1.983   9.068   6.749 -0.0362 -0.2401 -0.5383
 3246THY    HP581137   1.948   9.163   6.706  1.6059  1.2165  1.1041
 3246THY    HP681138   1.908   9.017   6.810  0.6362 -0.0600  0.4756
 3246THY    HP781139   2.063   9.101   6.817 -1.7322  3.0771  0.0620
 3246THY    CA381140   2.300   9.000   6.667  0.2569  0.8378 -0.2902
 3246THY    HA381141   2.295   8.943   6.759 -0.1378  0.3236 -0.6283
 3246THY    CA481142   2.430   9.039   6.622  0.2589 -0.2427  0.6827
 3246THY    HA481143   2.514   8.996   6.676  0.0669 -0.6156  0.6843
 3246THY    CA581144   2.442   9.120   6.508 -1.0446 -0.1570 -0.2103
 3246THY    CM181145   2.580   9.163   6.470  0.3257 -0.3665  0.2678
 3246THY    HM181146   2.604   9.262   6.512 -2.0413 -0.7742  2.8997
 3246THY    HM281147   2.656   9.101   6.518  0.4916 -0.6069 -0.3026
 3246THY    HM381148   2.605   9.155   6.364 -0.0984 -2.9961  0.3060
 3246THY    CA681149   2.327   9.165   6.439  0.2006 -0.0136 -0.2700
 3246THY    HA681150   2.338   9.223   6.348 -2.1411  2.4622  0.9083
 3247THY      O81151   4.088   9.292   7.816  0.2763 -0.3166  0.3312
 3247THY     HO81152   4.049   9.222   7.871 -1.3144 -0.3873 -0.8143
 3247THY    CA181153   4.147   9.238   7.710 -0.2664  0.2540  0.2151
 3247THY    CA281154   4.279   9.256   7.669  0.7184 -0.3319 -0.5403
 3247THY    CP181155   4.355   9.354   7.755 -0.2056 -0.3767  0.6448
 3247THY    HP181156   4.293   9.430   7.804  2.3906  1.1612  1.8034
 3247THY    CP281157   4.445   9.287   7.863 -0.1969  0.1431  0.9309
 3247THY    HP281158   4.370   9.249   7.932 -1.2418  1.4733  0.5787
 3247THY    HP381159   4.504   9.210   7.812 -1.3687  0.3073 -0.7549
 3247THY    HP481160   4.521   9.358   7.897  0.3607 -0.8201  1.7188
 3247THY    CP381161   4.436   9.445   7.660  0.0536  1.1306 -0.4709
 3247THY    HP581162   4.516   9.387   7.613  0.2804 -0.3582  1.6276
 3247THY    HP681163   4.371   9.484   7.581 -1.0032  0.7366  0.1843
 3247THY    HP781164   4.482   9.531   7.711 -0.7401  0.9338  0.6278
 3247THY    CA381165   4.332   9.182   7.560  0.2514 -0.9191  0.6409
 3247THY    HA381166   4.428   9.208   7.518 -0.4280  2.4511  0.8891
 3247THY    CA481167   4.245   9.087   7.500 -0.7716  0.2588 -0.3658
 3247THY    HA481168   4.284   9.020   7.423 -3.4461 -0.8158 -0.9014
 3247THY    CA581169   4.109   9.075   7.535  0.0137 -0.8609 -0.7262
 3247THY    CM181170   4.032   8.978   7.457 -0.2709 -0.2521 -0.0301
 3247THY    HM181171   4.050   8.883   7.507  1.2592  0.7479  1.4076
 3247THY    HM281172   3.931   9.021   7.448  0.5758  1.5575 -1.7037
 3247THY    HM381173   4.070   8.973   7.354 -1.8909  2.4195 -0.8634
 3247THY    CA681174   4.065   9.146   7.649 -0.4392  0.3967  0.7068
 3247THY    HA681175   3.964   9.134   7.687 -0.1398  0.5795  1.5816
 3248THY      O81176   7.609   9.018   0.452 -0.1010 -0.7470  0.3682
 3248THY     HO81177   7.695   9.049   0.418 -0.8119  0.0707 -0.7305
 3248THY    CA181178   7.528   9.107   0.382 -0.4354  0.3948  0.8939
 3248THY    CA281179   7.396   9.111   0.411  1.2223 -1.5118 -0.2522
 3248THY    CP181180   7.329   9.002   0.490 -0.1156  0.3047  0.7765
 3248THY    HP181181   7.398   8.962   0.565  0.1445  1.6234  1.2687
 3248THY    CP281182   7.204   9.048   0.569 -0.4005 -0.5012 -0.3945
 3248THY    HP281183   7.158   8.961   0.617  1.4852 -1.2862  0.0812
 3248THY    HP381184   7.229   9.126   0.641 -1.7445 -0.2962 -0.1231
 3248THY    HP481185   7.120   9.075   0.504 -1.5242 -0.0411  1.1952
 3248THY    CP381186   7.283   8.904   0.393 -0.1981 -0.0653  0.0895
 3248THY    HP581187   7.362   8.874   0.324 -0.6863  0.4257 -0.7023
 3248THY    HP681188   7.243   8.816   0.446  0.3042 -0.7351 -0.6187
 3248THY    HP781189   7.204   8.946   0.329 -0.3678 -2.5394 -1.4738
 3248THY    CA381190   7.318   9.226   0.365  0.0772 -0.8999  0.2268
 3248THY    HA381191   7.213   9.237   0.392 -0.0789 -1.2441 -0.2268
 3248THY    CA481192   7.386   9.329   0.297  0.4847 -0.4845  0.2895
 3248THY    HA481193   7.327   9.419   0.280 -0.3140 -0.8515  1.0089
 3248THY    CA581194   7.512   9.309   0.257 -0.3060 -0.3319 -0.1039
 3248THY    CM181195   7.575   9.408   0.166  0.4313 -0.2007  0.1835
 3248THY    HM181196   7.652   9.475   0.204  0.7336 -0.0019 -0.7653
 3248THY    HM281197   7.617   9.360   0.078 -1.0491 -1.0757 -0.0885
 3248THY    HM381198   7.493   9.476   0.139  0.1989 -0.3423  0.5203
 3248THY    CA681199   7.586   9.200   0.306 -0.4171 -1.0585  0.0198
 3248THY    HA681200   7.690   9.198   0.272 -0.7885 -0.5453 -1.2364
 3249THY      O81201   2.990   9.811   1.063  0.0170 -0.2377  0.0310
 3249THY     HO81202   2.969   9.806   1.158 -0.6383  1.0189 -0.0273
 3249THY    CA181203   2.897   9.893   1.017 -0.3162 -0.2365 -0.3590
 3249THY    CA281204   2.933   9.995   0.917 -0.4143  0.0922 -0.2484
 3249THY    CP181205   3.077  10.016   0.872 -0.0724  0.1869 -0.4085
 3249THY    HP181206   3.140   9.958   0.940  1.7326  1.9759 -0.4379
 3249THY    CP281207   3.117   9.978   0.723 -0.3345 -0.6488 -0.4227
 3249THY    HP281208   3.077  10.057   0.659 -2.8340  0.1136  1.8676
 3249THY    HP381209   3.226   9.974   0.712 -0.5035 -0.2046 -2.6232
 3249THY    HP481210   3.078   9.879   0.697 -0.3105 -1.1340  1.2480
 3249THY    CP381211   3.121  10.166   0.896  0.1305  0.2560  0.4975
 3249THY    HP581212   3.052  10.238   0.850 -1.6089 -0.4044  1.9278
 3249THY    HP681213   3.129  10.185   1.004 -1.2133 -0.9851  0.8536
 3249THY    HP781214   3.224  10.192   0.869 -0.3093  0.9666 -0.5523
 3249THY    CA381215   2.828  10.077   0.874 -0.1748 -0.0623  0.0284
 3249THY    HA381216   2.833  10.138   0.785 -1.2935  0.6309  0.4199
 3249THY    CA481217   2.697  10.072   0.943 -0.8799 -0.0603 -0.3106
 3249THY    HA481218   2.616  10.137   0.912 -0.2215  1.5497  1.1910
 3249THY    CA581219   2.676   9.981   1.041 -0.1065 -0.0747  0.0545
 3249THY    CM181220   2.541   9.968   1.099  0.0163  0.0423  0.3809
 3249THY    HM181221   2.540   9.941   1.205 -2.5342  3.4635  1.4001
 3249THY    HM281222   2.496  10.068   1.098  1.7052  0.8344  0.2518
 3249THY    HM381223   2.473   9.908   1.038  2.3358 -0.6242 -1.7473
 3249THY    CA681224   2.773   9.881   1.073 -0.0998 -0.6356 -0.0738
 3249THY    HA681225   2.753   9.810   1.152  0.1936  0.4159  0.9684
 3250THY      O81226   3.528   8.853   4.959  0.0097  0.5584 -0.0014
 3250THY     HO81227   3.539   8.812   4.872  0.9915  0.1634  0.3032
 3250THY    CA181228   3.649   8.885   5.006 -0.2035 -0.2849 -0.0179
 3250THY    CA281229   3.670   8.940   5.132 -0.2695 -0.2828 -0.1283
 3250THY    CP181230   3.552   8.955   5.232 -0.2669 -0.6145 -0.0663
 3250THY    HP181231   3.464   8.903   5.193 -0.1901  0.1533 -1.3216
 3250THY    CP281232   3.576   8.904   5.374 -0.0781 -0.1984 -0.0765
 3250THY    HP281233   3.648   8.975   5.416 -1.3611  0.9060  0.3410
 3250THY    HP381234   3.487   8.896   5.436 -1.3263 -0.2017 -1.7833
 3250THY    HP481235   3.626   8.807   5.385  0.2009 -0.0641 -0.1436
 3250THY    CP381236   3.516   9.104   5.261  0.4262  0.3103 -0.1792
 3250THY    HP581237   3.464   9.145   5.174  1.3901 -0.0800 -0.9530
 3250THY    HP681238   3.453   9.122   5.349  2.3631  0.3153  1.2841
 3250THY    HP781239   3.600   9.166   5.294  0.8096  0.4418 -1.3540
 3250THY    CA381240   3.808   8.970   5.173  1.3770 -0.1523 -0.1847
 3250THY    HA381241   3.840   9.010   5.268  2.0998 -2.2697  0.5249
 3250THY    CA481242   3.913   8.923   5.084  0.2963  0.7781 -0.1726
 3250THY    HA481243   4.017   8.935   5.115 -0.6297  0.6908  3.3668
 3250THY    CA581244   3.882   8.876   4.961 -0.1217  0.4718 -0.3419
 3250THY    CM181245   3.995   8.841   4.868  0.3133 -0.3549 -0.3155
 3250THY    HM181246   4.095   8.845   4.912 -0.0723 -0.0647  0.5563
 3250THY    HM281247   3.987   8.737   4.834  0.6186 -0.1775 -0.9578
 3250THY    HM381248   3.983   8.897   4.775 -0.8809 -1.9915 -1.2031
 3250THY    CA681249   3.753   8.855   4.923 -0.6072 -0.2397 -0.2548
 3250THY    HA681250   3.740   8.809   4.826  1.9328 -1.0616 -0.2750
 3251THY      O81251   3.334   6.797   3.751  0.6291  0.1241 -0.0184
 3251THY     HO81252   3.410   6.843   3.711 -0.2812 -0.1841 -2.2140
 3251THY    CA181253   3.222   6.816   3.678 -0.4834  0.6070  0.5015
 3251THY    CA281254   3.126   6.713   3.661 -0.1356  0.1740 -0.1412
 3251THY    CP181255   3.145   6.574   3.735 -0.5556  0.0657  0.4999
 3251THY    HP181256   3.232   6.569   3.801  0.6651  1.5803 -0.8902
 3251THY    CP281257   3.014   6.548   3.814  0.3764  0.1538 -0.6034
 3251THY    HP281258   2.996   6.628   3.887 -0.8336  1.5911 -2.3874
 3251THY    HP381259   2.927   6.551   3.747  0.5087 -3.4281 -1.0963
 3251THY    HP481260   3.033   6.454   3.865  2.4973  0.7341 -0.2514
 3251THY    CP381261   3.163   6.458   3.638  0.7040  0.1566  0.9556
 3251THY    HP581262   3.243   6.473   3.566  0.7841  0.7587  1.1691
 3251THY    HP681263   3.202   6.369   3.689  1.1020 -0.6124 -0.6371
 3251THY    HP781264   3.074   6.428   3.581  1.8105 -0.3176 -0.5916
 3251THY    CA381265   3.019   6.729   3.567  0.3090 -0.7956  0.5761
 3251THY    HA381266   2.952   6.649   3.538 -0.0484  0.7266 -3.4604
 3251THY    CA481267   3.010   6.862   3.510  0.0470  0.3616  0.4129
 3251THY    HA481268   2.924   6.877   3.446  0.1420  0.4269  0.3005
 3251THY    CA581269   3.102   6.970   3.541  0.5414  0.5428  0.0675
 3251THY    CM181270   3.092   7.108   3.476 -0.0715 -0.8905  0.1098
 3251THY    HM181271   3.045   7.089   3.379 -0.4654 -1.9978  0.4983
 3251THY    HM281272   3.027   7.176   3.533  1.4676 -0.4847  1.4379
 3251THY    HM381273   3.190   7.151   3.456 -0.0597  0.3061  2.4278
 3251THY    CA681274   3.209   6.942   3.626  0.1066  0.4928  0.5431
 3251THY    HA681275   3.290   7.014   3.631  1.4754 -0.7130 -2.1735
 3252THY      O81276   0.140   9.069   2.818 -0.4938 -0.2034 -0.1285
 3252THY     HO81277   0.161   8.977   2.796  0.1803  0.1895 -1.2144
 3252THY    CA181278   0.067   9.060   2.940  0.1660 -0.5730  0.1733
 3252THY    CA281279  -0.016   9.162   2.993  0.1616  0.7893 -0.3343
 3252THY    CP181280  -0.009   9.299   2.928 -0.2973 -0.2137 -0.1363
 3252THY    HP181281   0.002   9.281   2.820  0.9089  1.2496 -0.2943
 3252THY    CP281282  -0.131   9.392   2.957 -0.2003  0.1681  0.0388
 3252THY    HP281283  -0.151   9.399   3.065  2.0127  3.2280  0.4002
 3252THY    HP381284  -0.111   9.497   2.931 -1.0122  0.2708 -0.2225
 3252THY    HP481285  -0.219   9.350   2.908  0.9077 -1.4756 -0.6094
 3252THY    CP381286   0.121   9.371   2.967  0.5005  0.3624  0.1237
 3252THY    HP581287   0.115   9.400   3.072  1.8269 -0.6566  0.5056
 3252THY    HP681288   0.205   9.301   2.960 -0.4101 -0.8928  1.1922
 3252THY    HP781289   0.139   9.454   2.897 -1.3109  0.5753 -0.1469
 3252THY    CA381290  -0.097   9.137   3.112 -0.1142  0.0855 -0.3350
 3252THY    HA381291  -0.140   9.223   3.162 -0.4300  0.8052 -1.7791
 3252THY    CA481292  -0.100   9.014   3.169 -1.0271 -0.1390 -0.6021
 3252THY    HA481293  -0.162   8.990   3.255 -0.6489  1.6244  0.1973
 3252THY    CA581294  -0.028   8.912   3.106 -0.6037 -0.3382 -0.4105
 3252THY    CM181295  -0.045   8.768   3.165 -0.0993 -0.9645  0.9308
 3252THY    HM181296   0.048   8.732   3.210  1.2957  1.2388 -0.0173
 3252THY    HM281297  -0.125   8.760   3.239  0.5986 -1.2989  1.6576
 3252THY    HM381298  -0.067   8.696   3.085  0.8786  0.6256 -0.8611
 3252THY    CA681299   0.059   8.934   2.997  0.0189  0.1279  0.0512
 3252THY    HA681300   0.118   8.850   2.961  1.6321  0.6794  1.2725
 3253THY      O81301   7.688   0.347   9.218 -0.3213  0.0485  0.3645
 3253THY     HO81302   7.655   0.260   9.191 -0.0655  0.0435  0.0695
 3253THY    CA181303   7.785   0.325   9.321 -0.4535 -0.5110 -0.4601
 3253THY    CA281304   7.804   0.415   9.431  0.0936 -0.6668  1.0643
 3253THY    CP181305   7.720   0.542   9.459 -0.5255 -0.1200 -0.1462
 3253THY    HP181306   7.628   0.529   9.401  0.3944 -1.0784 -1.4693
 3253THY    CP281307   7.683   0.564   9.614  0.1050 -0.1912  0.5889
 3253THY    HP281308   7.703   0.474   9.673  0.1753 -0.5243  0.0731
 3253THY    HP381309   7.728   0.648   9.667 -2.1893 -0.3925  3.0620
 3253THY    HP481310   7.576   0.590   9.617 -0.2127 -1.1016 -1.1495
 3253THY    CP381311   7.787   0.671   9.405  0.7227  0.2144 -0.0142
 3253THY    HP581312   7.830   0.641   9.308  0.6763  1.6660 -0.5086
 3253THY    HP681313   7.707   0.743   9.387 -0.1621 -0.9343 -0.8448
 3253THY    HP781314   7.864   0.702   9.476 -2.0781  1.3399  2.7911
 3253THY    CA381315   7.902   0.381   9.519 -0.5208  0.4947  0.0385
 3253THY    HA381316   7.934   0.439   9.605 -0.6879 -2.8238  2.5540
 3253THY    CA481317   7.971   0.264   9.514  0.5159 -0.8923 -0.6411
 3253THY    HA481318   8.042   0.237   9.591 -0.9325 -2.4480  0.2150
 3253THY    CA581319   7.938   0.170   9.409 -0.4009 -0.4060 -0.0885
 3253THY    CM181320   8.001   0.033   9.409 -0.8097 -0.3849 -0.5189
 3253THY    HM181321   8.001   0.008   9.516  0.6132 -1.2263 -0.6843
 3253THY    HM281322   7.942  -0.029   9.340 -2.5202 -0.9505  1.3777
 3253THY    HM381323   8.101   0.051   9.367 -1.2308  0.1722 -1.2892
 3253THY    CA681324   7.852   0.205   9.308 -0.3539  0.4979 -0.5893
 3253THY    HA681325   7.835   0.139   9.223  0.9923 -0.6196 -0.0394
 3254THY      O81326   7.356   0.590   8.162 -0.2398  0.1819 -0.0548
 3254THY     HO81327   7.298   0.651   8.211  1.4294  0.6032  1.4645
 3254THY    CA181328   7.409   0.539   8.271  0.2907  0.1637  0.2266
 3254THY    CA281329   7.519   0.457   8.267 -0.4091 -0.1101  0.3650
 3254THY    CP181330   7.583   0.429   8.133 -0.0520  0.0518 -0.5286
 3254THY    HP181331   7.529   0.458   8.042 -1.8214  0.7790  0.6911
 3254THY    CP281332   7.718   0.507   8.130  0.2097 -0.7167  0.2223
 3254THY    HP281333   7.696   0.614   8.120  0.1552 -0.8889 -2.3169
 3254THY    HP381334   7.778   0.492   8.221  2.6810  0.3937 -1.0923
 3254THY    HP481335   7.771   0.478   8.038 -1.1397  1.8587 -1.5087
 3254THY    CP381336   7.621   0.283   8.119 -0.7467  0.4559 -0.0622
 3254THY    HP581337   7.675   0.255   8.028 -2.5235 -0.2368 -0.9629
 3254THY    HP681338   7.685   0.250   8.202 -1.4487 -2.1427 -0.4555
 3254THY    HP781339   7.528   0.226   8.106 -0.9249  0.2717  1.7328
 3254THY    CA381340   7.577   0.422   8.391  0.2319  0.2198  0.7665
 3254THY    HA381341   7.657   0.348   8.397  0.5934  0.3436 -1.7983
 3254THY    CA481342   7.505   0.450   8.511 -0.2721 -0.6859 -0.6485
 3254THY    HA481343   7.550   0.434   8.608 -0.6563  1.0594 -0.1486
 3254THY    CA581344   7.386   0.519   8.510  0.2635  0.0159 -0.0772
 3254THY    CM181345   7.301   0.546   8.633  0.4946 -0.3229  0.0792
 3254THY    HM181346   7.268   0.651   8.636  0.2217 -0.4296  0.7585
 3254THY    HM281347   7.208   0.489   8.638 -0.4387  1.2395  3.0442
 3254THY    HM381348   7.365   0.523   8.719 -1.3178 -0.6190  1.3855
 3254THY    CA681349   7.334   0.567   8.391 -0.8016 -0.3704 -0.1328
 3254THY    HA681350   7.245   0.628   8.386 -0.8386 -0.4338 -0.2509
 3255THY      O81351   4.890   2.334   8.220 -0.1376 -0.0061 -0.4102
 3255THY     HO81352   4.815   2.319   8.280  0.2910 -3.5524 -0.5467
 3255THY    CA181353   5.007   2.321   8.290  0.0780  0.6495  0.0429
 3255THY    CA281354   5.118   2.404   8.263  0.4036 -0.9598 -0.2231
 3255THY    CP181355   5.122   2.493   8.142  0.0489  0.7233 -0.1724
 3255THY    HP181356   5.057   2.456   8.062 -0.3328 -0.7119  0.7612
 3255THY    CP281357   5.080   2.633   8.157  0.0160 -0.6145 -0.3920
 3255THY    HP281358   5.073   2.688   8.062 -2.5117 -0.4068 -0.1565
 3255THY    HP381359   4.987   2.646   8.214 -0.2730 -1.9368 -0.5488
 3255THY    HP481360   5.154   2.680   8.223 -0.8218  0.7191 -0.3605
 3255THY    CP381361   5.262   2.481   8.073  0.4981  1.0794 -0.9408
 3255THY    HP581362   5.297   2.378   8.083 -0.0046  0.7784 -2.1510
 3255THY    HP681363   5.253   2.510   7.968 -3.5325  0.9888 -0.7813
 3255THY    HP781364   5.342   2.518   8.137 -0.5564 -1.0333  1.8274
 3255THY    CA381365   5.228   2.396   8.350  0.2788  0.1404 -0.3748
 3255THY    HA381366   5.311   2.464   8.334  0.9403 -0.8766 -1.4637
 3255THY    CA481367   5.234   2.304   8.454  0.6143 -0.3619  0.1277
 3255THY    HA481368   5.317   2.298   8.524 -0.7524 -2.1723  1.6996
 3255THY    CA581369   5.120   2.221   8.483  0.0129 -0.7227 -1.1793
 3255THY    CM181370   5.128   2.134   8.608  0.1763 -0.2021  0.8364
 3255THY    HM181371   5.105   2.039   8.559 -1.0508  1.6196 -2.4652
 3255THY    HM281372   5.231   2.134   8.647  0.9963 -3.4114 -0.9696
 3255THY    HM381373   5.056   2.159   8.686 -1.2790 -2.3342  0.2473
 3255THY    CA681374   5.003   2.228   8.401  0.0133  0.5988  0.6908
 3255THY    HA681375   4.911   2.175   8.424  0.9437 -1.5504 -0.2828
 3256THY      O81376   8.897   7.908   8.990 -0.1527  1.0769  0.0185
 3256THY     HO81377   8.838   7.831   8.998  0.5676  0.5481  0.3955
 3256THY    CA181378   8.992   7.851   8.910 -0.1703 -0.4776 -0.4878
 3256THY    CA281379   9.113   7.914   8.879  0.0379  0.7405 -0.3840
 3256THY    CP181380   9.145   8.049   8.936  0.2755  0.0161 -0.0269
 3256THY    HP181381   9.050   8.094   8.969 -0.1080 -0.1534 -0.8726
 3256THY    CP281382   9.243   8.046   9.052 -0.1289  0.5270  0.0325
 3256THY    HP281383   9.216   7.987   9.141  2.4978  1.0332  1.2508
 3256THY    HP381384   9.342   8.018   9.015 -0.3772  0.4014 -0.5481
 3256THY    HP481385   9.260   8.150   9.081  1.6059  1.1294 -2.7841
 3256THY    CP381386   9.199   8.137   8.827 -0.7549 -0.2501 -0.2107
 3256THY    HP581387   9.297   8.109   8.786  0.9774 -0.0226  3.4250
 3256THY    HP681388   9.126   8.150   8.746 -1.7740  1.1840  0.8982
 3256THY    HP781389   9.204   8.240   8.864  1.5672 -0.9609  1.7149
 3256THY    CA381390   9.209   7.846   8.801 -0.0725  0.2063  0.0874
 3256THY    HA381391   9.311   7.880   8.789  0.4929 -1.7701 -1.1317
 3256THY    CA481392   9.168   7.715   8.757 -0.0619 -0.0470 -0.4113
 3256THY    HA481393   9.240   7.668   8.691  0.8616  0.6449  0.0795
 3256THY    CA581394   9.041   7.659   8.786 -0.4488 -1.1522  0.7082
 3256THY    CM181395   8.994   7.530   8.728  0.1416 -0.4003 -0.5527
 3256THY    HM181396   9.014   7.451   8.802  1.9455  1.0042  0.5315
 3256THY    HM281397   8.884   7.527   8.723  0.1642  0.7815 -3.6337
 3256THY    HM381398   9.026   7.502   8.627 -0.6031  2.7732 -1.7684
 3256THY    CA681399   8.956   7.729   8.861 -0.3435 -0.6046 -0.0139
 3256THY    HA681400   8.864   7.686   8.900 -0.0901  1.5049  3.2811
 3257THY      O81401   2.895   7.223   0.139 -0.2093 -0.0050  0.3494
 3257THY     HO81402   2.955   7.166   0.191  3.1303  1.0442 -1.9757
 3257THY    CA181403   2.771   7.182   0.179 -0.7117 -0.4036  0.1198
 3257THY    CA281404   2.660   7.202   0.099  0.0716  0.5718  0.5260
 3257THY    CP181405   2.668   7.252  -0.042  0.3487  0.1908 -0.9110
 3257THY    HP181406   2.772   7.266  -0.074  0.2991  2.9466 -0.0987
 3257THY    CP281407   2.608   7.140  -0.125  0.5397 -0.4002  0.4951
 3257THY    HP281408   2.498   7.137  -0.117  0.3000  2.8561 -0.3943
 3257THY    HP381409   2.611   7.160  -0.233  0.0058  0.6393  0.6594
 3257THY    HP481410   2.652   7.042  -0.105  0.3944 -0.6436 -0.3396
 3257THY    CP381411   2.596   7.383  -0.069  0.1647 -0.0370  0.5032
 3257THY    HP581412   2.593   7.419  -0.173  0.6366  2.3595  1.2588
 3257THY    HP681413   2.492   7.379  -0.034  0.1514  1.7261  0.7449
 3257THY    HP781414   2.640   7.462  -0.006 -2.4871  2.5333 -0.6155
 3257THY    CA381415   2.538   7.159   0.155  0.0890  0.0174  0.2999
 3257THY    HA381416   2.444   7.185   0.107  0.8785  0.8839 -0.8036
 3257THY    CA481417   2.525   7.119   0.287  0.2143 -0.2738 -0.0833
 3257THY    HA481418   2.429   7.081   0.321 -0.2943 -0.1281 -1.3145
 3257THY    CA581419   2.636   7.090   0.361  0.1334  0.2717 -0.2677
 3257THY    CM181420   2.639   7.021   0.495 -0.0565  0.1187 -0.0729
 3257THY    HM181421   2.581   7.070   0.574  1.1755  1.6143 -0.0416
 3257THY    HM281422   2.625   6.912   0.497 -4.1300  0.4325 -1.4226
 3257THY    HM381423   2.743   7.036   0.527 -0.2375 -2.4066  1.9336
 3257THY    CA681424   2.758   7.126   0.309 -0.3441  0.0358 -0.3408
 3257THY    HA681425   2.846   7.099   0.367 -2.3422  1.1295  3.5892
 3258THY      O81426   8.580   5.612   2.731  0.2307 -0.2848 -0.6364
 3258THY     HO81427   8.583   5.601   2.827 -2.4626  1.1722 -0.2700
 3258THY    CA181428   8.687   5.565   2.679  0.1057 -0.1873  0.8326
 3258THY    CA281429   8.698   5.511   2.548  0.3977  0.6139  0.8935
 3258THY    CP181430   8.578   5.505   2.452  0.2860 -0.0427  0.3167
 3258THY    HP181431   8.489   5.538   2.506 -0.5191 -0.0518 -0.9677
 3258THY    CP281432   8.593   5.602   2.337  0.1293  0.0536  1.2898
 3258THY    HP281433   8.584   5.702   2.381 -1.8646  0.8599 -0.7029
 3258THY    HP381434   8.687   5.594   2.280 -0.5829 -1.8450  0.2910
 3258THY    HP481435   8.510   5.593   2.266  0.6631 -1.1178  0.8014
 3258THY    CP381436   8.558   5.360   2.394 -0.0217  0.1323 -0.7008
 3258THY    HP581437   8.464   5.353   2.338 -0.7226 -0.8417  0.5374
 3258THY    HP681438   8.633   5.313   2.329  0.8440  0.6762 -0.1141
 3258THY    HP781439   8.545   5.293   2.480 -2.4020  0.4717 -0.7281
 3258THY    CA381440   8.821   5.458   2.502  0.7486  0.2857 -0.1829
 3258THY    HA381441   8.837   5.425   2.400  2.4534  0.4032  0.0138
 3258THY    CA481442   8.926   5.463   2.585  0.4782 -0.4788 -0.8911
 3258THY    HA481443   9.017   5.415   2.549  0.8468 -0.2820 -0.2426
 3258THY    CA581444   8.919   5.527   2.714 -0.3923  0.3064  0.2891
 3258THY    CM181445   9.040   5.538   2.796 -0.4483 -0.6941  0.5621
 3258THY    HM181446   9.126   5.558   2.731 -0.4070 -0.0401  0.8075
 3258THY    HM281447   9.028   5.621   2.867 -1.4053  0.5931 -1.0365
 3258THY    HM381448   9.065   5.448   2.853  2.6544 -1.0117 -1.1148
 3258THY    CA681449   8.804   5.577   2.757  0.3092  0.0550 -0.0728
 3258THY    HA681450   8.796   5.641   2.844  0.1513  1.3314 -1.0003
 3259THY      O81451   8.636   2.547   0.718  1.1378  0.6085 -0.4139
 3259THY     HO81452   8.641   2.555   0.815 -0.9483  0.6972 -0.2557
 3259THY    CA181453   8.755   2.599   0.666 -0.0322  0.0319  0.3172
 3259THY    CA281454   8.825   2.533   0.560  0.3307  0.0116 -0.5321
 3259THY    CP181455   8.771   2.402   0.500  0.4070 -0.8059  0.0046
 3259THY    HP181456   8.666   2.395   0.531  0.2605 -0.9773 -0.5222
 3259THY    CP281457   8.769   2.400   0.346 -0.3946 -0.1026  0.1614
 3259THY    HP281458   8.738   2.501   0.316 -0.2313  0.5887  2.1489
 3259THY    HP381459   8.870   2.380   0.309 -0.6898 -1.9455  0.2287
 3259THY    HP481460   8.701   2.324   0.305 -0.0562  0.1557 -0.9238
 3259THY    CP381461   8.847   2.280   0.546  0.0030  0.5162 -0.2301
 3259THY    HP581462   8.821   2.259   0.650  1.2578 -1.0162 -0.1849
 3259THY    HP681463   8.815   2.196   0.484 -0.5585  0.4232  0.1877
 3259THY    HP781464   8.954   2.295   0.527  0.1255 -0.7340 -0.5684
 3259THY    CA381465   8.946   2.583   0.514 -0.0896 -0.3157 -0.9048
 3259THY    HA381466   9.004   2.536   0.435  2.4536  1.0288  0.0292
 3259THY    CA481467   8.999   2.703   0.575 -0.0444 -0.5500 -0.3465
 3259THY    HA481468   9.086   2.755   0.536 -0.9941  0.4440 -1.2248
 3259THY    CA581469   8.925   2.763   0.675 -0.0108 -0.4342 -0.2932
 3259THY    CM181470   8.954   2.895   0.721 -1.0167  0.3370 -0.3008
 3259THY    HM181471   8.990   2.883   0.823  0.9129 -0.5360 -1.0394
 3259THY    HM281472   9.038   2.936   0.664 -0.7784  1.7025  0.9900
 3259THY    HM381473   8.867   2.961   0.724 -1.5458 -0.3953  1.7304
 3259THY    CA681474   8.809   2.710   0.725  0.4827  1.1976 -0.6002
 3259THY    HA681475   8.752   2.759   0.803  1.2294 -0.9839  1.4241
 3260THY      O81476   8.721   8.971   4.824 -0.4182 -0.3312 -0.2013
 3260THY     HO81477   8.741   9.009   4.911 -0.0106  0.5480 -0.6622
 3260THY    CA181478   8.790   8.854   4.830  0.5264  0.2738 -0.0253
 3260THY    CA281479   8.764   8.749   4.741 -0.4929 -0.1346 -0.2196
 3260THY    CP181480   8.648   8.763   4.634 -0.1478  0.0438  0.3322
 3260THY    HP181481   8.613   8.867   4.629  0.6224  0.3243  0.7070
 3260THY    CP281482   8.701   8.739   4.490  0.6239  1.3650  0.7641
 3260THY    HP281483   8.714   8.631   4.480 -2.4840  1.0025 -0.4263
 3260THY    HP381484   8.624   8.764   4.416  0.1326 -0.8147  0.4815
 3260THY    HP481485   8.784   8.810   4.473 -1.7818  3.9578 -1.1038
 3260THY    CP381486   8.524   8.681   4.662 -0.0197  0.4069 -0.2710
 3260THY    HP581487   8.555   8.576   4.669  0.6854  0.6979  1.4722
 3260THY    HP681488   8.482   8.707   4.759 -0.1729  0.6999 -0.4141
 3260THY    HP781489   8.444   8.689   4.587 -0.9473 -0.5643  0.5804
 3260THY    CA381490   8.849   8.631   4.751  0.2779 -0.3597  0.8366
 3260THY    HA381491   8.828   8.548   4.683 -0.4833 -0.4639  1.1911
 3260THY    CA481492   8.958   8.619   4.838  0.0505  0.3337 -0.2426
 3260THY    HA481493   9.019   8.529   4.839  0.0670  0.2884  2.3047
 3260THY    CA581494   8.979   8.729   4.922  0.2457 -0.5918 -0.0149
 3260THY    CM181495   9.084   8.728   5.023  0.1650  0.8162 -0.9135
 3260THY    HM181496   9.160   8.801   4.991  0.6211  1.5529  1.6069
 3260THY    HM281497   9.042   8.749   5.122  0.8904 -0.6205 -0.2768
 3260THY    HM381498   9.128   8.629   5.036  1.5549  1.5290  0.1443
 3260THY    CA681499   8.894   8.847   4.923 -0.1799  0.1327 -0.4563
 3260THY    HA681500   8.923   8.931   4.985 -0.9584  0.0369  0.0513
 3261THY      O81501   4.354   4.758   9.755  0.1412  0.3385  0.2738
 3261THY     HO81502   4.272   4.715   9.725 -0.4044  1.5369 -0.0194
 3261THY    CA181503   4.396   4.700   9.861 -0.1623 -0.0046  0.4215
 3261THY    CA281504   4.477   4.764   9.956 -1.0002 -0.4360  0.1787
 3261THY    CP181505   4.517   4.913   9.940 -0.3775 -0.1858 -0.5075
 3261THY    HP181506   4.507   4.938   9.834 -2.3334 -0.6082 -0.4635
 3261THY    CP281507   4.415   5.004  10.015  0.5897 -0.5941 -1.1221
 3261THY    HP281508   4.428   5.109   9.988 -1.1653  0.4561  1.6268
 3261THY    HP381509   4.314   4.986   9.975 -0.2801 -0.3868  0.8226
 3261THY    HP481510   4.415   4.984  10.123  0.8276  1.0106 -0.7976
 3261THY    CP381511   4.655   4.944   9.993 -0.7542  0.3276 -0.2174
 3261THY    HP581512   4.659   4.929  10.101  2.1015  0.0083 -0.2754
 3261THY    HP681513   4.732   4.875   9.956 -1.2519 -0.2103 -0.2562
 3261THY    HP781514   4.684   5.049   9.977  1.7804  0.0170  1.7050
 3261THY    CA381515   4.526   4.699  10.074  0.2038  0.0695 -0.2339
 3261THY    HA381516   4.585   4.745  10.153 -2.0912 -1.6918  2.6879
 3261THY    CA481517   4.486   4.569  10.093  0.4972  1.0484  0.5112
 3261THY    HA481518   4.535   4.517  10.175 -0.5372 -2.6066 -0.9897
 3261THY    CA581519   4.390   4.507  10.007  0.3160  1.2136  0.0863
 3261THY    CM181520   4.349   4.369  10.043 -0.5421 -0.3451  0.1521
 3261THY    HM181521   4.246   4.344  10.017  0.5064 -3.0792 -1.7812
 3261THY    HM281522   4.423   4.298  10.006  0.2633  0.2334  0.6055
 3261THY    HM381523   4.353   4.359  10.152  0.7791 -0.3408  0.1207
 3261THY    CA681524   4.347   4.570   9.889  0.8580  0.2434  0.2004
 3261THY    HA681525   4.293   4.511   9.816 -2.7363  1.4005  1.6744
 3262THY      O81526   6.666   5.287   4.976 -0.0124  0.5864  0.2474
 3262THY     HO81527   6.579   5.320   4.948 -1.4795 -1.2959  2.2284
 3262THY    CA181528   6.722   5.217   4.873  0.3552 -0.4638 -0.3074
 3262THY    CA281529   6.840   5.139   4.889  0.2771 -0.0207  0.0425
 3262THY    CP181530   6.901   5.118   5.028 -0.2676  0.0753 -0.0094
 3262THY    HP181531   6.872   5.196   5.099  0.8421 -0.3965  0.9818
 3262THY    CP281532   6.867   4.977   5.088  0.2668 -0.4472 -0.4693
 3262THY    HP281533   6.897   4.897   5.020 -0.6084 -1.4804  0.3118
 3262THY    HP381534   6.919   4.956   5.182 -1.6459 -1.0194  0.5283
 3262THY    HP481535   6.758   4.971   5.099  0.4107  0.5467  2.3252
 3262THY    CP381536   7.056   5.141   5.028 -0.2270 -0.3518 -0.4176
 3262THY    HP581537   7.090   5.143   5.133 -1.7662  1.1906  0.0922
 3262THY    HP681538   7.111   5.056   4.985 -0.6113 -0.7971 -0.0402
 3262THY    HP781539   7.088   5.229   4.971 -0.4564 -1.4156 -2.2578
 3262THY    CA381540   6.895   5.072   4.773  1.1945 -0.5312 -0.8769
 3262THY    HA381541   6.984   5.015   4.798  0.5771 -0.2105  2.5791
 3262THY    CA481542   6.830   5.081   4.651 -0.5632 -0.1530  0.6686
 3262THY    HA481543   6.868   5.026   4.565 -0.3030  1.1022 -0.0392
 3262THY    CA581544   6.708   5.152   4.643 -0.2831  0.2429  0.1688
 3262THY    CM181545   6.638   5.150   4.509 -0.3728  0.4529  0.3878
 3262THY    HM181546   6.641   5.049   4.468 -2.0826  0.2200  0.7555
 3262THY    HM281547   6.531   5.170   4.516 -0.3876  1.4591 -1.7539
 3262THY    HM381548   6.694   5.221   4.447  0.3111  0.8824  1.4520
 3262THY    CA681549   6.657   5.219   4.751 -0.1382 -0.1182  0.2393
 3262THY    HA681550   6.568   5.281   4.739  0.0437  0.5208  1.9546
 3263THY      O81551   4.395   5.002   9.601 -0.1781  0.2433 -0.6561
 3263THY     HO81552   4.409   4.923   9.655 -1.4735  0.2681 -0.2627
 3263THY    CA181553   4.507   5.037   9.533  0.5144  0.3193  0.0741
 3263THY    CA281554   4.520   5.167   9.477 -0.9788 -0.0918 -0.2610
 3263THY    CP181555   4.416   5.268   9.495  0.3691 -0.0698 -0.1461
 3263THY    HP181556   4.349   5.254   9.580  2.5602 -2.0003  1.3893
 3263THY    CP281557   4.467   5.411   9.528 -0.4583  0.3871 -0.4077
 3263THY    HP281558   4.537   5.457   9.457  1.5444  2.3586  2.5660
 3263THY    HP381559   4.378   5.475   9.528 -0.1615  0.8003 -0.6467
 3263THY    HP481560   4.515   5.415   9.627  0.1844  0.5669 -0.7209
 3263THY    CP381561   4.344   5.268   9.354  0.6767 -0.1319 -0.4930
 3263THY    HP581562   4.407   5.298   9.269  0.7863  1.3897  0.0852
 3263THY    HP681563   4.317   5.168   9.318 -0.7197  0.3830 -0.9267
 3263THY    HP781564   4.262   5.341   9.357  0.9297  0.1304  0.4334
 3263THY    CA381565   4.641   5.194   9.408 -0.0248  0.3410  0.5497
 3263THY    HA381566   4.663   5.295   9.374 -0.2790 -0.7701 -3.4985
 3263THY    CA481567   4.737   5.096   9.391  0.1034  0.5231  0.4711
 3263THY    HA481568   4.831   5.112   9.338  0.0990  1.3832  0.6988
 3263THY    CA581569   4.717   4.965   9.434 -0.3010  0.8403  0.4189
 3263THY    CM181570   4.825   4.860   9.420 -0.2193 -0.5775  0.7846
 3263THY    HM181571   4.906   4.887   9.488 -1.0634 -0.0893  1.6173
 3263THY    HM281572   4.791   4.757   9.432 -2.0899 -0.2574 -1.1746
 3263THY    HM381573   4.853   4.868   9.314 -0.4981  1.4240  0.8127
 3263THY    CA681574   4.607   4.940   9.520  0.0339  0.1476 -0.1395
 3263THY    HA681575   4.596   4.841   9.563 -0.6269  0.5793  0.7027
 3264THY      O81576   0.041   4.832   3.036  0.3610  0.9384  0.3905
 3264THY     HO81577   0.038   4.848   2.940  1.0533  0.5371  0.2965
 3264THY    CA181578  -0.061   4.742   3.058 -0.1457  0.2458  0.8898
 3264THY    CA281579  -0.101   4.694   3.183  0.3651  0.7691 -0.9301
 3264THY    CP181580  -0.053   4.757   3.311 -1.0119 -0.0207 -0.2405
 3264THY    HP181581  -0.004   4.854   3.296 -1.6084  0.0617 -1.9664
 3264THY    CP281582  -0.161   4.803   3.403  0.2338  0.1445  0.1901
 3264THY    HP281583  -0.129   4.878   3.476  0.6001 -0.5840  0.7936
 3264THY    HP381584  -0.250   4.841   3.353  0.6866  2.3007  0.8976
 3264THY    HP481585  -0.195   4.721   3.467  1.0499  1.3413  2.3013
 3264THY    CP381586   0.031   4.658   3.400 -0.1056 -0.7241  0.3321
 3264THY    HP581587   0.045   4.708   3.496 -0.4012 -0.6532  0.3406
 3264THY    HP681588  -0.026   4.565   3.412  0.3514 -0.8347  1.7521
 3264THY    HP781589   0.129   4.643   3.354 -0.2975  0.6898 -0.6216
 3264THY    CA381590  -0.196   4.583   3.184 -0.3995  0.4062  0.2888
 3264THY    HA381591  -0.228   4.525   3.271 -1.3543  1.0981  0.4182
 3264THY    CA481592  -0.233   4.527   3.063 -0.0606  0.1048 -0.0175
 3264THY    HA481593  -0.308   4.451   3.080 -0.5037  0.9488  2.1801
 3264THY    CA581594  -0.202   4.587   2.944 -0.5654 -0.3843  0.4591
 3264THY    CM181595  -0.261   4.523   2.818  0.8100  0.0070 -0.2175
 3264THY    HM181596  -0.254   4.414   2.815 -2.7267 -0.3260  0.1802
 3264THY    HM281597  -0.367   4.549   2.818  0.8259  0.1164 -1.2197
 3264THY    HM381598  -0.223   4.567   2.725 -0.4407  0.2131 -0.6510
 3264THY    CA681599  -0.107   4.680   2.940 -0.2689  0.1414  0.3736
 3264THY    HA681600  -0.063   4.692   2.841 -0.2780 -1.3178  0.1705
 3265THY      O81601   5.439   6.877   1.777 -0.7037  0.0743  0.1946
 3265THY     HO81602   5.522   6.835   1.805  1.2557  2.6650 -1.2471
 3265THY    CA181603   5.354   6.900   1.881  0.4726  0.3826  0.8516
 3265THY    CA281604   5.231   6.952   1.845  0.3543  0.4585  0.5239
 3265THY    CP181605   5.190   6.987   1.707 -0.3049 -0.1822 -0.2721
 3265THY    HP181606   5.269   6.966   1.633  0.3109 -0.1067  0.3451
 3265THY    CP281607   5.059   6.917   1.662 -0.0548  0.2017 -0.4024
 3265THY    HP281608   4.984   6.938   1.739 -0.2179 -1.2216 -0.1377
 3265THY    HP381609   5.026   6.958   1.566  0.6494 -2.8545 -2.1068
 3265THY    HP481610   5.073   6.808   1.660 -0.5373  0.0770  1.1570
 3265THY    CP381611   5.184   7.139   1.695  0.3157  0.3073  0.0985
 3265THY    HP581612   5.183   7.163   1.588 -3.8612 -0.9503 -0.3344
 3265THY    HP681613   5.088   7.168   1.740  0.0885  0.6005 -0.5684
 3265THY    HP781614   5.264   7.193   1.747 -0.7854  1.2577  0.8669
 3265THY    CA381615   5.145   6.974   1.959 -0.2183 -0.5409 -0.4345
 3265THY    HA381616   5.042   7.008   1.963  0.4920  1.6099  1.9396
 3265THY    CA481617   5.195   6.955   2.088  1.0500 -0.5617 -0.7531
 3265THY    HA481618   5.132   6.980   2.174  0.3877 -0.7648 -1.1702
 3265THY    CA581619   5.320   6.918   2.116 -0.2747  0.0692  0.7231
 3265THY    CM181620   5.370   6.907   2.256 -0.9928 -0.3785 -0.0535
 3265THY    HM181621   5.292   6.933   2.328  1.5076  1.4342  2.2308
 3265THY    HM281622   5.420   6.812   2.277 -0.9860  0.2585  3.2658
 3265THY    HM381623   5.445   6.984   2.281 -2.2964  1.4257 -1.4400
 3265THY    CA681624   5.399   6.885   2.010 -0.1877  0.0875  0.5900
 3265THY    HA681625   5.501   6.851   2.025  0.3669  1.3036 -0.2617
 3266THY      O81626   6.777   3.747   1.603  0.6284 -0.2808 -0.1695
 3266THY     HO81627   6.865   3.762   1.641  0.2903  0.3321  0.4019
 3266THY    CA181628   6.697   3.764   1.714  0.5504  0.7469  0.1069
 3266THY    CA281629   6.596   3.855   1.713 -0.0002  0.0673 -0.7273
 3266THY    CP181630   6.563   3.922   1.580  0.1137 -0.3747 -0.5484
 3266THY    HP181631   6.618   3.894   1.489  0.5630  2.3756 -1.2190
 3266THY    CP281632   6.408   3.906   1.547 -0.1150 -0.3858  0.0391
 3266THY    HP281633   6.348   3.905   1.638 -0.8838 -2.2320 -0.4400
 3266THY    HP381634   6.371   3.996   1.498 -0.9993 -0.0371  1.3157
 3266THY    HP481635   6.383   3.813   1.494 -2.1165  0.3401 -0.3776
 3266THY    CP381636   6.582   4.075   1.597 -0.1006  0.1135 -0.1633
 3266THY    HP581637   6.510   4.105   1.674 -1.2078  0.0299 -1.1351
 3266THY    HP681638   6.682   4.100   1.634 -0.5371 -0.2025  1.2738
 3266THY    HP781639   6.563   4.129   1.503  0.7560 -0.3494 -0.6094
 3266THY    CA381640   6.509   3.873   1.824  0.4635 -0.0786  0.0116
 3266THY    HA381641   6.433   3.951   1.825  1.6005  1.0579  1.3004
 3266THY    CA481642   6.542   3.807   1.940 -0.4464  0.2677  0.3278
 3266THY    HA481643   6.485   3.827   2.030  0.8056  0.7775  1.0375
 3266THY    CA581644   6.646   3.712   1.948  0.0232 -1.0381  0.4247
 3266THY    CM181645   6.684   3.646   2.081 -0.3369 -0.5662  0.1459
 3266THY    HM181646   6.758   3.707   2.134 -0.7647 -1.1021  1.3900
 3266THY    HM281647   6.601   3.627   2.149 -1.3667 -0.3644 -1.0154
 3266THY    HM381648   6.747   3.556   2.075 -0.2952 -0.6061  1.0644
 3266THY    CA681649   6.726   3.692   1.831 -0.3686 -0.2803 -0.3915
 3266THY    HA681650   6.802   3.614   1.837 -0.9137 -0.8401 -0.6323
 3267THY      O81651   0.944   2.871   7.750  0.5457 -0.2518 -0.4873
 3267THY     HO81652   0.930   2.847   7.657 -0.0796  1.3824 -0.8561
 3267THY    CA181653   1.077   2.883   7.760  0.2589  0.0748  0.4169
 3267THY    CA281654   1.140   2.871   7.883 -0.4342 -0.8828 -0.1315
 3267THY    CP181655   1.064   2.825   8.002  0.8395  0.8036 -0.4100
 3267THY    HP181656   0.960   2.798   7.977  0.6159  0.6505  0.6113
 3267THY    CP281657   1.138   2.692   8.054  0.0345 -0.2464  0.0356
 3267THY    HP281658   1.072   2.627   8.113  0.8140 -1.1893 -0.1020
 3267THY    HP381659   1.168   2.639   7.963  1.3014 -0.9686  0.8454
 3267THY    HP481660   1.227   2.717   8.112 -0.0442  0.9831 -0.3556
 3267THY    CP381661   1.044   2.929   8.110  0.0042 -0.2682  0.0791
 3267THY    HP581662   0.961   2.891   8.171  0.1326 -2.2010 -0.8748
 3267THY    HP681663   1.123   2.963   8.178  1.6146  0.0955 -1.8749
 3267THY    HP781664   0.999   3.015   8.060 -1.3787 -0.7921  0.3869
 3267THY    CA381665   1.276   2.902   7.885  0.4170 -0.0035  0.9838
 3267THY    HA381666   1.340   2.892   7.972  1.1701  1.5112  0.6344
 3267THY    CA481667   1.339   2.955   7.774 -0.2638  0.3481 -0.5740
 3267THY    HA481668   1.446   2.970   7.784 -0.1241 -0.9011  0.0791
 3267THY    CA581669   1.274   2.962   7.654 -0.0971 -0.4396 -0.4084
 3267THY    CM181670   1.340   3.019   7.535  0.5709 -0.1993 -0.8420
 3267THY    HM181671   1.352   2.936   7.464 -0.8859 -1.1761  0.0041
 3267THY    HM281672   1.269   3.077   7.476 -0.1100 -1.5249 -1.3777
 3267THY    HM381673   1.426   3.077   7.570 -0.6677 -0.6978  3.5597
 3267THY    CA681674   1.142   2.923   7.643 -0.1611  0.0341 -0.3273
 3267THY    HA681675   1.098   2.928   7.544 -0.0595 -2.2245 -0.5446
 3268THY      O81676   6.425   8.159   6.046 -0.2337 -0.0875  0.2707
 3268THY     HO81677   6.416   8.088   6.112 -0.9529 -0.4532 -0.2039
 3268THY    CA181678   6.520   8.242   6.097 -0.0766 -0.0293  0.0667
 3268THY    CA281679   6.556   8.366   6.028  0.2439 -1.0418 -0.4835
 3268THY    CP181680   6.498   8.404   5.887  0.9591 -0.0829 -0.5154
 3268THY    HP181681   6.436   8.321   5.853 -0.0836  0.0642  0.9762
 3268THY    CP281682   6.403   8.532   5.892  0.0995 -0.0211  0.1195
 3268THY    HP281683   6.453   8.619   5.935  1.1281 -0.7717  0.4659
 3268THY    HP381684   6.369   8.553   5.789  0.7054 -2.0274 -0.5358
 3268THY    HP481685   6.312   8.524   5.952 -0.6880 -2.3213 -1.2426
 3268THY    CP381686   6.614   8.408   5.786 -0.6299 -0.2932 -0.1163
 3268THY    HP581687   6.667   8.313   5.798  0.4529  0.3731  0.4807
 3268THY    HP681688   6.568   8.414   5.687 -0.2999  1.1697 -0.2043
 3268THY    HP781689   6.677   8.497   5.794 -1.5241  0.4135 -0.7278
 3268THY    CA381690   6.631   8.464   6.101  0.4449 -0.3470  0.5560
 3268THY    HA381691   6.656   8.562   6.061 -0.1326 -0.3246  0.2351
 3268THY    CA481692   6.672   8.427   6.228 -0.7998 -0.5321 -0.3740
 3268THY    HA481693   6.719   8.498   6.296  1.9562 -1.4646 -1.1694
 3268THY    CA581694   6.646   8.307   6.286  0.9963  0.2584 -0.6048
 3268THY    CM181695   6.684   8.280   6.427 -0.3663 -1.0164 -0.1578
 3268THY    HM181696   6.746   8.363   6.463  0.6298 -1.3853 -0.9696
 3268THY    HM281697   6.599   8.261   6.493  0.8572  0.1377  1.8851
 3268THY    HM381698   6.739   8.186   6.440 -1.6413 -1.7117  0.3867
 3268THY    CA681699   6.571   8.213   6.226  0.3477  0.1530  0.1660
 3268THY    HA681700   6.551   8.118   6.276 -0.9541 -0.5318 -1.5455
 3269THY      O81701   2.492   2.461   8.251 -0.5927 -0.4318 -0.4051
 3269THY     HO81702   2.446   2.547   8.255 -2.1634 -1.2530 -0.2142
 3269THY    CA181703   2.622   2.489   8.284  0.4152  0.3548  0.1684
 3269THY    CA281704   2.718   2.389   8.286  0.3170  0.1607 -0.1767
 3269THY    CP181705   2.683   2.248   8.244  0.0410 -0.3575  0.5785
 3269THY    HP181706   2.580   2.232   8.212  0.5151 -0.5986 -0.9046
 3269THY    CP281707   2.773   2.212   8.121 -0.5944  0.1740 -0.2402
 3269THY    HP281708   2.766   2.290   8.044 -0.7810 -0.8064 -1.2577
 3269THY    HP381709   2.878   2.213   8.152 -0.6316  0.0550 -0.1110
 3269THY    HP481710   2.747   2.117   8.072 -1.9350 -0.1673  1.0753
 3269THY    CP381711   2.716   2.169   8.367  0.3207 -0.0678 -0.4665
 3269THY    HP581712   2.704   2.063   8.340 -1.4509  0.2976 -1.2717
 3269THY    HP681713   2.816   2.189   8.407  0.2213 -1.4277  0.5651
 3269THY    HP781714   2.644   2.197   8.445 -3.1226 -0.0692 -3.3648
 3269THY    CA381715   2.850   2.426   8.329  0.4127  0.8929 -0.3688
 3269THY    HA381716   2.934   2.360   8.349  0.9891  1.4133 -1.0235
 3269THY    CA481717   2.873   2.554   8.385  0.2484 -0.4878  0.1879
 3269THY    HA481718   2.971   2.573   8.427 -0.1330 -2.6168  2.2710
 3269THY    CA581719   2.776   2.645   8.371 -0.3571 -0.7673  0.1355
 3269THY    CM181720   2.803   2.785   8.424  0.1811 -0.1165  0.1548
 3269THY    HM181721   2.764   2.812   8.523 -0.3692 -0.7680  0.1182
 3269THY    HM281722   2.909   2.812   8.435  0.5979 -0.3203 -2.6670
 3269THY    HM381723   2.752   2.849   8.352  0.0375 -0.9609 -0.5033
 3269THY    CA681724   2.655   2.616   8.319  0.6281 -0.4947 -0.5656
 3269THY    HA681725   2.580   2.694   8.309 -0.6116 -1.4948  0.4362
 3270THY      O81726   0.357   3.359   8.882 -0.5336 -0.1015 -0.3388
 3270THY     HO81727   0.434   3.361   8.942  1.3637 -0.4469 -2.5867
 3270THY    CA181728   0.267   3.442   8.944  0.3071  0.1917 -0.0352
 3270THY    CA281729   0.149   3.489   8.878 -0.0486 -0.7302  0.4351
 3270THY    CP181730   0.115   3.451   8.737 -0.5545  0.7115  0.4875
 3270THY    HP181731   0.186   3.375   8.701 -0.7673  0.8586 -0.2668
 3270THY    CP281732  -0.019   3.380   8.732 -0.3193  0.2283  0.9068
 3270THY    HP281733  -0.022   3.283   8.782 -0.6582 -0.0089  0.4291
 3270THY    HP381734  -0.096   3.448   8.772 -0.7927  0.7098 -0.7503
 3270THY    HP481735  -0.062   3.344   8.638  0.3609 -1.0844  1.0771
 3270THY    CP381736   0.115   3.564   8.635 -0.9920  0.3510  0.6677
 3270THY    HP581737   0.211   3.612   8.613  0.0094 -1.6612  0.3749
 3270THY    HP681738   0.088   3.527   8.535 -0.6085  4.0084 -0.9272
 3270THY    HP781739   0.033   3.635   8.650 -0.3804  1.0520  0.7764
 3270THY    CA381740   0.065   3.587   8.952 -0.7690  0.5535  0.1550
 3270THY    HA381741  -0.029   3.624   8.913 -0.8607 -0.8454 -1.0006
 3270THY    CA481742   0.110   3.625   9.082  0.3338 -0.3513  0.0706
 3270THY    HA481743   0.058   3.704   9.137  1.0818  0.0261  0.2546
 3270THY    CA581744   0.216   3.568   9.150 -0.3391 -0.5439 -0.2303
 3270THY    CM181745   0.269   3.629   9.279  0.2023 -0.0296 -0.1313
 3270THY    HM181746   0.315   3.728   9.270 -0.6590  0.5132  1.1675
 3270THY    HM281747   0.181   3.649   9.340 -0.2249  0.2546 -0.8253
 3270THY    HM381748   0.330   3.565   9.344 -3.4537 -2.2634  1.4471
 3270THY    CA681749   0.290   3.474   9.081 -0.6407  0.0636 -0.4141
 3270THY    HA681750   0.379   3.430   9.125 -1.4702 -3.2913 -1.8033
 3271THY      O81751   5.444   6.277   9.542  0.1449  0.2725  0.2713
 3271THY     HO81752   5.389   6.335   9.598  0.4305 -2.0426  3.2576
 3271THY    CA181753   5.381   6.158   9.546  0.6171  1.0069  0.5036
 3271THY    CA281754   5.439   6.047   9.477  0.0290 -0.1583 -0.1584
 3271THY    CP181755   5.561   6.071   9.387  0.0414 -0.4320  0.4986
 3271THY    HP181756   5.595   6.174   9.403 -0.8511  0.0014 -0.2942
 3271THY    CP281757   5.687   6.000   9.419 -0.2939 -0.3712 -0.1090
 3271THY    HP281758   5.750   5.984   9.330 -0.3143 -1.0840 -0.0024
 3271THY    HP381759   5.739   6.054   9.499 -1.1059  0.5383 -0.1776
 3271THY    HP481760   5.673   5.899   9.458  0.7234 -0.8726 -0.9845
 3271THY    CP381761   5.524   6.067   9.236 -0.8951 -0.5325 -0.5409
 3271THY    HP581762   5.608   6.098   9.172 -2.0010  0.3910 -1.6131
 3271THY    HP681763   5.478   5.971   9.211 -1.5028  0.3410 -3.1320
 3271THY    HP781764   5.447   6.143   9.216  0.3164  1.1215  0.7972
 3271THY    CA381765   5.385   5.919   9.500  0.0337  0.2127  0.4976
 3271THY    HA381766   5.432   5.834   9.453  0.0736  0.0023  0.9109
 3271THY    CA481767   5.276   5.899   9.584 -0.0648 -0.3408 -0.0007
 3271THY    HA481768   5.245   5.799   9.612 -1.0396 -0.0494  0.0034
 3271THY    CA581769   5.214   6.013   9.643 -0.1463  0.0301  0.6143
 3271THY    CM181770   5.097   6.005   9.743  0.5918 -0.0007 -0.0225
 3271THY    HM181771   5.126   6.036   9.844  1.5489  2.1053 -0.8952
 3271THY    HM281772   5.019   6.079   9.722  1.4183  0.8601 -0.0775
 3271THY    HM381773   5.042   5.910   9.742 -0.3322  0.5226 -1.2269
 3271THY    CA681774   5.258   6.139   9.617 -0.0752 -0.2794  0.5597
 3271THY    HA681775   5.203   6.225   9.655 -0.5304 -0.0721 -0.5477
 3272THY      O81776   5.922   3.371   5.074 -0.5224  0.4022 -0.1027
 3272THY     HO81777   5.859   3.322   5.130  1.0201 -1.5407  0.0442
 3272THY    CA181778   5.872   3.489   5.055 -0.3301 -0.4760  0.8271
 3272THY    CA281779   5.946   3.591   4.998 -0.3764  1.1204 -0.0775
 3272THY    CP181780   6.090   3.573   4.949  0.4166 -0.2803  0.2225
 3272THY    HP181781   6.122   3.472   4.976  1.3257 -0.5757 -1.7651
 3272THY    CP281782   6.105   3.571   4.797  0.0681  0.6776  0.5577
 3272THY    HP281783   6.042   3.495   4.749 -2.6838  1.1097  3.1868
 3272THY    HP381784   6.069   3.665   4.753 -2.0104  0.3397  1.4317
 3272THY    HP481785   6.211   3.556   4.772 -0.0421  1.3071 -0.3363
 3272THY    CP381786   6.181   3.683   5.008  0.8657  0.3582 -0.2233
 3272THY    HP581787   6.282   3.654   5.039 -0.5190 -1.3360  3.1723
 3272THY    HP681788   6.191   3.769   4.940 -1.1924 -0.5738 -1.7939
 3272THY    HP781789   6.135   3.708   5.104  0.3308 -0.8362 -0.1610
 3272THY    CA381790   5.893   3.718   4.988  1.3950 -0.4290  0.2760
 3272THY    HA381791   5.952   3.800   4.947 -2.4305  1.8325 -1.1980
 3272THY    CA481792   5.760   3.736   5.037  0.9873 -0.4644  0.4797
 3272THY    HA481793   5.714   3.834   5.038 -0.7386 -1.2075 -0.4703
 3272THY    CA581794   5.688   3.630   5.089  0.2328  0.5463  0.6931
 3272THY    CM181795   5.553   3.652   5.155  0.4109  0.7481 -0.4380
 3272THY    HM181796   5.535   3.564   5.217 -2.6325  0.9829 -0.8152
 3272THY    HM281797   5.554   3.745   5.213 -0.5330  0.0515  0.7353
 3272THY    HM381798   5.476   3.662   5.077 -1.7754  0.3599  1.5603
 3272THY    CA681799   5.748   3.504   5.102  0.0079  0.0860 -0.1648
 3272THY    HA681800   5.694   3.420   5.146 -0.6742 -0.0397 -1.2196
 3273THY      O81801   0.124   8.361   3.239 -0.1986 -0.4051  0.7252
 3273THY     HO81802   0.199   8.377   3.299 -0.1764 -0.9063  0.8367
 3273THY    CA181803   0.023   8.436   3.287  0.2992 -0.4984  0.3499
 3273THY    CA281804  -0.107   8.434   3.245 -0.7574  0.5240  0.9447
 3273THY    CP181805  -0.133   8.365   3.116  0.5219 -0.0747 -0.7147
 3273THY    HP181806  -0.040   8.369   3.057  1.4774  1.6620  0.7797
 3273THY    CP281807  -0.148   8.210   3.146 -0.9569 -0.2922 -0.3341
 3273THY    HP281808  -0.058   8.166   3.102 -0.0019  0.6232  0.6470
 3273THY    HP381809  -0.146   8.194   3.254 -1.0148  1.6130 -0.0092
 3273THY    HP481810  -0.245   8.183   3.101 -1.1177  1.4358 -1.1315
 3273THY    CP381811  -0.247   8.425   3.031  0.4376 -0.2457  0.1760
 3273THY    HP581812  -0.341   8.414   3.085 -0.3206  0.4737 -0.9707
 3273THY    HP681813  -0.219   8.530   3.020 -1.1837  0.2506  0.6630
 3273THY    HP781814  -0.257   8.383   2.931  0.5253  0.3393 -0.0829
 3273THY    CA381815  -0.205   8.499   3.322 -0.1111 -0.2026 -0.3445
 3273THY    HA381816  -0.304   8.482   3.280  0.1346 -2.6869 -0.0598
 3273THY    CA481817  -0.174   8.580   3.436  0.4389  0.7549  0.1694
 3273THY    HA481818  -0.261   8.627   3.479 -0.4012  0.9677 -1.6853
 3273THY    CA581819  -0.034   8.597   3.466  0.6335  0.3186  0.3535
 3273THY    CM181820   0.019   8.688   3.577  0.7172  0.1855  0.5150
 3273THY    HM181821   0.126   8.671   3.592  0.7697 -2.1475 -1.8090
 3273THY    HM281822   0.002   8.793   3.553 -0.0399 -0.3595 -1.5242
 3273THY    HM381823  -0.032   8.656   3.669 -0.1825 -3.7833 -1.1490
 3273THY    CA681824   0.056   8.518   3.396 -0.8668  0.6082 -0.1419
 3273THY    HA681825   0.158   8.511   3.432 -0.1725  1.8219 -1.7265
 3274THY      O81826   1.464   7.883   3.752  0.7591  0.5196  0.1397
 3274THY     HO81827   1.395   7.950   3.743 -1.0860 -1.3914 -0.9019
 3274THY    CA181828   1.577   7.924   3.687  0.2405 -0.2988  0.5111
 3274THY    CA281829   1.698   7.859   3.697  0.7677  0.0916  0.6121
 3274THY    CP181830   1.722   7.747   3.801  0.1678  0.2419  0.2398
 3274THY    HP181831   1.640   7.748   3.873  0.8142  0.9892  0.9782
 3274THY    CP281832   1.741   7.614   3.733 -0.2814  0.1678  0.0875
 3274THY    HP281833   1.821   7.561   3.785  1.5145  2.0857 -0.5837
 3274THY    HP381834   1.648   7.559   3.752  0.2703 -0.2041  1.9534
 3274THY    HP481835   1.763   7.624   3.626  0.7218 -1.0714  0.1591
 3274THY    CP381836   1.850   7.781   3.891  0.4205  0.6637 -0.4266
 3274THY    HP581837   1.821   7.872   3.945 -1.1657 -1.1223  1.9721
 3274THY    HP681838   1.863   7.699   3.963 -0.0969 -0.5683 -1.6922
 3274THY    HP781839   1.944   7.796   3.836  1.2319 -3.2990 -0.4665
 3274THY    CA381840   1.806   7.906   3.622 -0.2369 -0.0091  0.2413
 3274THY    HA381841   1.897   7.847   3.626  1.2061  2.0388 -0.9943
 3274THY    CA481842   1.793   8.015   3.540 -0.1746 -0.4110 -0.6432
 3274THY    HA481843   1.882   8.044   3.484 -0.1688  0.6940 -0.0851
 3274THY    CA581844   1.667   8.070   3.524 -0.0741 -0.6403 -0.5533
 3274THY    CM181845   1.637   8.176   3.427 -0.2292  0.1014 -0.2189
 3274THY    HM181846   1.727   8.238   3.422 -0.2407  0.3196  1.6973
 3274THY    HM281847   1.626   8.123   3.332 -2.4966  0.8753 -0.4326
 3274THY    HM381848   1.551   8.236   3.456  0.2227  0.7713 -0.2568
 3274THY    CA681849   1.555   8.025   3.598 -0.1248 -0.9752  0.8145
 3274THY    HA681850   1.457   8.064   3.574  1.1019  0.9974 -1.3412
 3275THY      O81851   8.319   7.869   8.726  0.4888 -0.1473  0.0820
 3275THY     HO81852   8.413   7.846   8.718  0.8448  0.7853  1.2426
 3275THY    CA181853   8.261   7.867   8.604  0.0657 -0.1930  0.2108
 3275THY    CA281854   8.127   7.835   8.577  0.5544 -0.1871 -0.1486
 3275THY    CP181855   8.032   7.776   8.690 -0.4177  0.6735  0.7190
 3275THY    HP181856   8.087   7.796   8.782  1.1065 -4.7500  1.3254
 3275THY    CP281857   7.894   7.835   8.688  0.1515 -0.1700 -0.2591
 3275THY    HP281858   7.840   7.798   8.776  0.6021 -1.2094 -0.4007
 3275THY    HP381859   7.906   7.943   8.695  0.4002 -0.2867  1.7581
 3275THY    HP481860   7.833   7.807   8.601  0.2033 -0.1979 -0.2873
 3275THY    CP381861   8.029   7.618   8.687  0.6588  0.0065 -0.2161
 3275THY    HP581862   8.008   7.581   8.788  2.3352 -0.9015 -0.1657
 3275THY    HP681863   7.948   7.581   8.622  0.2088  0.5435  0.0273
 3275THY    HP781864   8.122   7.574   8.651 -0.0844 -0.5574 -1.5290
 3275THY    CA381865   8.071   7.841   8.452  0.0876  0.3726  0.2833
 3275THY    HA381866   7.971   7.806   8.427 -0.4836  1.5028  0.9287
 3275THY    CA481867   8.155   7.885   8.342 -0.0220 -0.6162  0.6779
 3275THY    HA481868   8.121   7.896   8.240 -0.0961  0.5089  0.8142
 3275THY    CA581869   8.290   7.904   8.367 -0.4283 -0.1873  0.5713
 3275THY    CM181870   8.379   7.944   8.252 -0.5721  0.4239 -0.1260
 3275THY    HM181871   8.436   7.855   8.221 -3.2980 -1.5093  0.0771
 3275THY    HM281872   8.314   7.971   8.168  1.6298  2.8231 -1.2116
 3275THY    HM381873   8.448   8.027   8.271  2.1344 -1.4768 -1.0068
 3275THY    CA681874   8.339   7.899   8.493 -0.4557  0.5241 -0.1653
 3275THY    HA681875   8.442   7.928   8.513 -0.1149 -0.4943 -0.3550
 3276THY      O81876   5.075   4.240   8.492  0.4240 -0.0568 -0.5614
 3276THY     HO81877   5.165   4.276   8.499  0.2323  0.3676 -0.2223
 3276THY    CA181878   4.998   4.269   8.601 -0.1262  0.6503 -0.5005
 3276THY    CA281879   4.865   4.239   8.602 -0.7417 -0.7113  0.9929
 3276THY    CP181880   4.797   4.169   8.485 -0.5174 -0.2065 -0.2747
 3276THY    HP181881   4.866   4.174   8.400  0.7077 -2.1604  0.5412
 3276THY    CP281882   4.794   4.018   8.509  0.0665 -0.1723 -0.9752
 3276THY    HP281883   4.727   4.003   8.594 -1.0807 -0.0704 -1.8371
 3276THY    HP381884   4.750   3.973   8.419 -1.2121  1.7128 -1.3652
 3276THY    HP481885   4.894   3.979   8.530 -0.1025 -0.1122 -0.0091
 3276THY    CP381886   4.659   4.227   8.446 -0.5123 -0.2893  0.0812
 3276THY    HP581887   4.598   4.242   8.536  1.0091 -1.4448  1.3731
 3276THY    HP681888   4.680   4.319   8.391  0.0336 -1.5319 -1.8703
 3276THY    HP781889   4.612   4.162   8.372  0.6858  0.3661 -1.3018
 3276THY    CA381890   4.796   4.255   8.724  0.1858  0.4273 -0.0153
 3276THY    HA381891   4.695   4.216   8.731  0.6090 -0.4271  1.8620
 3276THY    CA481892   4.853   4.329   8.834 -0.0525  0.0612 -0.2507
 3276THY    HA481893   4.796   4.351   8.923  1.2766 -2.2030  1.2754
 3276THY    CA581894   4.989   4.350   8.829 -0.0245 -0.7265  0.0772
 3276THY    CM181895   5.060   4.408   8.946 -0.5484 -0.3105 -0.0542
 3276THY    HM181896   5.067   4.332   9.025  0.4318 -0.7082 -0.4988
 3276THY    HM281897   5.158   4.436   8.906 -0.1848 -2.9448 -1.2622
 3276THY    HM381898   5.027   4.501   8.993  2.9269 -0.3468  2.8973
 3276THY    CA681899   5.061   4.323   8.709  0.0288 -0.5038 -0.1349
 3276THY    HA681900   5.166   4.350   8.705 -0.0775  0.5600  2.6835
 3277THY      O81901   3.904   1.236   6.635  0.1976  0.3696 -0.6175
 3277THY     HO81902   3.882   1.328   6.616 -0.3933  0.5603  0.8546
 3277THY    CA181903   3.991   1.215   6.535 -0.3381  0.2405  0.3955
 3277THY    CA281904   4.002   1.093   6.462  0.2632 -0.1689  0.2941
 3277THY    CP181905   3.918   0.961   6.489  0.5116 -0.6451 -0.3927
 3277THY    HP181906   3.837   0.985   6.558  1.0481 -0.8064  0.3046
 3277THY    CP281907   3.838   0.923   6.364 -0.3666 -0.2796 -0.2081
 3277THY    HP281908   3.894   0.934   6.270  0.0897  2.0721  0.2683
 3277THY    HP381909   3.799   0.821   6.368  2.3228 -1.3571  2.9894
 3277THY    HP481910   3.746   0.983   6.364  0.8120  1.6667 -1.9931
 3277THY    CP381911   4.003   0.850   6.547  0.3085 -0.5392 -0.4453
 3277THY    HP581912   4.072   0.892   6.622 -1.9291  1.2061  0.7763
 3277THY    HP681913   3.943   0.782   6.608 -1.4181 -0.7969 -2.3275
 3277THY    HP781914   4.062   0.791   6.476  0.4282 -0.7740 -0.1520
 3277THY    CA381915   4.088   1.090   6.346  0.0969  0.0930 -0.4295
 3277THY    HA381916   4.115   1.001   6.290  0.3530  0.0110 -0.1800
 3277THY    CA481917   4.159   1.204   6.308  0.1911 -0.4607  0.2189
 3277THY    HA481918   4.217   1.207   6.216  0.8441  1.3200  0.6714
 3277THY    CA581919   4.141   1.323   6.379  0.4590 -0.3670  0.0544
 3277THY    CM181920   4.206   1.451   6.328 -0.0484  0.0189  0.4379
 3277THY    HM181921   4.312   1.441   6.305 -0.8095 -1.2713 -3.2153
 3277THY    HM281922   4.169   1.473   6.227  0.5478  1.0522  0.4407
 3277THY    HM381923   4.200   1.540   6.391  1.1109  1.2858 -1.1685
 3277THY    CA681924   4.056   1.332   6.496 -0.9874 -0.0918 -0.2893
 3277THY    HA681925   4.045   1.425   6.552  2.9825  0.2757  0.1388
 3278THY      O81926   7.692   7.853   2.249  0.6802 -0.1825 -0.1085
 3278THY     HO81927   7.771   7.909   2.246  0.0633  0.7002 -0.4207
 3278THY    CA181928   7.681   7.818   2.128  0.8130  0.6455  0.0708
 3278THY    CA281929   7.582   7.727   2.091  0.6640 -0.1959  0.7516
 3278THY    CP181930   7.479   7.682   2.197  0.6275  0.8152  0.1639
 3278THY    HP181931   7.497   7.712   2.301  1.8592 -2.8058  1.1594
 3278THY    CP281932   7.337   7.722   2.146 -0.0027  0.1161  0.1878
 3278THY    HP281933   7.255   7.656   2.174  0.7998 -1.4628 -1.0291
 3278THY    HP381934   7.311   7.809   2.207  0.5056 -0.6801  1.5713
 3278THY    HP481935   7.323   7.753   2.041 -1.5589  0.2751  0.4290
 3278THY    CP381936   7.483   7.529   2.209  0.1066  0.7117 -0.3037
 3278THY    HP581937   7.444   7.485   2.301  0.0646 -3.1388 -1.9526
 3278THY    HP681938   7.452   7.473   2.120  1.0191 -0.6819  0.2102
 3278THY    HP781939   7.587   7.497   2.222 -0.2943 -0.2495  0.6957
 3278THY    CA381940   7.574   7.693   1.954  0.3990  0.5858 -0.5988
 3278THY    HA381941   7.514   7.611   1.915  1.2171  0.6872 -2.1471
 3278THY    CA481942   7.665   7.745   1.862 -0.0105  0.1304 -0.2088
 3278THY    HA481943   7.653   7.713   1.758 -1.4760 -0.3379  0.0740
 3278THY    CA581944   7.756   7.843   1.902 -0.4200  0.1027  0.5153
 3278THY    CM181945   7.866   7.891   1.812  0.0455  0.0822  0.0989
 3278THY    HM181946   7.873   8.001   1.810  0.8941  0.0581 -3.2223
 3278THY    HM281947   7.965   7.847   1.833 -0.5507 -0.6982  1.4391
 3278THY    HM381948   7.836   7.858   1.713 -0.4744  1.7073 -0.3144
 3278THY    CA681949   7.772   7.872   2.037  0.1052 -0.4910 -0.3552
 3278THY    HA681950   7.849   7.937   2.078 -0.3770  0.1455 -0.4459
 3279THY      O81951   3.264   3.457   3.163 -0.0818 -0.6073 -0.3119
 3279THY     HO81952   3.239   3.545   3.197  2.4496  0.8275 -1.7467
 3279THY    CA181953   3.213   3.455   3.033 -0.5092 -0.5302 -0.0004
 3279THY    CA281954   3.097   3.380   2.999 -0.2617  0.2626  0.4463
 3279THY    CP181955   3.015   3.314   3.113  0.5034 -0.2514 -0.9328
 3279THY    HP181956   3.071   3.323   3.207  1.1291 -2.1335 -1.0895
 3279THY    CP281957   2.889   3.384   3.137 -0.2827 -0.5038 -0.0006
 3279THY    HP281958   2.842   3.343   3.228  0.3626 -0.2911  0.4370
 3279THY    HP381959   2.920   3.485   3.163  1.0582 -0.7779 -0.4768
 3279THY    HP481960   2.827   3.376   3.048 -1.3740  0.6491  0.6251
 3279THY    CP381961   2.993   3.170   3.086 -0.2990  1.0202  0.1098
 3279THY    HP581962   3.090   3.121   3.075  0.1998  1.8363  0.7932
 3279THY    HP681963   2.952   3.111   3.169  0.5462  0.1744 -0.0557
 3279THY    HP781964   2.926   3.167   2.999 -0.7558  0.0097  0.4775
 3279THY    CA381965   3.057   3.365   2.864  0.3426  0.0418 -0.0070
 3279THY    HA381966   2.973   3.303   2.833  0.5353 -0.2511  0.0548
 3279THY    CA481967   3.130   3.429   2.762  0.1213 -0.2700 -0.0650
 3279THY    HA481968   3.102   3.417   2.658 -1.7411  1.0881  0.2270
 3279THY    CA581969   3.249   3.501   2.794  0.5688  0.0513  0.1867
 3279THY    CM181970   3.339   3.546   2.689  0.8361  0.4638  0.5519
 3279THY    HM181971   3.279   3.565   2.599 -1.5390  2.0177  2.3256
 3279THY    HM281972   3.374   3.645   2.722 -0.7089  1.4441 -0.5734
 3279THY    HM381973   3.425   3.481   2.672  1.3057  0.4659  2.7163
 3279THY    CA681974   3.289   3.507   2.932  0.1280 -0.4216  0.8103
 3279THY    HA681975   3.383   3.558   2.954  1.1739 -1.4517 -0.9620
 3280THY      O81976   8.620   9.434   9.185  0.7417 -0.4459 -0.1864
 3280THY     HO81977   8.537   9.483   9.201  0.9802 -0.2649  0.5296
 3280THY    CA181978   8.694   9.465   9.298  0.9927  0.1013  0.0248
 3280THY    CA281979   8.769   9.364   9.364  0.0742 -0.0931 -0.2125
 3280THY    CP181980   8.776   9.226   9.293 -0.0918  0.1328 -0.2078
 3280THY    HP181981   8.724   9.227   9.196 -1.5152 -1.0489  0.4881
 3280THY    CP281982   8.915   9.183   9.258 -0.5562 -0.1997  0.3729
 3280THY    HP281983   8.923   9.085   9.209  0.2598  0.6400 -1.2517
 3280THY    HP381984   8.943   9.255   9.180 -0.6662 -0.2731  0.2634
 3280THY    HP481985   8.976   9.191   9.348 -0.4051 -1.4244  0.3852
 3280THY    CP381986   8.701   9.108   9.365 -0.5912  0.0234 -0.4965
 3280THY    HP581987   8.695   9.017   9.304  3.3050 -1.0444  0.4293
 3280THY    HP681988   8.742   9.081   9.463  1.6676  0.4334 -1.2839
 3280THY    HP781989   8.601   9.151   9.383 -1.3129 -1.3675 -0.9824
 3280THY    CA381990   8.849   9.401   9.471  0.2749  0.0362  0.0042
 3280THY    HA381991   8.924   9.329   9.502  0.3714  0.0631 -0.1721
 3280THY    CA481992   8.841   9.527   9.530 -0.0175 -1.0390  0.2647
 3280THY    HA481993   8.902   9.551   9.617 -0.3999 -1.5119  0.6745
 3280THY    CA581994   8.752   9.619   9.472  0.1088 -0.6113 -0.1374
 3280THY    CM181995   8.736   9.753   9.543  0.7103  0.7738  0.0274
 3280THY    HM181996   8.688   9.829   9.479  0.0671  0.2388 -0.1354
 3280THY    HM281997   8.662   9.733   9.622  0.5714 -0.1502 -0.3315
 3280THY    HM381998   8.831   9.791   9.582  1.2308 -1.0647  0.6229
 3280THY    CA681999   8.678   9.592   9.353  0.4486 -0.3285  0.2478
 3280THY    HA682000   8.620   9.671   9.307  2.2908  0.4409 -0.8719
 3281THY      O82001   1.640   3.838   5.719 -0.0998  0.3012 -0.3398
 3281THY     HO82002   1.628   3.866   5.811  0.5791  0.5219 -0.3078
 3281THY    CA182003   1.584   3.717   5.723  0.1183  0.0362  0.3055
 3281THY    CA282004   1.580   3.626   5.614 -0.4368 -0.2491  0.8994
 3281THY    CP182005   1.611   3.669   5.469 -0.5372  0.6628  0.1175
 3281THY    HP182006   1.669   3.762   5.466 -1.5062  1.2788 -2.1203
 3281THY    CP282007   1.700   3.576   5.391  0.2025  0.3989 -0.4475
 3281THY    HP282008   1.724   3.622   5.295  0.5145  1.7525  0.2524
 3281THY    HP382009   1.795   3.556   5.443 -0.7303 -2.2025  0.4554
 3281THY    HP482010   1.661   3.478   5.363 -0.1050  0.0317  1.1609
 3281THY    CP382011   1.481   3.698   5.391  0.3559 -0.0309  0.1966
 3281THY    HP582012   1.509   3.717   5.287 -1.2295 -0.9217 -0.4306
 3281THY    HP682013   1.401   3.623   5.395 -0.1182  0.4786  0.3744
 3281THY    HP782014   1.442   3.791   5.434 -0.0015 -0.0940  0.0096
 3281THY    CA382015   1.534   3.496   5.638 -0.9885  0.6500  0.2163
 3281THY    HA382016   1.523   3.414   5.568 -0.8444  1.1623 -0.4194
 3281THY    CA482017   1.477   3.464   5.764 -0.1537 -0.1781  0.3463
 3281THY    HA482018   1.429   3.367   5.778  1.2720 -0.8304  1.0101
 3281THY    CA582019   1.477   3.556   5.870  0.0212  0.6177 -0.3598
 3281THY    CM182020   1.417   3.510   5.993  0.3866 -0.7571 -0.4096
 3281THY    HM182021   1.313   3.477   5.987  0.2920 -0.4445 -0.5268
 3281THY    HM282022   1.487   3.440   6.040  0.8022 -0.6870 -0.9078
 3281THY    HM382023   1.414   3.600   6.055  0.6840 -0.2735 -1.0740
 3281THY    CA682024   1.527   3.686   5.846  0.5323 -0.0950 -0.3965
 3281THY    HA682025   1.522   3.759   5.926 -5.0141 -1.5460  0.9685
 3282THY      O82026   6.109   5.152   4.891  0.0580  0.0295  0.3849
 3282THY     HO82027   6.064   5.165   4.806  0.6942 -0.4995 -0.0446
 3282THY    CA182028   6.188   5.257   4.884 -0.1115 -0.5619  0.1104
 3282THY    CA282029   6.257   5.303   4.994  0.2241  0.2095 -0.1854
 3282THY    CP182030   6.233   5.228   5.125 -0.2701 -0.0875 -0.2507
 3282THY    HP182031   6.172   5.137   5.125 -2.4868  1.3096 -0.8419
 3282THY    CP282032   6.371   5.181   5.193 -0.0978  0.4734  0.4091
 3282THY    HP282033   6.438   5.264   5.216  0.4986 -0.4760  2.3199
 3282THY    HP382034   6.348   5.128   5.286  1.7814 -0.7627  0.2205
 3282THY    HP482035   6.419   5.110   5.123 -0.0470  0.7612  0.1518
 3282THY    CP382036   6.176   5.324   5.230  0.7654 -0.0805 -0.1237
 3282THY    HP582037   6.080   5.367   5.198  0.2056 -1.3706 -0.2256
 3282THY    HP682038   6.162   5.270   5.324  2.1119  2.6649  1.8015
 3282THY    HP782039   6.232   5.416   5.253  1.3746  0.3500 -2.9738
 3282THY    CA382040   6.351   5.411   4.978  0.4740 -0.1766 -0.4146
 3282THY    HA382041   6.408   5.454   5.060 -1.8668  0.9540  0.6956
 3282THY    CA482042   6.371   5.461   4.844 -0.2501 -0.0070 -0.0910
 3282THY    HA482043   6.439   5.545   4.830  0.1694  0.7263  4.7162
 3282THY    CA582044   6.299   5.417   4.732  0.0377  1.2424  0.4458
 3282THY    CM182045   6.315   5.473   4.592 -0.1795  0.6721  0.1073
 3282THY    HM182046   6.386   5.417   4.531  1.9639  2.0406  1.2157
 3282THY    HM282047   6.219   5.474   4.540 -0.6085  0.1070  0.8669
 3282THY    HM382048   6.350   5.577   4.597 -1.0342  0.9196  1.3145
 3282THY    CA682049   6.210   5.311   4.752  0.3040  0.1127 -0.1821
 3282THY    HA682050   6.157   5.275   4.664  0.3836  0.9053 -0.5670
 3283THY      O82051   2.400   0.786   4.592 -0.3877  1.3858  0.4564
 3283THY     HO82052   2.379   0.729   4.668 -0.5183  3.8172  2.3731
 3283THY    CA182053   2.488   0.875   4.653  0.4097  0.6515 -0.1693
 3283THY    CA282054   2.493   1.015   4.616 -1.1416 -1.0726  0.4155
 3283THY    CP182055   2.397   1.069   4.512  0.6240 -0.5144 -0.0870
 3283THY    HP182056   2.305   1.010   4.509 -0.4670  0.8049  3.1657
 3283THY    CP282057   2.346   1.211   4.563  0.0842 -0.2100 -0.1206
 3283THY    HP282058   2.279   1.259   4.491 -1.8193  0.3176  1.9064
 3283THY    HP382059   2.286   1.188   4.651 -0.5242  0.3797 -0.3729
 3283THY    HP482060   2.419   1.276   4.612  0.9495 -1.1065 -0.1820
 3283THY    CP382061   2.467   1.090   4.376  0.0757  0.2186  0.0058
 3283THY    HP582062   2.555   1.155   4.373 -0.4022  0.8815 -3.7066
 3283THY    HP682063   2.504   0.993   4.344 -2.0313 -0.6051 -0.1389
 3283THY    HP782064   2.396   1.104   4.293 -1.4753 -0.7668  1.1051
 3283THY    CA382065   2.590   1.099   4.684 -0.1806  0.0075  1.1124
 3283THY    HA382066   2.599   1.202   4.651 -1.7594 -1.1184 -3.6408
 3283THY    CA482067   2.670   1.053   4.791  0.1075  0.6383  0.3229
 3283THY    HA482068   2.748   1.111   4.840  0.4538  1.1038 -0.7540
 3283THY    CA582069   2.661   0.917   4.820 -0.3425 -0.2506 -0.4680
 3283THY    CM182070   2.754   0.853   4.930  0.6027  0.1462  0.9012
 3283THY    HM182071   2.718   0.753   4.958 -1.2342 -0.1157 -1.9672
 3283THY    HM282072   2.854   0.847   4.886  1.2317  2.0811  1.9296
 3283THY    HM382073   2.760   0.917   5.019  1.6036  0.9109  0.3006
 3283THY    CA682074   2.571   0.828   4.758  0.5195  0.0345  0.1072
 3283THY    HA682075   2.563   0.723   4.785  0.8422 -0.7582 -2.6367
 3284THY      O82076   2.613   2.197   5.134 -0.2394  0.1231 -0.0166
 3284THY     HO82077   2.621   2.142   5.214 -2.6993 -0.3716 -0.0312
 3284THY    CA182078   2.662   2.138   5.020 -0.0216 -0.4609 -0.2142
 3284THY    CA282079   2.683   2.222   4.907 -0.3429  0.9208  0.4685
 3284THY    CP182080   2.645   2.371   4.906 -0.5316 -0.0004 -0.0963
 3284THY    HP182081   2.574   2.382   4.989 -0.2212 -0.8183  0.2879
 3284THY    CP282082   2.761   2.465   4.928 -0.6223 -0.2397  0.4363
 3284THY    HP282083   2.805   2.452   5.028 -1.0518  2.5602  1.0578
 3284THY    HP382084   2.835   2.467   4.847  0.2461 -1.6053  1.1534
 3284THY    HP482085   2.719   2.566   4.926  1.1759  0.5754  1.2299
 3284THY    CP382086   2.559   2.409   4.781 -0.1185  1.1585 -0.7052
 3284THY    HP582087   2.461   2.362   4.795  0.4968  0.1367  0.3798
 3284THY    HP682088   2.533   2.515   4.773  0.0114  1.1301 -1.5574
 3284THY    HP782089   2.609   2.382   4.687 -0.9576 -0.9166 -0.5998
 3284THY    CA382090   2.749   2.152   4.796  0.8001  0.5292  0.5749
 3284THY    HA382091   2.777   2.205   4.705  1.4318 -0.3785  0.2312
 3284THY    CA482092   2.776   2.019   4.796 -0.6859  0.3293 -0.7824
 3284THY    HA482093   2.824   1.968   4.713  0.9343 -1.5204  1.1596
 3284THY    CA582094   2.750   1.939   4.911  0.7134 -0.9779  0.4193
 3284THY    CM182095   2.783   1.794   4.909  0.5590 -0.1504 -0.1405
 3284THY    HM182096   2.685   1.744   4.909  0.4429  0.0680  0.2707
 3284THY    HM282097   2.826   1.773   4.811  1.6985  0.3621  0.2417
 3284THY    HM382098   2.840   1.773   5.000 -0.6590 -1.6502  0.3272
 3284THY    CA682099   2.695   2.003   5.026 -0.0123 -0.1100  0.5554
 3284THY    HA682100   2.679   1.943   5.115  2.0816 -1.2061  0.2684
 3285THY      O82101   1.590   3.472   1.953  0.0380 -0.3863 -0.5749
 3285THY     HO82102   1.596   3.493   1.858 -0.3128  0.6357 -0.3891
 3285THY    CA182103   1.541   3.589   2.011 -0.2230 -0.1021 -0.0015
 3285THY    CA282104   1.470   3.579   2.129 -0.3467  0.1347  0.1793
 3285THY    CP182105   1.443   3.443   2.196 -0.0746  0.9095  0.4098
 3285THY    HP182106   1.527   3.373   2.180  0.1107  0.2112  3.7790
 3285THY    CP282107   1.437   3.446   2.351  0.5297  0.4092  0.9016
 3285THY    HP282108   1.352   3.506   2.387 -0.6799 -0.5968 -0.1520
 3285THY    HP382109   1.415   3.344   2.385 -0.6576  0.3332 -0.0301
 3285THY    HP482110   1.534   3.471   2.394  0.6032  1.0923  0.3476
 3285THY    CP382111   1.309   3.381   2.143 -0.2368  0.0372 -0.1645
 3285THY    HP582112   1.286   3.286   2.191  2.1473  0.6497  2.4326
 3285THY    HP682113   1.227   3.451   2.165 -1.4327 -1.3936  0.0450
 3285THY    HP782114   1.310   3.368   2.034  0.3085 -1.2654 -0.0161
 3285THY    CA382115   1.432   3.703   2.189 -0.3198 -1.0676 -0.6745
 3285THY    HA382116   1.376   3.704   2.282  1.1055  0.6134  0.2365
 3285THY    CA482117   1.450   3.823   2.108 -0.0224 -0.5549  0.0327
 3285THY    HA482118   1.398   3.913   2.138  0.0645 -0.6283  0.4110
 3285THY    CA582119   1.521   3.824   1.992 -0.5061  0.6251  0.0382
 3285THY    CM182120   1.535   3.944   1.908 -0.2071 -0.4398 -0.0772
 3285THY    HM182121   1.641   3.964   1.889 -0.1050 -0.0051  0.8915
 3285THY    HM282122   1.471   3.938   1.818 -0.8657  0.7512  0.2906
 3285THY    HM382123   1.499   4.035   1.958 -0.4223 -0.4754 -0.1637
 3285THY    CA682124   1.577   3.702   1.950  0.4318 -0.6048  0.8747
 3285THY    HA682125   1.624   3.698   1.853 -1.9689  2.2232 -0.5350
 3286THY      O82126   8.447   0.724   5.675 -0.3459  0.0856 -0.0081
 3286THY     HO82127   8.513   0.681   5.733  0.7084  0.1886 -1.0802
 3286THY    CA182128   8.485   0.677   5.554  0.2003  0.3370 -0.3664
 3286THY    CA282129   8.477   0.744   5.430 -0.7095 -1.0061  0.1773
 3286THY    CP182130   8.415   0.886   5.415 -0.3139  0.9526 -0.5974
 3286THY    HP182131   8.438   0.921   5.314  0.8384  1.1564 -0.2773
 3286THY    CP282132   8.265   0.884   5.460 -0.1335  0.4004 -0.9318
 3286THY    HP282133   8.266   0.899   5.569 -2.0220  0.8873 -0.9369
 3286THY    HP382134   8.220   0.981   5.433 -0.7373  2.0802  4.7550
 3286THY    HP482135   8.207   0.799   5.422 -2.4014  1.4498  0.0049
 3286THY    CP382136   8.501   0.986   5.499 -0.3357 -0.1404 -0.1442
 3286THY    HP582137   8.499   1.087   5.458  0.1912  0.5299  1.3886
 3286THY    HP682138   8.470   0.992   5.604  0.2394  1.4580 -0.0465
 3286THY    HP782139   8.609   0.968   5.489 -0.3108 -1.8812  2.2614
 3286THY    CA382140   8.529   0.685   5.313 -0.3753  0.2856 -0.0677
 3286THY    HA382141   8.531   0.738   5.219 -2.0501 -1.9633 -1.4678
 3286THY    CA482142   8.585   0.554   5.321  0.0186 -0.4452  0.3354
 3286THY    HA482143   8.624   0.519   5.226  2.7958  0.6461  0.9892
 3286THY    CA582144   8.588   0.488   5.451  0.3367  0.8000  0.3324
 3286THY    CM182145   8.647   0.354   5.468  0.1717 -0.3550 -0.0045
 3286THY    HM182146   8.731   0.332   5.401 -1.0460  0.5680 -1.8940
 3286THY    HM282147   8.696   0.353   5.566 -1.3376  3.8228  0.9842
 3286THY    HM382148   8.570   0.276   5.473  1.0356 -1.1541  2.0666
 3286THY    CA682149   8.538   0.543   5.566  0.0739 -0.2770  0.4647
 3286THY    HA682150   8.551   0.488   5.659  2.1983 -2.8085 -1.1941
 3287THY      O82151   7.290   2.665   3.044  0.2994  0.5826 -0.0755
 3287THY     HO82152   7.330   2.594   2.992  1.6024  0.8834  0.4803
 3287THY    CA182153   7.332   2.642   3.171 -0.3071  0.0774  1.3874
 3287THY    CA282154   7.296   2.732   3.272  0.1547 -0.5227 -0.1189
 3287THY    CP182155   7.250   2.874   3.237  0.3743 -0.4256  0.2345
 3287THY    HP182156   7.189   2.880   3.145 -0.2653  2.3741  0.7423
 3287THY    CP282157   7.159   2.945   3.336  0.2099  0.3369 -0.0140
 3287THY    HP282158   7.215   2.978   3.424 -0.0081  2.1856 -0.5277
 3287THY    HP382159   7.119   3.039   3.297 -0.6778 -0.0935 -0.1837
 3287THY    HP482160   7.067   2.893   3.366 -1.1823  3.1453  0.9534
 3287THY    CP382161   7.373   2.961   3.206 -0.3699 -0.0277 -0.2852
 3287THY    HP582162   7.456   2.944   3.276 -1.1941  1.9132  1.2528
 3287THY    HP682163   7.407   2.932   3.105 -0.2218  0.7187 -0.4537
 3287THY    HP782164   7.355   3.068   3.194  0.2639  0.2195  0.8086
 3287THY    CA382165   7.335   2.704   3.403 -0.1055 -0.2486 -0.6815
 3287THY    HA382166   7.322   2.774   3.484  2.7992 -0.2368 -0.1113
 3287THY    CA482167   7.399   2.583   3.428 -0.3994 -0.3322 -0.2812
 3287THY    HA482168   7.424   2.544   3.527  0.2446  1.4496  0.2986
 3287THY    CA582169   7.418   2.487   3.335 -0.2876  0.8198 -0.6921
 3287THY    CM182170   7.498   2.366   3.365  0.0613 -0.3363 -0.2559
 3287THY    HM182171   7.569   2.323   3.293  1.4033  1.1405  0.1251
 3287THY    HM282172   7.552   2.360   3.460  2.5117  1.2080 -1.4576
 3287THY    HM382173   7.420   2.289   3.375 -0.5228  0.3070  0.2587
 3287THY    CA682174   7.393   2.516   3.202  0.6057 -0.0671  0.2239
 3287THY    HA682175   7.420   2.449   3.121  0.8308 -0.0780  0.3079
 3288THY      O82176   5.700   2.799   3.014  0.1193 -0.7563 -0.0133
 3288THY     HO82177   5.740   2.798   2.925  0.7672 -1.4615  0.2717
 3288THY    CA182178   5.711   2.669   3.054 -0.3558 -0.5757 -0.0700
 3288THY    CA282179   5.637   2.621   3.160 -0.0627  0.4056 -0.3343
 3288THY    CP182180   5.551   2.704   3.246  0.5845  0.2225  0.2851
 3288THY    HP182181   5.533   2.805   3.208 -1.4975 -0.6110 -1.1023
 3288THY    CP282182   5.405   2.647   3.265 -0.0958  0.4292  0.0482
 3288THY    HP282183   5.347   2.723   3.318 -0.7341  1.0111 -1.4414
 3288THY    HP382184   5.359   2.632   3.167 -0.8260  1.8059  0.1627
 3288THY    HP482185   5.399   2.555   3.325 -1.3595  0.5701  0.1680
 3288THY    CP382186   5.612   2.717   3.385  0.7707  0.4656 -0.3349
 3288THY    HP582187   5.553   2.788   3.443  1.2822  2.2412 -1.8593
 3288THY    HP682188   5.604   2.628   3.448  0.0019  0.3938 -0.5228
 3288THY    HP782189   5.716   2.754   3.381  1.1538 -0.6306 -1.1914
 3288THY    CA382190   5.659   2.489   3.201 -0.0933  0.4303 -0.0790
 3288THY    HA382191   5.610   2.454   3.291 -0.2147 -1.5106 -0.8650
 3288THY    CA482192   5.751   2.405   3.135  0.2736 -0.1822 -0.6854
 3288THY    HA482193   5.765   2.302   3.168 -1.4018 -1.0493 -2.4660
 3288THY    CA582194   5.825   2.458   3.029  0.8434 -0.5724  0.1342
 3288THY    CM182195   5.924   2.370   2.959  0.2223  0.1316 -0.1219
 3288THY    HM182196   6.011   2.354   3.023  0.0866 -0.4466 -0.0750
 3288THY    HM282197   5.872   2.276   2.935 -1.3986  1.6164 -2.9330
 3288THY    HM382198   5.952   2.418   2.864  0.1387 -1.0522 -0.7669
 3288THY    CA682199   5.797   2.588   2.985  0.0032  0.0762  0.1241
 3288THY    HA682200   5.860   2.624   2.904 -0.7707  0.1846 -0.4408
 3289THY      O82201   8.885   1.902   3.375 -0.0889  0.8425 -0.1277
 3289THY     HO82202   8.851   1.844   3.445  1.9635  0.5643  0.7315
 3289THY    CA182203   9.016   1.903   3.401 -0.8600  0.2448 -0.4924
 3289THY    CA282204   9.117   1.949   3.306  0.2207  0.4343 -0.0071
 3289THY    CP182205   9.096   1.933   3.153  0.6705 -0.6215 -0.8986
 3289THY    HP182206   8.996   1.894   3.133  1.0996 -1.5353 -1.3907
 3289THY    CP282207   9.112   2.055   3.076 -0.3547 -0.4722  0.4242
 3289THY    HP282208   9.039   2.127   3.114  0.1553  0.8052 -0.9442
 3289THY    HP382209   9.218   2.078   3.092  0.1981 -0.8300 -2.1823
 3289THY    HP482210   9.083   2.044   2.971 -2.7798 -0.6444  1.0566
 3289THY    CP382211   9.181   1.821   3.087  1.3600 -0.5813  0.1290
 3289THY    HP582212   9.125   1.784   3.001  1.7294 -0.0486 -0.3460
 3289THY    HP682213   9.278   1.856   3.050  0.6090  0.8739 -0.5214
 3289THY    HP782214   9.190   1.742   3.163 -0.6477 -1.1496 -0.1797
 3289THY    CA382215   9.249   1.977   3.356 -0.1503  0.6979  0.3872
 3289THY    HA382216   9.331   1.991   3.286  0.4264  0.6752  1.0469
 3289THY    CA482217   9.274   1.968   3.495 -0.0611 -1.3140 -0.7453
 3289THY    HA482218   9.372   1.989   3.537 -0.6644  0.0461  0.0326
 3289THY    CA582219   9.177   1.938   3.587  0.0829 -0.0458 -0.5066
 3289THY    CM182220   9.208   1.949   3.733  0.2265  0.5365  1.1822
 3289THY    HM182221   9.215   2.054   3.765 -0.3692  1.0902 -0.4424
 3289THY    HM282222   9.135   1.897   3.797 -0.0348  0.2692  0.6660
 3289THY    HM382223   9.306   1.906   3.760  1.2972  1.5610 -0.8661
 3289THY    CA682224   9.048   1.906   3.538 -0.4430 -0.1236 -0.1468
 3289THY    HA682225   8.962   1.890   3.602 -1.9058  1.0296 -1.7454
 3290THY      O82226   8.530   4.901   8.668 -0.1548  0.4771 -0.1934
 3290THY     HO82227   8.485   4.984   8.692 -0.8595 -0.6057  2.6584
 3290THY    CA182228   8.629   4.931   8.572 -0.0472  0.5946  0.3316
 3290THY    CA282229   8.689   4.831   8.499  0.0540 -0.0211  0.4285
 3290THY    CP182230   8.678   4.680   8.523  0.1573  0.5758  0.6698
 3290THY    HP182231   8.622   4.659   8.615  1.3433  2.7150  1.9692
 3290THY    CP282232   8.598   4.623   8.402  0.0257 -0.7075 -0.0376
 3290THY    HP282233   8.500   4.671   8.393 -0.2203 -1.0753  0.6351
 3290THY    HP382234   8.652   4.631   8.307 -0.2815 -0.2956 -0.1803
 3290THY    HP482235   8.581   4.519   8.433  0.7987 -0.1191  2.6215
 3290THY    CP382236   8.806   4.609   8.568 -0.0073 -0.2885 -0.0576
 3290THY    HP582237   8.786   4.509   8.609  0.1555 -1.2579 -2.2162
 3290THY    HP682238   8.881   4.594   8.489 -0.5098  1.7311 -0.9851
 3290THY    HP782239   8.866   4.676   8.631  2.7020 -1.8435 -0.7939
 3290THY    CA382240   8.775   4.874   8.397  0.0815 -0.4876  0.2834
 3290THY    HA382241   8.837   4.805   8.341  0.9785  0.2344  0.3803
 3290THY    CA482242   8.794   5.014   8.367 -0.0877 -0.3946  0.5144
 3290THY    HA482243   8.864   5.059   8.298  0.9250  1.3945  2.5961
 3290THY    CA582244   8.742   5.109   8.454 -0.4758 -0.4282 -0.0397
 3290THY    CM182245   8.774   5.254   8.445 -0.2099 -0.0693  0.1562
 3290THY    HM182246   8.709   5.313   8.379  0.4752  2.2038  1.3952
 3290THY    HM282247   8.760   5.297   8.545 -0.5083 -1.9239  0.9626
 3290THY    HM382248   8.877   5.270   8.412 -0.6252 -1.2753 -1.8993
 3290THY    CA682249   8.659   5.065   8.560  0.0604  0.6487  0.6344
 3290THY    HA682250   8.611   5.143   8.619 -0.8059  0.2471  0.4790
 3291THY      O82251   1.017   7.673   0.371 -0.1332  0.4363  0.7734
 3291THY     HO82252   1.035   7.655   0.465  1.8177  1.9203  0.7423
 3291THY    CA182253   0.899   7.630   0.341 -0.0357 -0.6359  0.3318
 3291THY    CA282254   0.838   7.678   0.221 -0.6210  0.2386  0.7825
 3291THY    CP182255   0.913   7.779   0.129  0.1147  0.0225 -0.1845
 3291THY    HP182256   0.990   7.834   0.185 -0.4502  1.0514 -0.3821
 3291THY    CP282257   0.993   7.703   0.019 -0.0683  0.3222 -0.1264
 3291THY    HP282258   0.918   7.656  -0.045  0.6886 -0.0658 -0.7462
 3291THY    HP382259   1.066   7.766  -0.033 -0.5226  1.5508  0.6828
 3291THY    HP482260   1.051   7.627   0.074 -2.3707  0.9488  3.4410
 3291THY    CP382261   0.826   7.893   0.077 -0.2702  0.1607  0.7366
 3291THY    HP582262   0.754   7.852   0.005 -1.0304 -0.9912  2.1134
 3291THY    HP682263   0.777   7.957   0.152 -1.5824 -1.1876  1.0862
 3291THY    HP782264   0.882   7.964   0.016 -2.2067  0.4370 -0.8470
 3291THY    CA382265   0.716   7.623   0.179 -0.0212 -0.1088  0.5320
 3291THY    HA382266   0.673   7.655   0.085 -2.9350 -2.2303  0.9899
 3291THY    CA482267   0.656   7.524   0.257  0.2853  0.6767 -0.3704
 3291THY    HA482268   0.567   7.469   0.228 -0.7416  1.2448  1.5484
 3291THY    CA582269   0.712   7.488   0.379  0.4283  0.0267 -0.4341
 3291THY    CM182270   0.660   7.374   0.465  0.4150  0.0499  0.4754
 3291THY    HM182271   0.699   7.371   0.567  1.8133  1.2071  0.0067
 3291THY    HM282272   0.552   7.381   0.481  0.4590  0.6087  0.5534
 3291THY    HM382273   0.671   7.271   0.428 -0.8690  0.0039  0.1635
 3291THY    CA682274   0.830   7.539   0.422 -0.7118  0.8470  0.2974
 3291THY    HA682275   0.869   7.492   0.512  1.5384  1.3264 -0.3784
 3292THY      O82276   7.528   8.661   5.516 -0.7898  0.2883  0.6093
 3292THY     HO82277   7.477   8.650   5.434 -0.2226  0.2902  0.2524
 3292THY    CA182278   7.444   8.670   5.615  0.1166  0.1413 -0.4765
 3292THY    CA282279   7.488   8.720   5.734  0.2667 -0.3781  0.2433
 3292THY    CP182280   7.633   8.762   5.747 -0.2601  0.1146  0.2763
 3292THY    HP182281   7.699   8.693   5.693  1.2066  1.4739  0.2587
 3292THY    CP282282   7.642   8.901   5.678 -0.5093  0.3423  0.2417
 3292THY    HP282283   7.592   8.982   5.733  0.7729  0.0873  1.8382
 3292THY    HP382284   7.746   8.927   5.656 -1.0906  1.1031 -1.9336
 3292THY    HP482285   7.600   8.900   5.576 -1.6909 -0.7707  0.7128
 3292THY    CP382286   7.686   8.773   5.892 -0.0413  0.1519  0.1857
 3292THY    HP582287   7.795   8.776   5.901  0.0585 -1.2115 -0.2876
 3292THY    HP682288   7.641   8.855   5.950  1.1669  1.2143 -0.3197
 3292THY    HP782289   7.647   8.685   5.944 -2.6691  0.9164 -0.3155
 3292THY    CA382290   7.398   8.747   5.833 -0.0457 -0.8231 -0.4573
 3292THY    HA382291   7.433   8.799   5.922  1.3158 -2.3519 -0.0653
 3292THY    CA482292   7.261   8.707   5.815  0.6004  0.2940  0.0429
 3292THY    HA482293   7.183   8.715   5.890  0.5900 -0.6851  0.1445
 3292THY    CA582294   7.214   8.659   5.691  0.0269  0.3775 -0.2723
 3292THY    CM182295   7.067   8.630   5.667 -0.3263  0.3015 -0.3862
 3292THY    HM182296   7.050   8.576   5.573  2.0887  0.2925 -0.8672
 3292THY    HM282297   7.022   8.578   5.752  0.4094  1.6136  0.8547
 3292THY    HM382298   7.014   8.726   5.670  0.7955  0.9063  1.9775
 3292THY    CA682299   7.305   8.641   5.585 -0.6341 -0.3952 -1.4191
 3292THY    HA682300   7.274   8.625   5.482  2.3791 -0.3140 -2.4220
 3293THY      O82301   8.819   9.182   4.967 -0.4745 -0.2511  0.2864
 3293THY     HO82302   8.861   9.171   4.880  2.4881 -0.7089  1.6538
 3293THY    CA182303   8.906   9.252   5.037 -0.4832 -0.7151  0.0262
 3293THY    CA282304   8.874   9.312   5.159 -0.6458  0.0832  0.0125
 3293THY    CP182305   8.739   9.280   5.214  0.3529 -0.4320 -0.1768
 3293THY    HP182306   8.662   9.277   5.135 -0.4185  0.4386  0.5261
 3293THY    CP282307   8.742   9.142   5.291 -0.5686  0.2530 -0.4259
 3293THY    HP282308   8.822   9.142   5.366  0.4550 -1.8390 -1.4167
 3293THY    HP382309   8.654   9.136   5.356 -0.0857 -0.5782  0.1816
 3293THY    HP482310   8.756   9.058   5.222 -1.5345  0.8541 -1.3720
 3293THY    CP382311   8.675   9.384   5.300 -0.2658  0.3265 -0.0297
 3293THY    HP582312   8.579   9.350   5.341  0.7047 -0.3039  1.8705
 3293THY    HP682313   8.745   9.407   5.382  2.1465 -0.2411 -1.8075
 3293THY    HP782314   8.656   9.477   5.246  0.5584  1.0958  0.9497
 3293THY    CA382315   8.979   9.371   5.230  0.4941  0.7519 -0.0166
 3293THY    HA382316   8.957   9.410   5.330 -1.2210 -0.1283 -0.0073
 3293THY    CA482317   9.102   9.393   5.177  0.0544 -0.2605 -0.5293
 3293THY    HA482318   9.175   9.445   5.240 -1.8971  1.1356  0.6829
 3293THY    CA582319   9.131   9.343   5.058  0.3284  0.1457  0.5258
 3293THY    CM182320   9.273   9.359   5.005  0.3969  0.0950  0.1783
 3293THY    HM182321   9.306   9.463   5.015  1.6481 -0.1015 -1.4598
 3293THY    HM282322   9.347   9.301   5.062  2.4335  1.5772 -0.8397
 3293THY    HM382323   9.269   9.339   4.897  2.0314 -0.6570  0.2350
 3293THY    CA682324   9.035   9.275   4.985 -0.5739 -0.3534  0.1796
 3293THY    HA682325   9.071   9.233   4.891  2.1545  0.2077  0.8803
 3294THY      O82326   3.223   2.739   6.827 -0.1484 -0.1449  0.0060
 3294THY     HO82327   3.284   2.718   6.900  0.1042  0.3962 -0.0482
 3294THY    CA182328   3.199   2.872   6.863 -0.7489 -0.1520 -0.8287
 3294THY    CA282329   3.192   2.976   6.769  0.6823  0.1893  0.5856
 3294THY    CP182330   3.202   2.954   6.617 -0.5194  0.3677  0.2829
 3294THY    HP182331   3.218   2.850   6.585  0.1410  0.5279  0.0771
 3294THY    CP282332   3.079   3.001   6.545 -0.3968  0.2209 -0.7129
 3294THY    HP282333   3.077   2.967   6.441 -1.7427 -1.2213 -0.2595
 3294THY    HP382334   2.997   2.945   6.592 -0.5046  2.1958  1.6710
 3294THY    HP482335   3.056   3.108   6.544  1.7511  0.7374 -1.0557
 3294THY    CP382336   3.335   3.017   6.561 -0.1194  0.1333  0.2447
 3294THY    HP582337   3.321   3.008   6.453  1.3598  2.6496 -0.2446
 3294THY    HP682338   3.342   3.124   6.586 -3.0376  0.3811  0.2850
 3294THY    HP782339   3.422   2.961   6.596  0.2998  0.4973 -0.2037
 3294THY    CA382340   3.177   3.109   6.818  0.8605 -0.1609  0.5610
 3294THY    HA382341   3.179   3.191   6.747  0.6656 -0.6803 -0.0598
 3294THY    CA482342   3.160   3.132   6.952 -0.6210  0.3678  0.1138
 3294THY    HA482343   3.141   3.232   6.989 -1.5802  0.3925 -0.4195
 3294THY    CA582344   3.170   3.031   7.041  0.6394  0.8155 -0.1671
 3294THY    CM182345   3.139   3.056   7.189 -0.0564 -0.5412 -0.1142
 3294THY    HM182346   3.138   2.960   7.242 -3.0091  0.1849  1.3758
 3294THY    HM282347   3.218   3.113   7.239  0.4430 -0.4609 -0.9888
 3294THY    HM382348   3.039   3.101   7.193  0.1057 -0.1668 -0.2298
 3294THY    CA682349   3.202   2.900   7.001 -0.0020 -0.2530  0.2696
 3294THY    HA682350   3.201   2.818   7.072  0.3405  0.5174  1.1875
 3295THY      O82351   8.757   3.535   2.871 -0.5603 -0.4944 -0.1170
 3295THY     HO82352   8.750   3.583   2.787 -0.4175  0.9423  0.6598
 3295THY    CA182353   8.837   3.432   2.847  0.4310  0.0656  0.9311
 3295THY    CA282354   8.802   3.298   2.869  0.4740  0.0102 -0.0135
 3295THY    CP182355   8.665   3.267   2.927 -0.8380 -0.1692  0.2265
 3295THY    HP182356   8.608   3.357   2.954 -0.3955 -0.0874  0.9137
 3295THY    CP282357   8.585   3.192   2.818  0.6932 -0.4046 -0.4287
 3295THY    HP282358   8.562   3.265   2.740 -0.2260 -1.1062 -0.8334
 3295THY    HP382359   8.650   3.115   2.775  2.0490  1.1291 -1.2041
 3295THY    HP482360   8.498   3.149   2.869  0.8264 -0.1963 -0.0213
 3295THY    CP382361   8.667   3.182   3.055 -0.0252 -0.0825 -0.0477
 3295THY    HP582362   8.576   3.193   3.115  0.7509 -3.8877  2.1748
 3295THY    HP682363   8.695   3.077   3.035  0.0203  0.1029 -1.0017
 3295THY    HP782364   8.743   3.229   3.118 -0.2252  0.1754  0.0030
 3295THY    CA382365   8.889   3.189   2.842  0.0811  0.9099  0.3577
 3295THY    HA382366   8.876   3.084   2.868 -0.3279  0.8610 -0.0452
 3295THY    CA482367   9.014   3.224   2.794  0.2460 -0.1895 -0.5598
 3295THY    HA482368   9.090   3.150   2.771  2.4477  0.7795  2.8514
 3295THY    CA582369   9.056   3.351   2.771  0.0898  0.0438 -0.8652
 3295THY    CM182370   9.188   3.368   2.704  1.0572 -0.3377 -0.3399
 3295THY    HM182371   9.183   3.397   2.598  2.1363  2.7905  0.3585
 3295THY    HM282372   9.252   3.444   2.750  1.6335  0.1593 -1.8989
 3295THY    HM382373   9.240   3.272   2.691  1.3640 -0.0723 -1.1221
 3295THY    CA682374   8.966   3.459   2.794 -0.6378  0.4956  0.5972
 3295THY    HA682375   8.998   3.561   2.774 -1.4086  0.7810  0.7920
 3296THY      O82376   1.741   3.507   1.705 -0.0186  0.7541  0.4225
 3296THY     HO82377   1.829   3.514   1.745 -1.6208 -1.1288  4.9482
 3296THY    CA182378   1.762   3.463   1.577  0.1805  0.4843  0.1357
 3296THY    CA282379   1.658   3.462   1.480 -0.2264  0.2731 -0.1605
 3296THY    CP182380   1.515   3.478   1.520 -0.6859 -0.6803  0.1824
 3296THY    HP182381   1.511   3.501   1.627 -1.0484 -1.0442  0.2480
 3296THY    CP282382   1.453   3.597   1.447 -0.0889 -0.3078 -0.8106
 3296THY    HP282383   1.436   3.575   1.341  0.6551 -2.3667 -0.5379
 3296THY    HP382384   1.351   3.618   1.482  1.0264  0.8849  2.0603
 3296THY    HP482385   1.518   3.685   1.445 -0.2371 -0.0755  1.6057
 3296THY    CP382386   1.448   3.350   1.501  0.3501  0.3269 -0.0606
 3296THY    HP582387   1.441   3.318   1.397  0.4712 -0.4808  0.1761
 3296THY    HP682388   1.479   3.272   1.571  0.3269  1.5098  1.3100
 3296THY    HP782389   1.340   3.360   1.519 -0.0464 -1.4504 -1.2465
 3296THY    CA382390   1.699   3.442   1.345  0.0130  0.2556  0.6867
 3296THY    HA382391   1.633   3.448   1.259  1.2638  1.3917 -0.2362
 3296THY    CA482392   1.832   3.422   1.313 -0.4917  1.2955 -0.2294
 3296THY    HA482393   1.863   3.403   1.211  0.3453 -0.7616  0.3624
 3296THY    CA582394   1.920   3.392   1.415 -0.2506 -0.0877 -0.5406
 3296THY    CM182395   2.064   3.362   1.376 -0.1453  0.1198 -0.0931
 3296THY    HM182396   2.118   3.301   1.450 -0.0124  1.6149  1.0963
 3296THY    HM282397   2.085   3.315   1.280  0.6744  0.8927 -0.3048
 3296THY    HM382398   2.112   3.460   1.367  0.1999 -0.1706 -1.6753
 3296THY    CA682399   1.890   3.429   1.546 -1.0778 -0.1699  0.4828
 3296THY    HA682400   1.954   3.422   1.633 -0.3635  1.6722  0.1688
 3297THY      O82401   1.394   2.533   0.271 -0.5541  0.0331  0.2026
 3297THY     HO82402   1.309   2.493   0.295 -0.9708  1.6071  1.5600
 3297THY    CA182403   1.375   2.656   0.324 -0.5079  0.1113 -0.3483
 3297THY    CA282404   1.444   2.776   0.291 -0.0540 -0.3487  0.4824
 3297THY    CP182405   1.547   2.778   0.176  0.5487  0.2832 -0.2200
 3297THY    HP182406   1.504   2.710   0.101 -0.7338  1.4812 -0.6078
 3297THY    CP282407   1.571   2.914   0.111  0.1721  0.1079 -0.2605
 3297THY    HP282408   1.617   2.907   0.012  1.6226  4.2858 -0.0983
 3297THY    HP382409   1.478   2.971   0.101 -0.1474 -0.6253 -1.7979
 3297THY    HP482410   1.646   2.962   0.175 -1.2353 -2.0496  3.3005
 3297THY    CP382411   1.682   2.715   0.225  0.2965  1.0911 -0.1732
 3297THY    HP582412   1.753   2.720   0.142 -0.8465 -0.0701 -1.2532
 3297THY    HP682413   1.719   2.768   0.314  0.6970  0.9714 -0.2635
 3297THY    HP782414   1.682   2.609   0.253 -1.4660  0.6725 -1.6030
 3297THY    CA382415   1.427   2.894   0.364  0.8533 -0.0530  0.0226
 3297THY    HA382416   1.490   2.980   0.345  1.3352 -0.0983  1.2895
 3297THY    CA482417   1.350   2.882   0.481  0.0692  0.5913 -0.6849
 3297THY    HA482418   1.346   2.969   0.545  1.3276  0.3286 -0.2293
 3297THY    CA582419   1.279   2.769   0.516 -0.6369  0.4475  0.5942
 3297THY    CM182420   1.183   2.775   0.630  0.1570 -0.6276 -0.5879
 3297THY    HM182421   1.206   2.854   0.702 -0.1162  0.9969 -2.2120
 3297THY    HM282422   1.087   2.793   0.580  1.1237 -0.7688 -2.6194
 3297THY    HM382423   1.177   2.675   0.675 -0.1542 -0.2471  0.2244
 3297THY    CA682424   1.292   2.652   0.434  0.4310 -0.1756  0.3788
 3297THY    HA682425   1.231   2.565   0.456  1.2689 -1.3585 -1.6402
 3298THY      O82426   8.672   8.070   8.909  0.1403 -0.1930 -0.0774
 3298THY     HO82427   8.755   8.047   8.955  0.8418  1.1016 -0.6242
 3298THY    CA182428   8.700   8.194   8.863  0.2232 -0.3420 -0.0069
 3298THY    CA282429   8.615   8.259   8.768  0.0323 -0.1040  0.2398
 3298THY    CP182430   8.494   8.192   8.708  0.4409  0.1110 -0.3408
 3298THY    HP182431   8.516   8.086   8.694  2.0695  0.3184  0.3741
 3298THY    CP282432   8.371   8.218   8.797 -0.1040 -0.1375 -0.2814
 3298THY    HP282433   8.394   8.201   8.903 -1.4337 -0.4685 -0.0318
 3298THY    HP382434   8.333   8.320   8.785  1.5801  0.5358 -0.2439
 3298THY    HP482435   8.286   8.161   8.758 -1.5885  1.8611 -0.1389
 3298THY    CP382436   8.458   8.249   8.563 -0.1549  0.5098 -0.0568
 3298THY    HP582437   8.433   8.354   8.581 -1.0282 -0.0173  1.9969
 3298THY    HP682438   8.539   8.236   8.490 -0.4916 -3.8587  0.0567
 3298THY    HP782439   8.372   8.191   8.530  1.3287 -1.4975 -0.6173
 3298THY    CA382440   8.654   8.388   8.722 -0.0008 -0.0576  0.5109
 3298THY    HA382441   8.591   8.445   8.654  1.3414  1.6883  0.6516
 3298THY    CA482442   8.785   8.430   8.747 -0.2951 -0.2350 -0.2035
 3298THY    HA482443   8.818   8.525   8.706 -2.7272  0.9862  0.4627
 3298THY    CA582444   8.863   8.370   8.851  0.9968  0.0212  0.4719
 3298THY    CM182445   8.997   8.432   8.898 -0.6186 -0.0458  0.1048
 3298THY    HM182446   9.070   8.432   8.817  0.6713 -0.3857  1.2156
 3298THY    HM282447   8.981   8.535   8.931 -1.6028  0.0029 -0.4911
 3298THY    HM382448   9.044   8.378   8.981  0.1022  2.5973  1.5246
 3298THY    CA682449   8.814   8.254   8.914  0.2526  0.0291 -0.2678
 3298THY    HA682450   8.873   8.215   8.996  0.0341  1.8900  0.8359
 3299THY      O82451   4.073   2.576   0.041 -0.3138  0.0233 -0.5345
 3299THY     HO82452   4.121   2.561  -0.042 -1.9658 -1.5829 -1.2725
 3299THY    CA182453   4.011   2.454   0.056  0.8321 -0.6036  0.5144
 3299THY    CA282454   3.931   2.415   0.167  0.4270  0.2011 -0.0836
 3299THY    CP182455   3.908   2.514   0.291 -0.9439  0.7523  0.5268
 3299THY    HP182456   3.959   2.607   0.264  1.6550 -0.5746  0.5208
 3299THY    CP282457   3.761   2.530   0.327 -0.1189 -0.2534  0.1438
 3299THY    HP282458   3.704   2.546   0.235  1.5346 -2.1143 -1.2792
 3299THY    HP382459   3.730   2.438   0.379 -3.1045  1.2598  1.3025
 3299THY    HP482460   3.744   2.611   0.399 -0.8256 -0.7734  0.5762
 3299THY    CP382461   3.975   2.450   0.416 -0.1272 -0.6220  0.0458
 3299THY    HP582462   4.078   2.415   0.402  0.6939  1.1469  1.2634
 3299THY    HP682463   3.979   2.519   0.501 -0.8224 -1.6172  0.9220
 3299THY    HP782464   3.912   2.368   0.453 -1.5008 -0.3336 -1.5068
 3299THY    CA382465   3.870   2.288   0.161 -0.3543  0.1976 -0.4773
 3299THY    HA382466   3.811   2.252   0.245 -0.3730 -0.4153 -0.7424
 3299THY    CA482467   3.894   2.205   0.055 -0.5055 -0.7303  0.8745
 3299THY    HA482468   3.867   2.101   0.068 -0.3420 -0.5554  3.1868
 3299THY    CA582469   3.970   2.245  -0.058  0.3110 -0.9227 -0.0404
 3299THY    CM182470   4.003   2.160  -0.175  0.5399 -0.0932 -0.5431
 3299THY    HM182471   4.058   2.072  -0.140  0.1343 -0.2672 -0.3332
 3299THY    HM282472   3.902   2.142  -0.215 -0.6222  0.4155  2.0123
 3299THY    HM382473   4.055   2.212  -0.256 -0.2220  1.4077 -0.0919
 3299THY    CA682474   4.024   2.373  -0.059  0.2538  0.1965  0.2197
 3299THY    HA682475   4.073   2.410  -0.149  1.4336  2.3163  1.6400
 3300THY      O82476   0.682   0.804   9.359 -0.4182 -0.2152  0.6852
 3300THY     HO82477   0.651   0.852   9.281 -0.0547 -1.0083  0.0335
 3300THY    CA182478   0.788   0.728   9.307 -1.0859 -0.0912  0.4979
 3300THY    CA282479   0.847   0.617   9.370 -0.5501  0.3534  0.8818
 3300THY    CP182480   0.794   0.566   9.502 -0.6692  0.4190 -1.0499
 3300THY    HP182481   0.707   0.621   9.540 -0.9472  1.0774 -2.5555
 3300THY    CP282482   0.748   0.426   9.500  0.3528 -0.8385 -0.4018
 3300THY    HP282483   0.659   0.410   9.437  0.1586  2.0392 -0.9709
 3300THY    HP382484   0.822   0.356   9.459  2.1109  0.5485  0.2697
 3300THY    HP482485   0.718   0.394   9.601  1.2326  0.6049  0.3366
 3300THY    CP382486   0.888   0.581   9.626 -0.3597 -1.1411 -0.4867
 3300THY    HP582487   0.983   0.551   9.580 -0.2819 -1.1410 -0.3255
 3300THY    HP682488   0.912   0.685   9.654 -1.3755 -0.3399 -2.3555
 3300THY    HP782489   0.867   0.517   9.712  1.1527  0.0508  0.8531
 3300THY    CA382490   0.958   0.551   9.311 -0.1738  0.3851  0.3801
 3300THY    HA382491   1.015   0.478   9.368 -1.0222 -1.7713 -1.3830
 3300THY    CA482492   1.014   0.606   9.190  0.3839  0.6881 -0.9432
 3300THY    HA482493   1.114   0.578   9.160  0.2134 -0.6143 -0.3586
 3300THY    CA582494   0.941   0.704   9.120  0.0786  0.4523  0.8686
 3300THY    CM182495   0.986   0.761   8.990  0.6933  0.6994 -0.3791
 3300THY    HM182496   0.925   0.729   8.905  0.6835  1.4924 -0.6852
 3300THY    HM282497   0.952   0.865   8.990 -0.9651  0.2135  1.4018
 3300THY    HM382498   1.095   0.758   8.977  0.5423  0.5482 -1.7066
 3300THY    CA682499   0.832   0.763   9.181 -1.1854 -0.5617  0.4647
 3300THY    HA682500   0.784   0.851   9.137 -2.8737 -0.9056  1.5348
 3301THY      O82501   3.310   5.529   6.640 -0.5763  0.1692  0.0620
 3301THY     HO82502   3.357   5.595   6.693 -0.2318 -1.3237  1.6961
 3301THY    CA182503   3.378   5.413   6.657  0.4938  0.3646 -0.6948
 3301THY    CA282504   3.332   5.292   6.592  0.2994 -0.1883 -0.9208
 3301THY    CP182505   3.196   5.289   6.521  0.7076 -0.3198  0.4614
 3301THY    HP182506   3.134   5.362   6.574  0.6501 -0.6303  0.8315
 3301THY    CP282507   3.207   5.328   6.366 -0.8755 -0.1351 -0.0652
 3301THY    HP282508   3.279   5.272   6.305  0.4477  2.7006 -1.3142
 3301THY    HP382509   3.109   5.316   6.319  0.8944 -1.0833 -3.8729
 3301THY    HP482510   3.226   5.435   6.348 -0.7233 -0.2467 -0.5778
 3301THY    CP382511   3.112   5.164   6.543  0.3465  0.3987  0.1341
 3301THY    HP582512   3.006   5.175   6.515  0.1352 -2.0111 -0.2642
 3301THY    HP682513   3.147   5.068   6.503  1.7582  1.4367 -1.2618
 3301THY    HP782514   3.116   5.142   6.650  0.3678 -1.6700 -0.2581
 3301THY    CA382515   3.424   5.184   6.595 -0.0322 -0.4511  0.6672
 3301THY    HA382516   3.405   5.093   6.540 -0.8946  0.0247  0.1460
 3301THY    CA482517   3.537   5.185   6.684 -0.2320 -0.2030 -0.2226
 3301THY    HA482518   3.596   5.095   6.695 -0.7474 -0.9708 -2.8197
 3301THY    CA582519   3.577   5.303   6.751 -0.5316  0.2624  0.1375
 3301THY    CM182520   3.715   5.305   6.820 -0.1959  0.4021  0.5051
 3301THY    HM182521   3.727   5.353   6.918 -0.4934  0.7573  0.3723
 3301THY    HM282522   3.764   5.207   6.823 -0.4121  0.2704 -0.0954
 3301THY    HM382523   3.786   5.362   6.760  1.6919 -0.7333  1.5504
 3301THY    CA682524   3.493   5.412   6.742  0.0358 -0.5169  0.0846
 3301THY    HA682525   3.523   5.505   6.790 -0.8033 -0.3017  0.2105
 3302THY      O82526   9.915   4.439   8.743 -0.2524  0.1341  0.2168
 3302THY     HO82527   9.939   4.344   8.747  1.8694  0.6093 -0.2445
 3302THY    CA182528   9.986   4.494   8.846  0.3353 -0.4844  0.1504
 3302THY    CA282529   9.929   4.593   8.923 -1.0125 -0.1995  0.2591
 3302THY    CP182530   9.786   4.634   8.902  0.1024 -0.7473  0.3467
 3302THY    HP182531   9.748   4.595   8.807 -0.7934  1.7846 -0.4033
 3302THY    CP282532   9.695   4.575   9.013 -0.0447 -0.5422 -0.7400
 3302THY    HP282533   9.732   4.478   9.048 -0.5363 -0.6766 -0.5810
 3302THY    HP382534   9.694   4.634   9.105  0.2860 -0.6965 -0.6350
 3302THY    HP482535   9.595   4.559   8.971  0.5397 -0.3700 -2.2823
 3302THY    CP382536   9.757   4.786   8.884  0.2055  0.2359  0.0624
 3302THY    HP582537   9.677   4.800   8.811 -1.2950  0.1218  1.6164
 3302THY    HP682538   9.736   4.817   8.987 -0.0661 -2.2588  0.8384
 3302THY    HP782539   9.846   4.845   8.859  0.3426  0.5288  1.1860
 3302THY    CA382540  10.008   4.659   9.024 -0.2790 -0.4817  0.7956
 3302THY    HA382541   9.961   4.741   9.077 -2.5177 -0.8429 -0.5061
 3302THY    CA482542  10.142   4.610   9.035  0.0325 -0.4332 -1.1866
 3302THY    HA482543  10.205   4.663   9.106 -0.8133 -1.5211  0.4446
 3302THY    CA582544  10.193   4.511   8.962 -0.1422 -0.1171 -0.3221
 3302THY    CM182545  10.330   4.466   8.975 -0.0921  0.0731 -0.1255
 3302THY    HM182546  10.372   4.459   9.076 -0.2327  3.3464  0.2897
 3302THY    HM282547  10.346   4.366   8.934 -1.1096 -0.5105  0.8640
 3302THY    HM382548  10.397   4.532   8.917  1.4340 -0.8608  0.5202
 3302THY    CA682549  10.114   4.449   8.865  0.1693 -0.4454 -0.1392
 3302THY    HA682550  10.155   4.357   8.824  2.1762 -0.7552  2.3078
 3303THY      O82551   7.479   4.899   7.411 -0.0020  0.4273  0.3079
 3303THY     HO82552   7.431   4.817   7.388  2.3214 -1.3037  1.1955
 3303THY    CA182553   7.399   5.002   7.378  0.4195 -0.2388  0.3427
 3303THY    CA282554   7.434   5.135   7.387  0.4475  0.3026 -0.4945
 3303THY    CP182555   7.577   5.166   7.437 -0.1574  0.3797  1.0514
 3303THY    HP182556   7.647   5.082   7.436  1.0683  1.2312 -3.1867
 3303THY    CP282557   7.662   5.246   7.337  0.2192 -0.0143  0.1246
 3303THY    HP282558   7.754   5.300   7.363  0.6622 -0.0872 -1.2211
 3303THY    HP382559   7.677   5.185   7.247 -0.4171 -0.3536  0.2454
 3303THY    HP482560   7.602   5.333   7.310  1.6928  1.4759  1.4135
 3303THY    CP382561   7.582   5.224   7.573  0.3008  0.2468 -0.4186
 3303THY    HP582562   7.515   5.175   7.644  3.4886 -1.7159  1.4992
 3303THY    HP682563   7.684   5.206   7.611 -0.6126 -0.7014  1.7355
 3303THY    HP782564   7.559   5.331   7.565  1.4533  0.6689  1.3369
 3303THY    CA382565   7.334   5.231   7.360  0.0908  0.0519 -0.4879
 3303THY    HA382566   7.357   5.337   7.360  2.7684 -0.3771 -3.1437
 3303THY    CA482567   7.212   5.189   7.317 -0.5183 -0.5853  0.4313
 3303THY    HA482568   7.135   5.259   7.286 -0.7647 -1.3987 -0.8714
 3303THY    CA582569   7.180   5.055   7.309  0.1181  0.4039  0.1239
 3303THY    CM182570   7.041   5.012   7.265  0.1695 -0.0261 -0.3623
 3303THY    HM182571   7.038   4.937   7.185 -0.1843  0.1077 -0.4716
 3303THY    HM282572   6.993   4.968   7.353 -0.9827  0.8286 -0.5482
 3303THY    HM382573   6.967   5.088   7.238 -1.4376 -1.3913  0.0242
 3303THY    CA682574   7.277   4.959   7.332  0.4294 -0.1897  0.6897
 3303THY    HA682575   7.248   4.855   7.322 -1.2852  0.1322  1.8925
 3304THY      O82576   7.111   6.369   0.948 -0.3139  0.0700 -0.2398
 3304THY     HO82577   7.200   6.403   0.928 -0.4491  0.6748  0.1684
 3304THY    CA182578   7.029   6.449   0.882 -0.2670 -0.0937  0.2481
 3304THY    CA282579   6.894   6.435   0.903  0.3015 -0.1202  0.0844
 3304THY    CP182580   6.841   6.342   1.016  0.0827  0.6644  0.0329
 3304THY    HP182581   6.915   6.297   1.084 -3.5071 -2.2912  2.4212
 3304THY    CP282582   6.761   6.433   1.110 -0.0452  0.1554 -0.3706
 3304THY    HP282583   6.682   6.494   1.063 -0.9299  0.5073  1.4840
 3304THY    HP382584   6.720   6.383   1.198  3.2993 -1.2963  0.4980
 3304THY    HP482585   6.834   6.501   1.153  1.1131 -2.2704  1.7373
 3304THY    CP382586   6.745   6.239   0.964  0.6214  0.2259  0.0798
 3304THY    HP582587   6.676   6.208   1.044  1.6654 -1.5616  0.3274
 3304THY    HP682588   6.682   6.295   0.894  0.2486  0.6272  0.7263
 3304THY    HP782589   6.790   6.149   0.921  1.3591  0.0479  1.1740
 3304THY    CA382590   6.803   6.505   0.818 -1.0415  0.4772 -0.7782
 3304THY    HA382591   6.696   6.496   0.830 -0.9506  0.0799 -0.2030
 3304THY    CA482592   6.851   6.599   0.729  0.4798 -0.2124 -0.1864
 3304THY    HA482593   6.774   6.652   0.674 -2.8697 -4.2492  0.1076
 3304THY    CA582594   6.986   6.607   0.705  0.1746  1.0889 -0.5481
 3304THY    CM182595   7.045   6.701   0.600 -0.6161  0.5509  0.5267
 3304THY    HM182596   7.144   6.737   0.631 -0.8045  0.7076  0.9541
 3304THY    HM282597   7.068   6.635   0.515  0.0897  0.4872  0.7582
 3304THY    HM382598   6.980   6.785   0.575 -1.7490 -0.9635 -1.8775
 3304THY    CA682599   7.076   6.534   0.783 -0.8104 -0.3423 -0.8134
 3304THY    HA682600   7.182   6.529   0.762 -0.7478 -0.5648 -0.4513
 3305THY      O82601   8.558   2.596   5.424 -0.1254 -0.0566  0.1703
 3305THY     HO82602   8.566   2.692   5.429  1.9972 -0.2244  0.9461
 3305THY    CA182603   8.452   2.562   5.497 -0.0316 -0.1342  0.5566
 3305THY    CA282604   8.378   2.444   5.462  0.3949 -0.4422 -0.2066
 3305THY    CP182605   8.432   2.340   5.357  0.6212  0.2556 -0.5353
 3305THY    HP182606   8.501   2.390   5.287  0.5393  1.6342  0.3307
 3305THY    CP282607   8.506   2.225   5.433 -0.1331 -0.4284 -0.0078
 3305THY    HP282608   8.438   2.147   5.470 -0.0370 -1.6870 -2.3101
 3305THY    HP382609   8.575   2.175   5.363 -1.6109 -0.1379 -1.7379
 3305THY    HP482610   8.561   2.267   5.518  0.1595 -1.5639  0.3907
 3305THY    CP382611   8.310   2.295   5.276 -0.2420  0.6991  0.3791
 3305THY    HP582612   8.244   2.378   5.249 -0.2605  0.6187  0.1797
 3305THY    HP682613   8.339   2.236   5.189  0.2054 -0.4266  1.2613
 3305THY    HP782614   8.241   2.233   5.335  1.4352 -0.4181  1.2524
 3305THY    CA382615   8.256   2.420   5.528  0.0183  0.2481 -0.6120
 3305THY    HA382616   8.197   2.331   5.511 -0.6997  0.9139 -1.7666
 3305THY    CA482617   8.204   2.518   5.621  0.2351  0.3423 -1.0893
 3305THY    HA482618   8.105   2.510   5.665  0.2450  1.4007 -0.8321
 3305THY    CA582619   8.271   2.637   5.640 -0.2969 -0.4071 -0.0774
 3305THY    CM182620   8.227   2.732   5.746 -0.3354 -0.4022  0.0082
 3305THY    HM182621   8.138   2.791   5.721 -0.4995 -0.1694  1.0906
 3305THY    HM282622   8.210   2.668   5.834 -0.2232 -0.8566 -0.2971
 3305THY    HM382623   8.294   2.808   5.787 -1.9257  0.6944  0.6821
 3305THY    CA682624   8.397   2.659   5.577  0.4641  0.1001  0.3886
 3305THY    HA682625   8.448   2.755   5.588 -1.6957  1.2939  0.6226
 3306THY      O82626   0.102   8.547   8.517  0.9951 -0.6784 -0.7233
 3306THY     HO82627   0.159   8.619   8.548  2.0531 -0.9602 -1.9112
 3306THY    CA182628   0.049   8.574   8.387 -0.7040  0.0709 -1.1942
 3306THY    CA282629  -0.089   8.590   8.369 -0.0961 -0.1586 -0.2994
 3306THY    CP182630  -0.186   8.616   8.481 -0.7326  0.3754  0.3250
 3306THY    HP182631  -0.129   8.659   8.565 -1.4249 -1.1993  1.6688
 3306THY    CP282632  -0.296   8.710   8.454  0.0526  0.1358  0.7197
 3306THY    HP282633  -0.353   8.654   8.380 -1.5868  1.3611  1.0023
 3306THY    HP382634  -0.360   8.733   8.540 -0.6266 -0.7355  0.4577
 3306THY    HP482635  -0.261   8.804   8.409  0.6941  0.9124  2.7138
 3306THY    CP382636  -0.247   8.491   8.532  0.1001  0.0143  0.0899
 3306THY    HP582637  -0.335   8.495   8.597 -0.8042  0.5165 -1.1355
 3306THY    HP682638  -0.286   8.435   8.446 -0.0449 -0.6382  0.5702
 3306THY    HP782639  -0.167   8.439   8.588 -0.0639 -0.0491  0.2662
 3306THY    CA382640  -0.138   8.586   8.238 -0.4676  0.6360  0.7928
 3306THY    HA382641  -0.237   8.615   8.204 -0.3695 -0.3829 -0.4906
 3306THY    CA482642  -0.050   8.577   8.129  0.3166 -0.6683 -0.3639
 3306THY    HA482643  -0.090   8.578   8.028 -2.4417  1.0071  0.6355
 3306THY    CA582644   0.092   8.571   8.154 -0.2819  0.4486  0.0817
 3306THY    CM182645   0.187   8.580   8.042  0.3194  0.2808  0.0922
 3306THY    HM182646   0.187   8.490   7.979 -1.3909 -1.8973  2.9236
 3306THY    HM282647   0.163   8.668   7.982 -1.6179  0.4177  0.9700
 3306THY    HM382648   0.289   8.581   8.081  0.2020 -3.6126  0.8585
 3306THY    CA682649   0.139   8.568   8.284  0.8638  0.2835  0.3872
 3306THY    HA682650   0.244   8.547   8.304  0.1014 -1.7718  2.8003
 3307THY      O82651   7.646   0.282   7.428 -0.0472 -0.4098 -0.0629
 3307THY     HO82652   7.623   0.226   7.504  0.1442 -1.3481 -0.6725
 3307THY    CA182653   7.540   0.303   7.352  0.4112 -0.3031 -0.1737
 3307THY    CA282654   7.541   0.397   7.247  0.4132 -0.1103 -0.1042
 3307THY    CP182655   7.663   0.471   7.208  0.1400  0.6836  0.8015
 3307THY    HP182656   7.717   0.480   7.303 -0.8862 -1.3172  1.6490
 3307THY    CP282657   7.735   0.383   7.118 -0.0045 -0.4933 -0.1111
 3307THY    HP282658   7.661   0.352   7.044 -1.0702 -1.6292  1.3591
 3307THY    HP382659   7.818   0.433   7.067 -0.6576 -0.1712 -0.8774
 3307THY    HP482660   7.770   0.292   7.168 -0.9514 -0.9207 -0.2007
 3307THY    CP382661   7.646   0.611   7.154  0.2668 -0.5304  0.3406
 3307THY    HP582662   7.747   0.654   7.151  2.5346 -5.2842 -2.6988
 3307THY    HP682663   7.609   0.608   7.051 -3.7566 -0.2374  1.6230
 3307THY    HP782664   7.575   0.663   7.219 -1.5845 -1.7531 -0.6154
 3307THY    CA382665   7.414   0.415   7.172 -0.4685 -0.3831 -0.1192
 3307THY    HA382666   7.394   0.473   7.083 -2.6112 -0.4649  0.2480
 3307THY    CA482667   7.297   0.342   7.209 -0.8430 -0.0893 -0.4168
 3307THY    HA482668   7.202   0.361   7.160 -2.9123 -0.9400  2.9723
 3307THY    CA582669   7.296   0.256   7.324  0.1619  0.1107 -0.3135
 3307THY    CM182670   7.185   0.168   7.351 -0.1974  0.2700 -0.5834
 3307THY    HM182671   7.218   0.072   7.393  3.4167  1.5282 -0.1984
 3307THY    HM282672   7.116   0.217   7.421  0.8185 -0.8227  1.2309
 3307THY    HM382673   7.118   0.159   7.264 -0.6644  0.7093 -0.2777
 3307THY    CA682674   7.415   0.248   7.394 -0.8848  0.3482  0.3901
 3307THY    HA682675   7.416   0.183   7.480 -2.1939  1.5483  1.3570
 3308THY      O82676   6.559   9.232   0.723 -0.2798  0.2336 -0.1277
 3308THY     HO82677   6.598   9.254   0.810 -0.0320 -0.4528 -0.0585
 3308THY    CA182678   6.498   9.351   0.695 -0.1777  0.5811  0.1592
 3308THY    CA282679   6.477   9.384   0.557  0.4759 -0.0726  0.5633
 3308THY    CP182680   6.507   9.281   0.444 -0.4516  0.1074 -0.4249
 3308THY    HP182681   6.593   9.216   0.461 -0.3888  0.2077 -0.3619
 3308THY    CP282682   6.392   9.175   0.444  0.3159 -0.2686 -0.3997
 3308THY    HP282683   6.391   9.102   0.362 -2.2489  1.8164 -2.4016
 3308THY    HP382684   6.378   9.124   0.539  2.0062  1.6928  0.9944
 3308THY    HP482685   6.298   9.232   0.436 -0.2082 -0.5936  2.4937
 3308THY    CP382686   6.520   9.336   0.306  0.1570  0.1987  0.5028
 3308THY    HP582687   6.552   9.259   0.234 -0.8920 -1.0075  1.2845
 3308THY    HP682688   6.421   9.375   0.281  0.0657 -1.6389 -2.4241
 3308THY    HP782689   6.582   9.426   0.316  1.9891 -0.6631 -2.0473
 3308THY    CA382690   6.411   9.506   0.529 -0.3138 -0.6464  0.1044
 3308THY    HA382691   6.380   9.526   0.427  0.9225  0.0994 -0.1564
 3308THY    CA482692   6.373   9.587   0.636  0.0510 -1.0029  0.0280
 3308THY    HA482693   6.306   9.671   0.624 -1.2385 -2.1638 -1.3231
 3308THY    CA582694   6.391   9.550   0.771 -0.2292  0.4337  0.0431
 3308THY    CM182695   6.351   9.632   0.884  0.8855 -0.3468  0.3478
 3308THY    HM182696   6.313   9.731   0.854 -3.5623 -0.9977  2.9249
 3308THY    HM282697   6.275   9.581   0.945  1.0267  0.6203  1.3636
 3308THY    HM382698   6.434   9.652   0.953  0.0878 -0.3434  1.3288
 3308THY    CA682699   6.465   9.433   0.796  0.1269  0.1957 -0.1455
 3308THY    HA682700   6.490   9.407   0.898  0.3487  2.1450  0.3420
 3309THY      O82701   6.527   3.674   3.272  0.0571 -0.1843  0.2212
 3309THY     HO82702   6.600   3.619   3.304  1.0107  1.5038  1.0057
 3309THY    CA182703   6.422   3.594   3.270 -0.0842  0.1204 -0.7969
 3309THY    CA282704   6.292   3.641   3.301 -0.3416 -0.0939 -0.2356
 3309THY    CP182705   6.270   3.783   3.339  0.1457 -0.3654 -0.1444
 3309THY    HP182706   6.360   3.843   3.321  0.1808 -0.6341 -0.9114
 3309THY    CP282707   6.155   3.845   3.265  0.0775 -0.2042 -0.0839
 3309THY    HP282708   6.132   3.949   3.292  0.1040  0.1648 -1.4122
 3309THY    HP382709   6.158   3.846   3.156 -2.8859 -1.6185 -0.3077
 3309THY    HP482710   6.063   3.789   3.287 -0.3036  1.4337  3.1069
 3309THY    CP382711   6.244   3.806   3.485  0.6200 -0.0292 -0.0768
 3309THY    HP582712   6.230   3.913   3.503  1.4685  0.1606 -0.4917
 3309THY    HP682713   6.162   3.742   3.519  1.0387  0.8407  2.9341
 3309THY    HP782714   6.327   3.770   3.548  0.3885 -3.0857 -1.3564
 3309THY    CA382715   6.185   3.554   3.324  0.3413  0.0670  0.3368
 3309THY    HA382716   6.087   3.583   3.359  0.0018  0.4635 -0.9008
 3309THY    CA482717   6.210   3.417   3.303  0.1266 -0.5511  0.1577
 3309THY    HA482718   6.126   3.354   3.329  1.0257 -1.8187  0.0438
 3309THY    CA582719   6.336   3.369   3.254  1.0104  0.1570  0.0838
 3309THY    CM182720   6.362   3.222   3.226 -0.1155 -1.0356  0.3660
 3309THY    HM182721   6.270   3.188   3.176 -1.0800  2.4801 -0.5864
 3309THY    HM282722   6.453   3.205   3.166  1.2043  0.1497  1.9490
 3309THY    HM382723   6.380   3.170   3.320 -2.3123 -1.8743  0.3913
 3309THY    CA682724   6.441   3.455   3.234  0.7512 -0.4077 -0.4950
 3309THY    HA682725   6.534   3.417   3.192  1.5062  2.4385 -1.5910
 3310THY      O82726   4.488   8.335   4.513  0.6180 -0.1479 -0.0389
 3310THY     HO82727   4.574   8.292   4.528  0.4474  0.2572  2.5147
 3310THY    CA182728   4.521   8.466   4.500  0.0172 -0.3259  0.4487
 3310THY    CA282729   4.429   8.567   4.476  0.4483 -0.0840 -0.2701
 3310THY    CP182730   4.279   8.542   4.451 -0.0893  1.0057  0.1918
 3310THY    HP182731   4.247   8.440   4.475  1.3926  1.1887  3.3471
 3310THY    CP282732   4.187   8.627   4.544  0.5201  0.1342 -0.3329
 3310THY    HP282733   4.216   8.601   4.646  2.7609 -0.6122 -1.0886
 3310THY    HP382734   4.211   8.733   4.538 -0.2814  0.2909 -0.9422
 3310THY    HP482735   4.080   8.621   4.519  0.1350  1.3194  0.9113
 3310THY    CP382736   4.227   8.567   4.312  0.1666  0.1087  0.0827
 3310THY    HP582737   4.302   8.538   4.237  0.5702  2.0020 -0.3014
 3310THY    HP682738   4.131   8.528   4.274 -1.3019  1.6718  1.9739
 3310THY    HP782739   4.225   8.675   4.296  0.6705 -0.0092 -0.9017
 3310THY    CA382740   4.469   8.701   4.470  0.3764  0.2609 -0.7874
 3310THY    HA382741   4.396   8.777   4.445 -2.7544 -3.4569 -4.5732
 3310THY    CA482742   4.606   8.724   4.467  0.1862 -0.3553 -0.6873
 3310THY    HA482743   4.634   8.826   4.443 -0.2076  0.1882  0.9881
 3310THY    CA582744   4.705   8.626   4.489 -0.1539 -0.2332 -1.1105
 3310THY    CM182745   4.848   8.658   4.473 -0.6207 -0.1212  0.3891
 3310THY    HM182746   4.905   8.670   4.566 -0.0843  1.6346 -0.1140
 3310THY    HM282747   4.892   8.571   4.424  0.3956  1.1919 -1.1562
 3310THY    HM382748   4.868   8.746   4.411  1.3550 -0.2431  0.7971
 3310THY    CA682749   4.655   8.495   4.509 -0.3708 -0.5072  0.1294
 3310THY    HA682750   4.732   8.420   4.522  1.0424  0.4883 -1.8393
 3311THY      O82751   8.333   1.792   4.020 -0.2342  0.5123 -0.1522
 3311THY     HO82752   8.276   1.852   4.070  0.8857  0.9255  0.6703
 3311THY    CA182753   8.255   1.696   3.963  0.2465  0.4093  0.0555
 3311THY    CA282754   8.305   1.575   3.912 -0.5618 -0.2085  0.3317
 3311THY    CP182755   8.454   1.532   3.927  0.7110 -0.1809 -0.6773
 3311THY    HP182756   8.516   1.622   3.928 -2.3277  2.1280  1.3509
 3311THY    CP282757   8.456   1.463   4.059 -0.3280  0.2363  0.8263
 3311THY    HP282758   8.412   1.523   4.140 -0.4079 -0.9272  1.6608
 3311THY    HP382759   8.409   1.365   4.063 -0.7332  0.4442  1.1443
 3311THY    HP482760   8.563   1.460   4.085 -0.5531 -2.2060  1.7063
 3311THY    CP382761   8.509   1.453   3.818  0.0339  0.2624  0.2488
 3311THY    HP582762   8.618   1.452   3.824  0.0086  0.5781  0.8029
 3311THY    HP682763   8.472   1.350   3.808 -1.6027  0.9411 -1.4839
 3311THY    HP782764   8.489   1.502   3.721  1.6837  0.5148  0.0059
 3311THY    CA382765   8.217   1.496   3.835 -0.1022 -1.5274 -0.0609
 3311THY    HA382766   8.261   1.408   3.790  1.6061 -1.3452  1.1470
 3311THY    CA482767   8.079   1.527   3.837 -0.1286 -0.0956  0.3198
 3311THY    HA482768   8.004   1.472   3.781 -0.1976  0.6389 -0.3274
 3311THY    CA582769   8.026   1.640   3.903 -0.6839  0.2889  0.6872
 3311THY    CM182770   7.888   1.676   3.903  0.1966  0.3121  0.5680
 3311THY    HM182771   7.834   1.645   3.813  0.5270  1.6370 -0.1158
 3311THY    HM282772   7.840   1.630   3.990  0.1469 -1.9795 -0.6037
 3311THY    HM382773   7.885   1.786   3.906  1.1542  0.3964 -0.7196
 3311THY    CA682774   8.114   1.718   3.968 -0.7082 -0.3676 -0.0709
 3311THY    HA682775   8.081   1.811   4.013  1.4560 -0.2972  1.5559
 3312THY      O82776   6.596   9.824   7.385  0.3610  0.2052  0.1074
 3312THY     HO82777   6.550   9.814   7.470  0.6683  0.4515  0.3023
 3312THY    CA182778   6.703   9.750   7.404 -0.4615  0.5841 -0.3115
 3312THY    CA282779   6.805   9.735   7.311 -0.0425  0.2761  0.9519
 3312THY    CP182780   6.808   9.825   7.189 -0.1613  0.2446  0.0570
 3312THY    HP182781   6.711   9.824   7.138  0.1962 -0.4333 -0.6360
 3312THY    CP282782   6.845   9.977   7.213  0.5531 -0.1452  0.0980
 3312THY    HP282783   6.949   9.995   7.246  0.3551  2.5143 -0.5109
 3312THY    HP382784   6.830  10.015   7.112  1.0240 -0.6700 -0.1746
 3312THY    HP482785   6.771  10.033   7.271 -1.1645 -0.4364 -1.7091
 3312THY    CP382786   6.904   9.786   7.079  0.1742 -0.0035 -0.3236
 3312THY    HP582787   7.009   9.802   7.104  0.7412  0.1867 -2.5973
 3312THY    HP682788   6.881   9.684   7.049 -2.9014  0.3765  0.4217
 3312THY    HP782789   6.881   9.839   6.986 -0.3579  1.8023  0.7865
 3312THY    CA382790   6.901   9.636   7.327  0.2831  0.3729 -0.0188
 3312THY    HA382791   6.982   9.618   7.257 -0.1145  0.1013 -0.4126
 3312THY    CA482792   6.890   9.553   7.439 -0.3855 -0.3969  0.3774
 3312THY    HA482793   6.961   9.472   7.447  0.4519  0.4979  2.7573
 3312THY    CA582794   6.799   9.577   7.538  0.6850 -0.2181 -0.9136
 3312THY    CM182795   6.805   9.498   7.667 -0.3788 -0.1784  0.0729
 3312THY    HM182796   6.819   9.568   7.750  1.9755  0.0848 -0.4738
 3312THY    HM282797   6.719   9.434   7.692  1.2219 -2.5985 -0.2295
 3312THY    HM382798   6.892   9.431   7.674  0.9576  1.5125  0.0471
 3312THY    CA682799   6.703   9.675   7.520  0.2519  0.3226  0.2696
 3312THY    HA682800   6.633   9.687   7.602  0.7206  1.5969  0.5093
 3313THY      O82801   1.743   4.419   1.262 -0.4504  0.9831  0.3471
 3313THY     HO82802   1.752   4.467   1.177 -1.4056 -0.9184 -0.9005
 3313THY    CA182803   1.654   4.490   1.338 -0.2945 -0.3208 -1.5495
 3313THY    CA282804   1.625   4.451   1.473 -0.1949 -0.1773 -0.4317
 3313THY    CP182805   1.705   4.335   1.540 -0.2586  0.1254  0.0308
 3313THY    HP182806   1.733   4.254   1.471  1.0070  0.4778  0.1010
 3313THY    CP282807   1.843   4.378   1.589 -0.1102  0.2633  0.0510
 3313THY    HP282808   1.907   4.296   1.620  2.0104  0.2140 -3.8308
 3313THY    HP382809   1.899   4.420   1.505  1.1700  1.4858  1.4477
 3313THY    HP482810   1.835   4.463   1.658  1.7692 -0.5051  1.2755
 3313THY    CP382811   1.653   4.251   1.655  0.3226  0.5077  0.6855
 3313THY    HP582812   1.644   4.322   1.738 -0.2567  0.2408  0.8550
 3313THY    HP682813   1.554   4.206   1.640  0.6068  0.8186 -2.9728
 3313THY    HP782814   1.730   4.174   1.673  0.3311 -0.0937 -1.6075
 3313THY    CA382815   1.526   4.518   1.541 -0.8572 -0.4423  0.2993
 3313THY    HA382816   1.507   4.506   1.648  1.4230  1.3784  1.0247
 3313THY    CA482817   1.455   4.625   1.473  0.0365 -0.7050 -0.1355
 3313THY    HA482818   1.380   4.683   1.526 -0.4405 -0.2673 -1.2818
 3313THY    CA582819   1.481   4.663   1.337 -0.5834 -0.5230  0.2238
 3313THY    CM182820   1.401   4.774   1.269 -0.0239 -0.3860  0.6590
 3313THY    HM182821   1.475   4.854   1.259  1.0912 -1.4998 -0.2638
 3313THY    HM282822   1.354   4.738   1.177 -0.2468  0.7877  0.3001
 3313THY    HM382823   1.320   4.797   1.340 -2.3787  1.0270 -2.2505
 3313THY    CA682824   1.583   4.594   1.278  0.6308 -0.1071  0.8943
 3313THY    HA682825   1.603   4.628   1.177  0.0010 -1.4417  0.3011
 3314THY      O82826   3.240   5.406   9.714 -0.0611  0.0811 -0.0781
 3314THY     HO82827   3.158   5.421   9.764 -0.9800 -1.3212 -1.0832
 3314THY    CA182828   3.312   5.516   9.750 -0.8624 -0.0653  1.1951
 3314THY    CA282829   3.396   5.582   9.652 -0.0726 -0.3659  0.1486
 3314THY    CP182830   3.415   5.516   9.517 -0.0142 -0.1200  0.9101
 3314THY    HP182831   3.342   5.437   9.493  2.0191 -2.1901  1.2002
 3314THY    CP282832   3.397   5.630   9.408 -0.1585 -0.2565  0.5848
 3314THY    HP282833   3.464   5.718   9.411  0.4166 -0.6707  0.1053
 3314THY    HP382834   3.401   5.588   9.307  1.1457 -0.1898  0.5916
 3314THY    HP482835   3.296   5.672   9.405  0.0915  0.2798 -1.3056
 3314THY    CP382836   3.555   5.453   9.504 -0.0779  0.1039  0.7183
 3314THY    HP582837   3.581   5.374   9.576  1.1364 -0.7199 -0.5677
 3314THY    HP682838   3.574   5.416   9.402  0.5943  1.9282  0.1446
 3314THY    HP782839   3.631   5.530   9.520  1.0842 -0.6464 -0.8871
 3314THY    CA382840   3.471   5.697   9.685  0.5673 -0.7251  0.0702
 3314THY    HA382841   3.529   5.751   9.610  0.7200  0.5677  1.0775
 3314THY    CA482842   3.476   5.737   9.823 -0.4435 -0.8378 -0.3220
 3314THY    HA482843   3.534   5.820   9.861 -1.9170 -0.7382  1.9224
 3314THY    CA582844   3.389   5.676   9.914  0.4073  0.6195 -0.6225
 3314THY    CM182845   3.381   5.723  10.057 -0.1747 -0.1909  0.2170
 3314THY    HM182846   3.430   5.651  10.124 -1.9594 -0.4170  1.3535
 3314THY    HM282847   3.422   5.821  10.084 -2.7801  0.0581  4.1911
 3314THY    HM382848   3.279   5.740  10.094  0.2362 -1.2968  1.9445
 3314THY    CA682849   3.313   5.560   9.877 -0.1107 -0.2845  0.4494
 3314THY    HA682850   3.263   5.506   9.958  3.5623 -0.7229  2.6421
 3315THY      O82851   2.311   2.902   1.598  0.2643  0.3808 -0.2190
 3315THY     HO82852   2.265   2.821   1.572  1.0045 -0.3867  0.7763
 3315THY    CA182853   2.443   2.867   1.608 -0.7305 -0.6222 -0.4097
 3315THY    CA282854   2.525   2.903   1.717  0.3034  0.3104  0.3336
 3315THY    CP182855   2.471   2.985   1.836 -0.2960 -0.9321 -0.3164
 3315THY    HP182856   2.369   3.022   1.817  0.5902  1.3787 -0.9442
 3315THY    CP282857   2.475   2.915   1.972 -0.1915 -0.0736 -0.6109
 3315THY    HP282858   2.459   2.975   2.062 -0.7442 -0.1411 -0.6624
 3315THY    HP382859   2.408   2.829   1.989 -1.7608  1.5561  2.2713
 3315THY    HP482860   2.565   2.853   1.976 -1.3724 -1.9046 -1.1531
 3315THY    CP382861   2.547   3.130   1.853 -0.0882  0.1227 -0.1975
 3315THY    HP582862   2.531   3.180   1.949 -0.7586  0.1646 -0.3291
 3315THY    HP682863   2.654   3.105   1.854  0.8401  3.4960 -1.5175
 3315THY    HP782864   2.537   3.187   1.760  0.7930 -0.5296 -0.7073
 3315THY    CA382865   2.659   2.859   1.715  0.2834 -0.1994  0.1367
 3315THY    HA382866   2.718   2.887   1.801 -1.2226  1.3475  0.7310
 3315THY    CA482867   2.709   2.786   1.608 -0.4976 -0.5015 -0.4849
 3315THY    HA482868   2.814   2.762   1.614  0.2018  2.0102 -1.2503
 3315THY    CA582869   2.626   2.756   1.499  0.4489 -0.3161  0.5028
 3315THY    CM182870   2.682   2.686   1.370  0.4410 -0.1579  0.7611
 3315THY    HM182871   2.775   2.634   1.394 -0.3541 -2.6817 -1.2706
 3315THY    HM282872   2.609   2.622   1.321  0.6998  0.8667 -1.0435
 3315THY    HM382873   2.707   2.761   1.294 -2.0830 -1.3515 -1.4064
 3315THY    CA682874   2.494   2.794   1.502  0.1525  0.0766  0.6291
 3315THY    HA682875   2.430   2.774   1.417  3.3012  0.6696 -2.0418
 3316THY      O82876   9.126   2.679   7.581  0.1438  0.4555  0.3399
 3316THY     HO82877   9.219   2.662   7.602 -0.5533 -1.8737  1.9910
 3316THY    CA182878   9.085   2.597   7.484 -0.0360  0.6011  0.1646
 3316THY    CA282879   8.949   2.586   7.463  0.4727 -0.1166  0.2348
 3316THY    CP182880   8.854   2.687   7.526  0.4545 -0.2306  0.6714
 3316THY    HP182881   8.910   2.771   7.568  2.8650 -1.6522  0.5624
 3316THY    CP282882   8.749   2.749   7.434  0.4942  0.1985 -0.1575
 3316THY    HP282883   8.798   2.810   7.356  0.5421 -0.6417 -0.7968
 3316THY    HP382884   8.672   2.687   7.386 -0.1744  0.7005  0.2433
 3316THY    HP482885   8.694   2.815   7.502 -2.1815 -3.9739  2.1517
 3316THY    CP382886   8.775   2.623   7.635  0.1343  0.0245  0.1857
 3316THY    HP582887   8.716   2.699   7.689 -0.5697  0.0019 -0.5303
 3316THY    HP682888   8.697   2.555   7.598 -0.6262  1.1465 -0.3327
 3316THY    HP782889   8.834   2.556   7.698  0.4664 -0.4570 -0.6182
 3316THY    CA382890   8.903   2.500   7.364 -0.4207 -0.1950 -0.5286
 3316THY    HA382891   8.798   2.508   7.339 -1.1899 -1.0519  2.0428
 3316THY    CA482892   8.993   2.406   7.304 -0.5192 -0.1751 -0.0631
 3316THY    HA482893   8.968   2.336   7.225 -0.0339 -1.2488  0.7057
 3316THY    CA582894   9.130   2.408   7.337 -0.5107  0.4458 -0.2664
 3316THY    CM182895   9.226   2.307   7.286  0.2852  0.2696 -0.0682
 3316THY    HM182896   9.330   2.340   7.296  0.2925  1.1501 -2.4026
 3316THY    HM282897   9.205   2.216   7.342 -1.3103  1.8287  2.0249
 3316THY    HM382898   9.215   2.260   7.187 -0.3337 -2.3205  1.1650
 3316THY    CA682899   9.174   2.499   7.434 -0.5015 -0.7212  0.0719
 3316THY    HA682900   9.277   2.499   7.468 -0.5173  0.6384  0.1589
 3317THY      O82901   5.219   0.780   5.543  0.0628 -0.2556 -0.1136
 3317THY     HO82902   5.128   0.778   5.510 -0.6398  0.3042  1.7031
 3317THY    CA182903   5.253   0.909   5.521 -0.3372 -0.0009 -0.4121
 3317THY    CA282904   5.374   0.962   5.578 -1.3426 -0.3141  0.1198
 3317THY    CP182905   5.464   0.867   5.659 -0.1410 -0.2369  0.2956
 3317THY    HP182906   5.419   0.774   5.694  0.6528 -0.1462  1.6212
 3317THY    CP282907   5.588   0.825   5.583  0.0187 -0.0884  0.4026
 3317THY    HP282908   5.643   0.915   5.554  0.0283 -0.3289 -0.3434
 3317THY    HP382909   5.649   0.757   5.645 -0.5342 -0.3366  0.6808
 3317THY    HP482910   5.551   0.770   5.496  0.5913 -1.1967  0.8330
 3317THY    CP382911   5.493   0.936   5.789 -0.3739 -0.1449  0.0561
 3317THY    HP582912   5.402   0.970   5.840  0.4126 -1.6235  2.6073
 3317THY    HP682913   5.548   0.869   5.856 -1.5626 -1.1434  0.0660
 3317THY    HP782914   5.540   1.034   5.772 -2.3316  0.6249 -1.2889
 3317THY    CA382915   5.395   1.099   5.564 -0.4284  0.5940 -0.2411
 3317THY    HA382916   5.482   1.146   5.607  0.2866 -2.4321  1.9596
 3317THY    CA482917   5.307   1.173   5.494  0.5150 -0.1541 -0.0959
 3317THY    HA482918   5.329   1.278   5.477 -0.9894  0.4567  1.4968
 3317THY    CA582919   5.189   1.120   5.437  0.3117 -0.1642 -0.3596
 3317THY    CM182920   5.096   1.206   5.349  0.3056 -0.0993 -0.4799
 3317THY    HM182921   4.990   1.181   5.359  0.6499 -1.1033  0.8406
 3317THY    HM282922   5.099   1.310   5.385 -1.9774 -0.2691  0.3155
 3317THY    HM382923   5.121   1.204   5.242 -0.0615 -1.1429 -0.5514
 3317THY    CA682924   5.167   0.977   5.436 -0.2129  0.0372  0.0421
 3317THY    HA682925   5.083   0.929   5.389  0.7118 -0.6914 -0.9068
 3318THY      O82926   0.991   3.916   8.867  0.3930 -0.1071 -0.0827
 3318THY     HO82927   0.901   3.943   8.894  0.7253 -1.2747  2.5771
 3318THY    CA182928   0.998   3.897   8.733  0.4665  0.8586  0.0640
 3318THY    CA282929   1.120   3.897   8.668  0.0828  0.3541 -0.5675
 3318THY    CP182930   1.248   3.920   8.756 -0.0751 -0.2020 -0.5145
 3318THY    HP182931   1.224   3.968   8.851 -2.2054  0.7709 -1.4764
 3318THY    CP282932   1.300   3.777   8.795  0.6084  0.7141 -0.0122
 3318THY    HP282933   1.285   3.710   8.710  3.6198  1.3359 -1.1733
 3318THY    HP382934   1.407   3.771   8.818  0.6015  1.3543  0.2132
 3318THY    HP482935   1.246   3.724   8.875  0.7441  0.6533  0.0402
 3318THY    CP382936   1.350   4.011   8.689 -0.0612  0.3618 -0.4659
 3318THY    HP582937   1.375   3.973   8.589  0.6719  0.9887 -0.5337
 3318THY    HP682938   1.313   4.113   8.671 -0.5761  0.6327  1.8614
 3318THY    HP782939   1.442   4.025   8.747 -0.8824  2.5995  0.3761
 3318THY    CA382940   1.126   3.869   8.531 -0.3233  0.4432  0.7491
 3318THY    HA382941   1.216   3.858   8.471 -3.4633  0.0600 -4.5954
 3318THY    CA482942   1.010   3.843   8.463 -0.2371  0.0232  0.0992
 3318THY    HA482943   1.011   3.808   8.360 -2.8372  0.5633 -0.1834
 3318THY    CA582944   0.887   3.856   8.529 -0.0382  0.3177  0.5834
 3318THY    CM182945   0.760   3.827   8.447 -0.2100  0.1891 -0.1823
 3318THY    HM182946   0.779   3.727   8.405  0.9787 -0.7642  2.4294
 3318THY    HM282947   0.662   3.846   8.493 -0.0521  0.4517  0.0439
 3318THY    HM382948   0.759   3.905   8.370 -0.8194  0.8504  0.4902
 3318THY    CA682949   0.878   3.874   8.665 -0.1282  0.4270  0.0766
 3318THY    HA682950   0.788   3.853   8.723  0.6889 -0.7997  0.9468
 3319THY      O82951   0.854   7.315   5.651  0.0151  0.3729  0.0264
 3319THY     HO82952   0.926   7.326   5.586 -0.9188 -1.4161 -1.3929
 3319THY    CA182953   0.801   7.195   5.612 -0.2370 -0.0660 -0.0465
 3319THY    CA282954   0.679   7.155   5.651  0.9718  0.3998  0.4669
 3319THY    CP182955   0.589   7.249   5.728 -0.1075  0.6251  0.5436
 3319THY    HP182956   0.633   7.349   5.729 -0.3416  0.8595 -2.3755
 3319THY    CP282957   0.455   7.265   5.664  0.1685  0.1279 -0.0803
 3319THY    HP282958   0.480   7.292   5.561 -1.8491 -0.7510 -0.8384
 3319THY    HP382959   0.391   7.176   5.670 -3.0758  2.3994  2.8041
 3319THY    HP482960   0.403   7.351   5.708 -0.1564  0.3474 -0.8858
 3319THY    CP382961   0.579   7.202   5.872  0.4455 -0.8627  0.0355
 3319THY    HP582962   0.513   7.115   5.884  0.3408 -0.9481 -1.0803
 3319THY    HP682963   0.678   7.199   5.919  0.6642 -3.0198 -0.4386
 3319THY    HP782964   0.514   7.275   5.922 -0.1040  0.4474 -2.4613
 3319THY    CA382965   0.633   7.025   5.618 -0.5679 -0.2106  0.3701
 3319THY    HA382966   0.538   6.992   5.659 -0.7304  1.9094  1.8734
 3319THY    CA482967   0.714   6.942   5.531 -0.0621 -0.6019  0.9633
 3319THY    HA482968   0.681   6.843   5.500 -0.1918  0.5756 -3.3713
 3319THY    CA582969   0.838   6.988   5.492 -0.0160 -0.4830  0.8441
 3319THY    CM182970   0.929   6.908   5.414  0.0263  0.3319  0.2923
 3319THY    HM182971   0.952   6.971   5.328  1.0213 -0.6032 -0.1548
 3319THY    HM282972   1.015   6.882   5.477 -1.1770 -1.3077  1.3447
 3319THY    HM382973   0.874   6.824   5.371 -2.7339  1.1906  1.8889
 3319THY    CA682974   0.879   7.113   5.533 -0.7205 -0.5673  0.5682
 3319THY    HA682975   0.972   7.155   5.496 -1.8209  1.3246 -0.1976
 3320THY      O82976   1.266   5.696   5.897  0.3836 -0.5110  0.2730
 3320THY     HO82977   1.352   5.683   5.940  0.5057 -2.1523 -0.3836
 3320THY    CA182978   1.189   5.799   5.952 -0.1190  0.3376  0.0366
 3320THY    CA282979   1.062   5.824   5.907 -0.0663  0.1912  0.0812
 3320THY    CP182980   0.989   5.739   5.803 -0.1674  0.0338 -0.3397
 3320THY    HP182981   1.051   5.649   5.794  1.6793  1.2766 -0.8257
 3320THY    CP282982   0.850   5.697   5.856 -0.3186  0.2015 -0.3127
 3320THY    HP282983   0.863   5.664   5.960  4.1032  1.9756 -0.0743
 3320THY    HP382984   0.771   5.771   5.837 -0.2023  0.6107  0.7337
 3320THY    HP482985   0.812   5.612   5.799 -2.3274 -1.1064  2.6712
 3320THY    CP382986   0.977   5.807   5.662  0.8216 -0.0129 -0.4176
 3320THY    HP582987   0.875   5.833   5.631  0.8658 -0.3521 -0.8460
 3320THY    HP682988   1.034   5.900   5.667  0.5520  0.2693 -2.0555
 3320THY    HP782989   1.020   5.745   5.583 -0.6953  1.3772 -2.4199
 3320THY    CA382990   0.983   5.926   5.960 -0.4195 -0.8485  0.2120
 3320THY    HA382991   0.884   5.944   5.919  0.4229 -1.8807 -2.4666
 3320THY    CA482992   1.041   6.012   6.054 -0.0686 -0.1446 -0.7740
 3320THY    HA482993   0.986   6.098   6.091  2.1660  1.2733 -0.5951
 3320THY    CA582994   1.171   5.993   6.102 -0.0626  0.1260  0.5828
 3320THY    CM182995   1.224   6.068   6.216 -0.0372 -0.1658  0.6651
 3320THY    HM182996   1.279   6.154   6.175 -0.1064 -0.2627  0.3675
 3320THY    HM282997   1.136   6.104   6.271 -1.4913 -2.7132  0.1561
 3320THY    HM382998   1.292   6.010   6.279 -1.3640 -0.4985  1.8344
 3320THY    CA682999   1.241   5.878   6.055 -0.2761 -0.6348  0.9048
 3320THY    HA683000   1.338   5.848   6.093  0.7576  0.5388 -0.6813
 3321THY      O83001   2.228   0.740   8.213 -0.3134  0.4047 -0.5448
 3321THY     HO83002   2.154   0.760   8.153 -1.8078 -0.4242  0.9112
 3321THY    CA183003   2.332   0.739   8.126  0.0958  0.7146  0.4904
 3321THY    CA283004   2.456   0.688   8.172  0.4947  0.1185  0.4308
 3321THY    CP183005   2.470   0.637   8.319  0.2110  0.2120  0.1380
 3321THY    HP183006   2.404   0.701   8.381 -0.2431 -1.5412  1.5488
 3321THY    CP283007   2.407   0.494   8.324  0.3136  0.0362  0.8035
 3321THY    HP283008   2.469   0.423   8.268  1.0857  0.3549  1.2496
 3321THY    HP383009   2.407   0.447   8.422  1.2099  0.2051  0.8935
 3321THY    HP483010   2.305   0.493   8.282  0.9640  2.5862 -1.0573
 3321THY    CP383011   2.605   0.645   8.378  1.2239 -0.2669  0.1539
 3321THY    HP583012   2.631   0.751   8.371 -3.6808  1.1011 -0.7291
 3321THY    HP683013   2.595   0.614   8.483  1.3883  1.7277  0.7878
 3321THY    HP783014   2.684   0.589   8.326 -0.8029 -2.2815 -0.9520
 3321THY    CA383015   2.567   0.696   8.088 -0.8922 -0.2950  0.2236
 3321THY    HA383016   2.670   0.672   8.111 -0.5772 -0.6070 -1.3761
 3321THY    CA483017   2.541   0.737   7.953 -0.2040  0.0716 -0.4595
 3321THY    HA483018   2.623   0.743   7.882  1.4285 -0.5976  1.2814
 3321THY    CA583019   2.417   0.785   7.909 -0.3746  0.5641  0.0554
 3321THY    CM183020   2.393   0.861   7.782  0.0817 -0.0307  0.3840
 3321THY    HM183021   2.351   0.960   7.802  1.1603  0.6354 -0.5216
 3321THY    HM283022   2.489   0.876   7.731  0.0036 -4.3800 -1.5041
 3321THY    HM383023   2.320   0.820   7.711 -1.6740  0.3355  1.9269
 3321THY    CA683024   2.310   0.791   7.997  0.0133 -0.2568 -0.9375
 3321THY    HA683025   2.213   0.833   7.974 -0.0786 -0.4833 -0.9615
 3322THY      O83026   1.023   5.263   7.942  0.0829 -0.1413 -0.3859
 3322THY     HO83027   1.017   5.174   7.904 -1.8549  0.9466 -2.8975
 3322THY    CA183028   0.934   5.341   7.871  0.2129  0.1369  0.1804
 3322THY    CA283029   0.883   5.462   7.925  0.5069 -0.6032 -0.4945
 3322THY    CP183030   0.918   5.502   8.064 -0.2218 -0.2393 -0.0135
 3322THY    HP183031   0.991   5.436   8.112  0.0839 -0.2544 -0.4875
 3322THY    CP283032   0.985   5.639   8.060  0.5125 -0.3554  0.4022
 3322THY    HP283033   1.078   5.622   8.004 -0.0321 -0.9754 -0.3460
 3322THY    HP383034   0.927   5.709   7.999  0.7733 -2.1122 -2.0479
 3322THY    HP483035   1.004   5.676   8.161  1.0775  0.7605 -0.1033
 3322THY    CP383036   0.796   5.527   8.153 -0.2716  0.6780  0.1330
 3322THY    HP583037   0.749   5.431   8.177  1.1890 -0.1655 -0.2407
 3322THY    HP683038   0.823   5.562   8.253 -0.8951  0.6360  0.3197
 3322THY    HP783039   0.732   5.599   8.101 -0.7937  0.0029 -0.1878
 3322THY    CA383040   0.789   5.547   7.852 -0.3311  0.8395 -0.5303
 3322THY    HA383041   0.755   5.647   7.878 -0.5906  0.3889  0.9885
 3322THY    CA483042   0.753   5.491   7.733  0.2516  0.6328  0.8833
 3322THY    HA483043   0.685   5.553   7.676  0.2849 -0.7862 -0.7840
 3322THY    CA583044   0.820   5.382   7.670 -0.1438 -0.0343  0.3539
 3322THY    CM183045   0.791   5.353   7.519  0.3495 -0.1056 -0.3700
 3322THY    HM183046   0.702   5.413   7.493 -0.2201  0.3726  2.4147
 3322THY    HM283047   0.865   5.393   7.449  1.6015 -2.9521 -0.7835
 3322THY    HM383048   0.775   5.246   7.505 -2.7481  0.0189  1.2882
 3322THY    CA683049   0.904   5.301   7.742 -0.5297  0.2533  0.1015
 3322THY    HA683050   0.937   5.208   7.697 -0.4368 -0.0915  0.8665
 3323THY      O83051   0.256   0.948   3.867  0.2393  0.3901  0.5122
 3323THY     HO83052   0.247   1.031   3.816 -0.9007  0.1463  0.2871
 3323THY    CA183053   0.358   0.974   3.953  0.1724 -0.0494 -0.4229
 3323THY    CA283054   0.370   0.909   4.079 -0.2070 -0.4509 -0.0154
 3323THY    CP183055   0.270   0.807   4.122  0.3909 -0.4574  0.1011
 3323THY    HP183056   0.195   0.797   4.042 -0.0320  0.7232  0.3341
 3323THY    CP283057   0.334   0.670   4.147 -0.4079  0.9661  0.1397
 3323THY    HP283058   0.396   0.654   4.236 -1.5999 -2.1550  0.5191
 3323THY    HP383059   0.254   0.596   4.142 -0.5705  1.1635 -0.3050
 3323THY    HP483060   0.401   0.645   4.064 -0.6975 -0.8483  0.4265
 3323THY    CP383061   0.189   0.831   4.256 -0.0686  0.8151 -0.4454
 3323THY    HP583062   0.151   0.933   4.269  1.2877  1.3706 -0.6920
 3323THY    HP683063   0.105   0.764   4.279  1.7393 -1.9852 -1.6409
 3323THY    HP783064   0.250   0.818   4.347  2.2883 -0.2487 -2.0842
 3323THY    CA383065   0.468   0.940   4.175  0.5133 -0.0315 -0.0213
 3323THY    HA383066   0.470   0.886   4.269 -1.7384 -1.9434 -0.9672
 3323THY    CA483067   0.559   1.041   4.135  0.5517 -0.9749  0.9298
 3323THY    HA483068   0.645   1.060   4.198  1.2141 -0.4458 -0.1056
 3323THY    CA583069   0.548   1.097   4.004 -0.7941 -0.6396  0.1057
 3323THY    CM183070   0.640   1.212   3.971 -0.6342 -0.6637 -0.2272
 3323THY    HM183071   0.666   1.267   4.063 -0.7188 -1.1433  0.0894
 3323THY    HM283072   0.729   1.161   3.933 -1.2195 -1.8322 -0.0501
 3323THY    HM383073   0.595   1.280   3.897 -1.2599 -0.3531  0.4246
 3323THY    CA683074   0.444   1.070   3.917 -0.6467 -0.4227 -0.0270
 3323THY    HA683075   0.435   1.115   3.819 -0.6586  1.1345  0.6636
 3324THY      O83076   9.137   2.193   9.576 -0.3870 -0.3143 -0.0484
 3324THY     HO83077   9.055   2.155   9.613  1.1920 -1.8354  2.1585
 3324THY    CA183078   9.125   2.234   9.447 -0.8635 -0.3046 -0.4207
 3324THY    CA283079   9.236   2.284   9.381 -0.0741 -0.2402 -0.9695
 3324THY    CP183080   9.361   2.329   9.461  0.6328 -0.5479 -0.7376
 3324THY    HP183081   9.318   2.344   9.561 -0.5882 -0.1530 -1.3086
 3324THY    CP283082   9.467   2.228   9.467 -0.5003  0.4437  0.0083
 3324THY    HP283083   9.493   2.204   9.363  2.8927 -0.3704  0.9133
 3324THY    HP383084   9.559   2.240   9.526 -1.1141 -1.2430  1.3966
 3324THY    HP483085   9.423   2.138   9.511 -0.6895  0.1361 -0.7965
 3324THY    CP383086   9.417   2.463   9.409  0.0143 -0.2350  0.0727
 3324THY    HP583087   9.338   2.538   9.396  1.6821  1.4746 -0.7347
 3324THY    HP683088   9.472   2.506   9.494  0.2736 -0.1840 -0.1210
 3324THY    HP783089   9.472   2.457   9.314 -1.4297 -0.8715 -0.7488
 3324THY    CA383090   9.234   2.298   9.242 -0.2123  0.5098 -0.5850
 3324THY    HA383091   9.320   2.333   9.187  0.7750 -0.0125  0.5722
 3324THY    CA483092   9.124   2.266   9.171 -0.0935  0.2530 -0.4675
 3324THY    HA483093   9.122   2.274   9.063 -1.7376 -0.1006 -0.4916
 3324THY    CA583094   9.008   2.223   9.234  0.2233  0.9549  0.2088
 3324THY    CM183095   8.883   2.208   9.163 -0.3115 -0.5722 -0.3341
 3324THY    HM183096   8.792   2.215   9.223 -1.0152  0.4391 -1.4584
 3324THY    HM283097   8.881   2.272   9.073  2.2284 -0.2361 -0.2148
 3324THY    HM383098   8.873   2.105   9.125 -0.0240 -0.5015 -0.6035
 3324THY    CA683099   9.009   2.204   9.371 -0.0115 -0.0586  0.2813
 3324THY    HA683100   8.915   2.168   9.414  0.0767 -0.1205  0.4221
 3325THY      O83101   1.163   7.545   3.764 -0.1798 -0.1355 -0.4865
 3325THY     HO83102   1.249   7.562   3.806 -1.2035  0.1775  1.6102
 3325THY    CA183103   1.194   7.526   3.634 -0.4224  0.4486 -0.3668
 3325THY    CA283104   1.109   7.463   3.546 -0.1191  0.6060 -0.4171
 3325THY    CP183105   0.962   7.427   3.580 -0.7032  0.0513  0.6590
 3325THY    HP183106   0.922   7.472   3.671 -2.5863  0.7218 -0.4660
 3325THY    CP283107   0.874   7.492   3.476  0.2371  0.1787 -0.1600
 3325THY    HP283108   0.771   7.478   3.510 -0.2073  2.6761 -0.2869
 3325THY    HP383109   0.889   7.601   3.472 -1.4359  0.4263 -0.5600
 3325THY    HP483110   0.881   7.452   3.375  0.9475  1.6373 -0.7280
 3325THY    CP383111   0.933   7.271   3.568  0.0786  0.4601  0.3832
 3325THY    HP583112   0.981   7.226   3.656  1.7136  0.7374 -0.3234
 3325THY    HP683113   0.824   7.260   3.570  0.1014  0.2150  0.2846
 3325THY    HP783114   0.971   7.218   3.480 -0.4378  0.6539  0.0381
 3325THY    CA383115   1.150   7.447   3.412 -0.1664 -0.8919  0.2525
 3325THY    HA383116   1.097   7.396   3.332  1.6295  0.7477 -2.1097
 3325THY    CA483117   1.280   7.480   3.377  0.7053  0.7282  0.3713
 3325THY    HA483118   1.315   7.460   3.276 -0.7100  1.6726 -0.3323
 3325THY    CA583119   1.360   7.560   3.458 -0.3733  0.1373 -0.2303
 3325THY    CM183120   1.504   7.583   3.425 -0.4366 -0.2369 -0.0748
 3325THY    HM183121   1.521   7.688   3.451  0.0214 -0.3478  0.0883
 3325THY    HM283122   1.568   7.517   3.484  1.6695 -0.5499 -2.5521
 3325THY    HM383123   1.527   7.570   3.318  0.3085 -0.0473  0.0543
 3325THY    CA683124   1.317   7.581   3.591  0.5415  0.9832 -0.0395
 3325THY    HA683125   1.375   7.636   3.665 -1.7820  1.0742  1.8795
 3326THY      O83126   6.779   8.524   2.417 -0.3173 -0.2526  0.3496
 3326THY     HO83127   6.769   8.590   2.346 -0.3003 -0.2356  0.3632
 3326THY    CA183128   6.874   8.582   2.489 -0.0145  0.6392  0.3853
 3326THY    CA283129   6.927   8.527   2.603 -0.0979  0.6676  0.0787
 3326THY    CP183130   6.882   8.380   2.656  0.3036  0.2330  0.0304
 3326THY    HP183131   6.820   8.337   2.577  2.2779 -1.0461 -0.9051
 3326THY    CP283132   6.994   8.278   2.660  0.0769  0.4278  0.0822
 3326THY    HP283133   7.015   8.247   2.556  1.6041 -2.4050  1.1217
 3326THY    HP383134   7.089   8.291   2.713  1.7931 -1.8764 -2.1472
 3326THY    HP483135   6.955   8.187   2.708  0.5143 -0.0883 -0.5209
 3326THY    CP383136   6.803   8.393   2.792  0.3612 -0.2283  0.2117
 3326THY    HP583137   6.857   8.385   2.887 -1.3545 -0.2412  1.2257
 3326THY    HP683138   6.758   8.493   2.793 -0.0678 -0.3965 -0.7318
 3326THY    HP783139   6.726   8.315   2.805 -0.2279  0.3688  0.3548
 3326THY    CA383140   7.030   8.601   2.670 -0.5754  0.4551 -0.0831
 3326THY    HA383141   7.078   8.555   2.756 -0.3054  2.1729  0.7357
 3326THY    CA483142   7.081   8.720   2.617  0.2438 -0.4490 -0.7849
 3326THY    HA483143   7.179   8.750   2.653  0.1020 -1.2382  0.3140
 3326THY    CA583144   6.999   8.794   2.524  0.0136  0.5263 -1.0153
 3326THY    CM183145   7.014   8.934   2.489 -0.2710 -0.0518 -0.3885
 3326THY    HM183146   7.084   8.981   2.559 -1.1453 -0.2010  0.6155
 3326THY    HM283147   7.051   8.939   2.386 -0.1840 -1.8980 -0.4760
 3326THY    HM383148   6.925   8.999   2.494  0.2157  0.7720 -1.9134
 3326THY    CA683149   6.895   8.718   2.464  0.0932 -0.5201  0.1276
 3326THY    HA683150   6.832   8.764   2.389  0.0637 -0.9867 -0.1328
 3327THY      O83151   9.592   4.799   7.729 -0.0196  0.4241  0.8873
 3327THY     HO83152   9.644   4.870   7.688  1.3393 -1.4336 -0.8094
 3327THY    CA183153   9.557   4.838   7.852  0.1464  0.0067  0.0948
 3327THY    CA283154   9.554   4.752   7.965  0.8852  0.2738  0.1397
 3327THY    CP183155   9.575   4.605   7.931 -0.4179 -0.1872 -0.5018
 3327THY    HP183156   9.538   4.586   7.830 -2.5789  2.3228 -0.2874
 3327THY    CP283157   9.728   4.576   7.942  1.0966  0.5465 -0.0795
 3327THY    HP283158   9.753   4.529   8.038 -0.5662 -1.2571 -0.4643
 3327THY    HP383159   9.767   4.506   7.867  0.1659  0.4992 -0.5302
 3327THY    HP483160   9.779   4.670   7.916 -1.0639  2.0982  1.0141
 3327THY    CP383161   9.491   4.514   8.028 -0.2435 -0.0518  0.2357
 3327THY    HP583162   9.507   4.520   8.137 -0.9157  1.5276  0.2737
 3327THY    HP683163   9.386   4.531   8.006  0.2882 -0.4698 -3.0469
 3327THY    HP783164   9.505   4.407   8.009  2.9080  0.1979  0.5414
 3327THY    CA383165   9.525   4.800   8.092  0.2706  0.6158  0.1282
 3327THY    HA383166   9.532   4.735   8.179  0.7890 -0.3565 -0.6197
 3327THY    CA483167   9.493   4.934   8.108 -0.0797 -0.6771 -1.2067
 3327THY    HA483168   9.476   4.974   8.208 -0.3481 -0.9555 -1.1389
 3327THY    CA583169   9.471   5.017   7.999 -0.0609  0.3824 -0.9434
 3327THY    CM183170   9.420   5.156   8.024 -0.2646 -0.1006 -0.1498
 3327THY    HM183171   9.337   5.184   7.957 -0.3698  0.7815  0.3408
 3327THY    HM283172   9.385   5.162   8.128  0.3220  1.8178 -0.0442
 3327THY    HM383173   9.501   5.228   8.020 -0.4278  0.2254  1.6074
 3327THY    CA683174   9.511   4.970   7.870  0.3761  0.0644  0.2342
 3327THY    HA683175   9.511   5.044   7.791  0.3963  0.3450  0.4931
 3328THY      O83176   5.896   0.506   8.035  0.1880  0.7739 -0.8656
 3328THY     HO83177   5.814   0.455   8.019  0.8009 -0.4008 -0.3860
 3328THY    CA183178   5.980   0.429   8.110  0.5729 -0.3503  0.7350
 3328THY    CA283179   6.118   0.456   8.122 -0.5044 -0.3799  1.1720
 3328THY    CP183180   6.181   0.572   8.052  0.2679 -0.2976 -0.0412
 3328THY    HP183181   6.103   0.635   8.007  0.2907 -0.7149 -0.6739
 3328THY    CP283182   6.270   0.664   8.144  0.7780  0.3901  0.1055
 3328THY    HP283183   6.209   0.689   8.232 -0.2909 -1.8346  0.0646
 3328THY    HP383184   6.349   0.602   8.187 -0.9958 -0.3327  2.5708
 3328THY    HP483185   6.303   0.753   8.090  0.0406  0.7991  0.3192
 3328THY    CP383186   6.264   0.530   7.933  0.6358  0.3180 -0.2710
 3328THY    HP583187   6.338   0.605   7.902  0.7921  0.9122  1.4506
 3328THY    HP683188   6.327   0.446   7.965 -1.8995 -1.5811  0.0126
 3328THY    HP783189   6.204   0.493   7.849  0.5496  0.5876 -0.3289
 3328THY    CA383190   6.187   0.373   8.212  0.3938  0.9571 -0.2948
 3328THY    HA383191   6.295   0.384   8.212  0.4602  1.0473 -3.0806
 3328THY    CA483192   6.132   0.277   8.292  0.8866 -0.2836 -0.3000
 3328THY    HA483193   6.187   0.227   8.371  0.8318 -0.5388 -0.4243
 3328THY    CA583194   5.997   0.250   8.273  0.7609 -0.9082 -1.0956
 3328THY    CM183195   5.938   0.141   8.349  0.8247 -0.2028 -0.3862
 3328THY    HM183196   6.014   0.079   8.399  1.4036 -1.0946 -2.2902
 3328THY    HM283197   5.878   0.185   8.430  1.7391 -0.5417  0.5013
 3328THY    HM383198   5.862   0.096   8.284 -0.2039  1.6394 -0.5317
 3328THY    CA683199   5.921   0.319   8.179 -0.0212  1.0323 -0.0637
 3328THY    HA683200   5.815   0.295   8.171  0.8071 -3.0179 -1.5769
 3329THY      O83201   1.267   5.044   2.119  0.0682  0.3139  0.2264
 3329THY     HO83202   1.346   5.063   2.066  0.7347  0.0254  1.0857
 3329THY    CA183203   1.250   4.913   2.114  0.2351 -0.1872 -0.0029
 3329THY    CA283204   1.174   4.842   2.208 -0.0747  0.0054  0.4913
 3329THY    CP183205   1.107   4.916   2.327  0.2091  0.3665 -0.2593
 3329THY    HP183206   1.179   4.994   2.355 -1.1593  1.3899  0.5544
 3329THY    CP283207   0.980   4.990   2.279  0.1430  0.4949  0.2930
 3329THY    HP283208   0.989   5.030   2.177  1.6471  1.1429  0.6569
 3329THY    HP383209   0.896   4.920   2.283  0.6572 -0.1378  0.2368
 3329THY    HP483210   0.958   5.083   2.333  0.8746  0.1888  1.1429
 3329THY    CP383211   1.079   4.832   2.443 -0.4576 -0.2363 -0.2177
 3329THY    HP583212   1.166   4.768   2.455  0.4127  0.7663 -1.0585
 3329THY    HP683213   1.077   4.892   2.535  0.7857  0.6164 -0.7272
 3329THY    HP783214   0.991   4.766   2.441 -1.1659  0.5796  1.3336
 3329THY    CA383215   1.144   4.706   2.174  0.3208  0.0119  0.2298
 3329THY    HA383216   1.089   4.641   2.241  2.4935  0.0254  2.1677
 3329THY    CA483217   1.206   4.644   2.060  0.4162  0.1453 -0.8701
 3329THY    HA483218   1.183   4.539   2.043  0.2991  0.4354 -2.6801
 3329THY    CA583219   1.278   4.719   1.971 -0.1789 -0.3838 -0.1849
 3329THY    CM183220   1.336   4.661   1.839 -0.0606 -0.0161  0.1211
 3329THY    HM183221   1.290   4.692   1.744  0.7908  0.4012 -0.1741
 3329THY    HM283222   1.440   4.696   1.827 -0.6036  1.4403 -0.6373
 3329THY    HM383223   1.325   4.553   1.852 -0.4642  0.2644  2.6127
 3329THY    CA683224   1.285   4.858   1.993 -0.3705 -0.2450  0.5816
 3329THY    HA683225   1.343   4.911   1.918 -1.3684 -1.1587 -0.9032
 3330THY      O83226   9.904   7.269   0.871 -0.2494 -1.3101  0.0894
 3330THY     HO83227   9.833   7.324   0.834  0.6128 -0.3880 -0.2337
 3330THY    CA183228   9.873   7.230   0.998  0.2651  0.0323 -0.8960
 3330THY    CA283229   9.959   7.153   1.088  0.0344  0.3394  0.2907
 3330THY    CP183230  10.097   7.110   1.038  0.2847  0.7319 -0.4507
 3330THY    HP183231  10.102   7.134   0.931  2.1388 -0.0398 -0.5758
 3330THY    CP283232  10.205   7.206   1.100  0.2466  1.1537 -0.3467
 3330THY    HP283233  10.157   7.304   1.103 -0.5398  0.7639  0.0440
 3330THY    HP383234  10.201   7.167   1.202 -0.4949  1.4188 -0.2692
 3330THY    HP483235  10.303   7.193   1.050  0.1299 -0.9282 -0.1483
 3330THY    CP383236  10.141   6.957   1.072 -0.1123  0.0677  0.4523
 3330THY    HP583237  10.058   6.888   1.090  0.2835 -0.1588  1.5016
 3330THY    HP683238  10.205   6.918   0.992  2.7967 -1.3519  3.2369
 3330THY    HP783239  10.204   6.951   1.162 -1.1995  1.2547  1.3407
 3330THY    CA383240   9.922   7.128   1.218  0.1025 -0.2745 -0.7746
 3330THY    HA383241   9.994   7.076   1.280  0.5285 -1.2270 -2.0096
 3330THY    CA483242   9.794   7.162   1.267  0.3214 -0.1189 -1.1114
 3330THY    HA483243   9.760   7.135   1.366 -0.1750 -0.8187 -1.4652
 3330THY    CA583244   9.706   7.240   1.184 -0.6076  0.2389  0.3212
 3330THY    CM183245   9.572   7.276   1.233  0.3202  0.7150 -0.1540
 3330THY    HM183246   9.532   7.211   1.312 -1.6174 -0.0240 -1.6338
 3330THY    HM283247   9.565   7.384   1.251  2.0626  1.2424 -2.2258
 3330THY    HM383248   9.510   7.258   1.144 -0.5716  0.0302  0.5768
 3330THY    CA683249   9.743   7.266   1.052 -0.4885 -0.3593 -0.5812
 3330THY    HA683250   9.672   7.319   0.990 -1.2071 -1.2284 -0.5250
 3331THY      O83251   0.863   2.610   7.814  0.2983 -0.1905 -0.2174
 3331THY     HO83252   0.855   2.627   7.718  0.2944 -0.2838 -0.2343
 3331THY    CA183253   0.773   2.510   7.836  0.6070  0.1982  0.0970
 3331THY    CA283254   0.699   2.503   7.953  0.6783 -0.0452  0.4766
 3331THY    CP183255   0.735   2.587   8.073 -1.0643 -0.4135  0.1471
 3331THY    HP183256   0.816   2.658   8.050 -1.1343  0.0691  1.3187
 3331THY    CP283257   0.612   2.667   8.127 -0.4615 -0.1239  0.2888
 3331THY    HP283258   0.526   2.603   8.149 -0.2580 -1.1625 -1.6993
 3331THY    HP383259   0.639   2.718   8.221  2.1749 -0.7919 -0.0158
 3331THY    HP483260   0.593   2.753   8.061 -1.8756 -0.6865 -0.0723
 3331THY    CP383261   0.795   2.491   8.177 -0.1757 -0.2318  0.3959
 3331THY    HP583262   0.722   2.414   8.203  0.0546 -0.5308  0.1729
 3331THY    HP683263   0.879   2.438   8.130  1.1218  1.8616  0.2096
 3331THY    HP783264   0.838   2.533   8.268 -0.0162 -2.6522  1.5174
 3331THY    CA383265   0.589   2.408   7.965  0.8070  0.1007  0.2150
 3331THY    HA383266   0.537   2.395   8.060  2.3113  0.2911  1.1069
 3331THY    CA483267   0.562   2.322   7.851  0.7468 -0.8308  0.6377
 3331THY    HA483268   0.479   2.252   7.863 -1.1267  1.2569  0.4335
 3331THY    CA583269   0.650   2.323   7.742  0.9165 -0.3575  0.5536
 3331THY    CM183270   0.629   2.237   7.619 -0.4178  0.1378  0.3765
 3331THY    HM183271   0.521   2.222   7.610 -0.5810  1.0275  0.7099
 3331THY    HM283272   0.672   2.284   7.529  1.5311  0.5130  1.4665
 3331THY    HM383273   0.683   2.142   7.626  0.2378  0.5098  0.4126
 3331THY    CA683274   0.750   2.421   7.736 -0.4707  0.1611 -0.2237
 3331THY    HA683275   0.828   2.417   7.661  0.8922 -0.1799  1.1669
 3332THY      O83276   3.903   7.625   7.243  0.8460  0.3968  0.4677
 3332THY     HO83277   3.872   7.717   7.231  0.8550  0.4232  0.6320
 3332THY    CA183278   3.844   7.587   7.359  0.0802  0.6082 -0.8293
 3332THY    CA283279   3.872   7.458   7.409 -0.0624 -0.1804 -0.2127
 3332THY    CP183280   3.972   7.373   7.322 -0.3968  0.1848  0.5432
 3332THY    HP183281   3.973   7.393   7.214  0.2764 -1.3275  0.2351
 3332THY    CP283282   4.122   7.400   7.370  0.4505 -0.3283  0.1051
 3332THY    HP283283   4.128   7.383   7.478 -2.4092  1.5446  0.6797
 3332THY    HP383284   4.192   7.326   7.330  2.0233  0.8901  0.4862
 3332THY    HP483285   4.160   7.500   7.349  1.1219 -1.0450 -2.3575
 3332THY    CP383286   3.944   7.220   7.335 -0.0786  0.5226 -0.6137
 3332THY    HP583287   3.842   7.196   7.301 -0.2995 -1.3345  1.1909
 3332THY    HP683288   4.022   7.156   7.292 -1.3892 -0.8109 -1.0930
 3332THY    HP783289   3.931   7.198   7.442  0.4087 -1.5736 -0.9496
 3332THY    CA383290   3.808   7.417   7.533 -0.2963 -0.7773 -0.1705
 3332THY    HA383291   3.824   7.315   7.568 -0.1355 -0.5034  0.5706
 3332THY    CA483292   3.727   7.511   7.597  0.4624  0.3284 -0.1637
 3332THY    HA483293   3.673   7.475   7.684 -0.3049  1.6047 -0.0907
 3332THY    CA583294   3.707   7.642   7.543 -0.2050  0.4367  0.4487
 3332THY    CM183295   3.611   7.732   7.624 -0.6569 -0.2004  0.3761
 3332THY    HM183296   3.657   7.801   7.696 -0.2084 -1.1052  0.9775
 3332THY    HM283297   3.553   7.787   7.549 -1.7357 -3.6253 -1.5514
 3332THY    HM383298   3.538   7.669   7.677  0.3035 -4.0086 -2.4362
 3332THY    CA683299   3.773   7.685   7.423 -0.8594  0.8535  0.5028
 3332THY    HA683300   3.756   7.777   7.369  0.1668 -0.1007 -1.5275
 3333THY      O83301   1.174   6.268   7.564 -0.2444  0.2450 -0.5682
 3333THY     HO83302   1.176   6.233   7.474 -0.9699 -2.1633  0.2743
 3333THY    CA183303   1.045   6.305   7.591  0.2691 -0.3417  0.3390
 3333THY    CA283304   1.014   6.414   7.676 -0.3049 -0.1806 -0.0470
 3333THY    CP183305   1.126   6.494   7.750 -0.2365 -0.1331  0.1997
 3333THY    HP183306   1.196   6.422   7.794 -2.8459 -1.8236  1.8163
 3333THY    CP283307   1.205   6.584   7.654 -0.2601  0.4135  0.0034
 3333THY    HP283308   1.124   6.653   7.625 -0.2614  0.7496  0.7666
 3333THY    HP383309   1.281   6.641   7.709  0.5010 -0.3732 -0.2286
 3333THY    HP483310   1.241   6.530   7.566  0.5119  0.4033  0.3147
 3333THY    CP383311   1.071   6.589   7.864 -0.9575 -0.4426  0.0361
 3333THY    HP583312   1.155   6.620   7.927 -2.5327  1.2786  1.3737
 3333THY    HP683313   1.026   6.679   7.822 -1.8471 -0.5343  0.7793
 3333THY    HP783314   0.994   6.545   7.929 -2.6715 -1.0653 -2.2975
 3333THY    CA383315   0.879   6.454   7.683  0.3492  0.0495 -0.0917
 3333THY    HA383316   0.860   6.544   7.741  3.7042  1.1382 -0.4874
 3333THY    CA483317   0.774   6.380   7.628  0.9098  0.6690  0.1488
 3333THY    HA483318   0.670   6.409   7.639  0.9996  0.6441  1.1147
 3333THY    CA583319   0.813   6.269   7.542  0.4217 -0.2216 -0.5872
 3333THY    CM183320   0.700   6.175   7.491 -0.0595 -0.0311 -1.5301
 3333THY    HM183321   0.748   6.111   7.415  1.8776  0.0569 -0.4604
 3333THY    HM283322   0.657   6.102   7.561 -0.6448 -0.3492 -2.2048
 3333THY    HM383323   0.630   6.240   7.438  0.8115  0.3430 -2.2669
 3333THY    CA683324   0.944   6.239   7.524  0.2071  0.0331 -0.0056
 3333THY    HA683325   0.975   6.157   7.461  0.8600  0.4771 -0.2625
 3334THY      O83326   3.764   0.355   0.922 -0.0121 -0.2448 -0.3049
 3334THY     HO83327   3.806   0.438   0.951 -2.3393  0.3820  1.5572
 3334THY    CA183328   3.809   0.256   1.004 -0.0245  0.2902  0.4003
 3334THY    CA283329   3.791   0.121   0.981  0.0391  0.7539 -0.3198
 3334THY    CP183330   3.697   0.075   0.865 -0.2489  0.2206  0.4706
 3334THY    HP183331   3.715   0.140   0.778  1.4944 -0.7264  0.0546
 3334THY    CP283332   3.726  -0.068   0.806  0.1557 -0.9443  0.3361
 3334THY    HP283333   3.831  -0.082   0.778  0.7062 -1.0333  2.2764
 3334THY    HP383334   3.696  -0.142   0.882  1.0842 -0.7748  0.8747
 3334THY    HP483335   3.653  -0.083   0.725 -1.2880 -1.3560  1.6398
 3334THY    CP383336   3.553   0.081   0.921  0.1137 -1.1219 -0.2511
 3334THY    HP583337   3.525   0.179   0.960 -3.0532 -2.3852  0.9910
 3334THY    HP683338   3.483   0.043   0.846  0.2658  0.2998 -1.1398
 3334THY    HP783339   3.550   0.016   1.010  0.1549 -0.5781  0.1524
 3334THY    CA383340   3.855   0.027   1.062 -0.1983  0.1828  0.4380
 3334THY    HA383341   3.835  -0.079   1.052  0.3712  0.0802  0.3701
 3334THY    CA483342   3.944   0.072   1.165 -0.3111  0.3217 -0.1034
 3334THY    HA483343   3.996   0.003   1.229 -1.3130  0.9948  1.4871
 3334THY    CA583344   3.963   0.204   1.183  0.6242  0.3368  0.1423
 3334THY    CM183345   4.036   0.258   1.310  0.2698  0.3807 -0.5544
 3334THY    HM183346   3.988   0.237   1.406 -0.4652  2.3579 -0.4447
 3334THY    HM283347   4.141   0.227   1.302  0.3638  0.8080 -1.0530
 3334THY    HM383348   4.058   0.366   1.308  1.0391  0.2313 -0.3201
 3334THY    CA683349   3.895   0.293   1.101 -0.3854 -0.0056  0.4603
 3334THY    HA683350   3.924   0.397   1.114  1.6566 -0.5481  0.5923
 3335THY      O83351   1.891   1.287   0.489 -0.1203  0.0537 -0.7031
 3335THY     HO83352   1.890   1.224   0.563 -2.3939 -2.3554 -2.5798
 3335THY    CA183353   1.814   1.393   0.525 -0.1410  0.2209 -0.0583
 3335THY    CA283354   1.844   1.525   0.478 -0.8769 -0.6370  0.2864
 3335THY    CP183355   1.980   1.561   0.422  0.2173 -0.0061  0.4555
 3335THY    HP183356   2.038   1.467   0.419 -0.6847 -0.7190  2.9732
 3335THY    CP283357   1.966   1.611   0.278 -0.7225  0.2369  0.2761
 3335THY    HP283358   1.950   1.526   0.211  0.2834  0.7382 -0.6389
 3335THY    HP383359   1.877   1.674   0.271 -2.0304 -1.6943 -1.4731
 3335THY    HP483360   2.065   1.651   0.252 -0.5418  0.3641  1.1260
 3335THY    CP383361   2.047   1.670   0.513  0.3635 -0.5607  0.4785
 3335THY    HP583362   2.004   1.771   0.509  0.3366 -0.5459  1.0870
 3335THY    HP683363   2.036   1.637   0.617  3.4780  0.3083  1.1687
 3335THY    HP783364   2.156   1.673   0.503  0.6615 -2.5685  2.5097
 3335THY    CA383365   1.751   1.629   0.502  0.6570 -0.2472 -0.2412
 3335THY    HA383366   1.779   1.723   0.455  0.9114 -0.0170  0.3668
 3335THY    CA483367   1.629   1.598   0.565 -0.0115 -0.4942 -0.7916
 3335THY    HA483368   1.560   1.682   0.571  0.4829 -0.1775  2.1115
 3335THY    CA583369   1.605   1.467   0.615 -0.6701 -0.4841  1.3875
 3335THY    CM183370   1.473   1.441   0.675  0.2978 -0.3432 -0.1754
 3335THY    HM183371   1.397   1.450   0.597  0.1863  1.0201  0.0520
 3335THY    HM283372   1.469   1.343   0.724 -0.6423 -0.1760  0.1019
 3335THY    HM383373   1.438   1.520   0.743  0.4524 -0.1523 -0.3167
 3335THY    CA683374   1.700   1.368   0.596  0.1730 -0.8168  0.2045
 3335THY    HA683375   1.665   1.269   0.624  0.5635 -0.5814  1.6048
 3336THY      O83376   9.658   0.778   5.965 -0.0535  0.4729  0.3270
 3336THY     HO83377   9.573   0.763   6.009  0.1861 -2.5015  0.0074
 3336THY    CA183378   9.681   0.902   5.928 -0.1077 -0.5496  0.0263
 3336THY    CA283379   9.815   0.952   5.902 -0.8136  0.0667  0.0317
 3336THY    CP183380   9.943   0.867   5.932  0.4960  0.8572 -0.0997
 3336THY    HP183381   9.914   0.762   5.949 -0.6000  1.3399  1.2184
 3336THY    CP283382  10.057   0.859   5.823 -0.2235  0.0744 -0.1257
 3336THY    HP283383  10.152   0.819   5.862  0.1911  0.8758 -0.2773
 3336THY    HP383384  10.022   0.798   5.739 -0.0586  0.2679 -0.3366
 3336THY    HP483385  10.084   0.954   5.775  0.3697 -1.1220 -2.2717
 3336THY    CP383386  10.006   0.913   6.061 -0.5586 -0.0063  0.5410
 3336THY    HP583387  10.017   1.022   6.065 -2.4876  0.3622 -1.7096
 3336THY    HP683388   9.931   0.889   6.138  0.0312 -1.4063  0.6968
 3336THY    HP783389  10.105   0.870   6.079 -1.0880 -0.6247  2.1126
 3336THY    CA383390   9.828   1.083   5.856  0.2292  0.8283 -0.4501
 3336THY    HA383391   9.920   1.128   5.821 -1.4462  5.0208 -0.0590
 3336THY    CA483392   9.715   1.164   5.844  0.0553 -0.7914 -0.2869
 3336THY    HA483393   9.733   1.258   5.792 -2.3746  0.1080  0.3551
 3336THY    CA583394   9.590   1.123   5.881  0.5296  1.3161 -0.0528
 3336THY    CM183395   9.477   1.217   5.868  0.7367 -0.2520 -0.5220
 3336THY    HM183396   9.457   1.275   5.959  0.9234 -1.2690  0.1901
 3336THY    HM283397   9.509   1.287   5.790 -1.3429  0.3859 -0.8827
 3336THY    HM383398   9.383   1.174   5.830 -0.8231  1.4517  1.1679
 3336THY    CA683399   9.572   0.991   5.925  0.3467  0.9535  0.3431
 3336THY    HA683400   9.475   0.959   5.961  1.5717 -2.8958  0.6094
 3337THY      O83401   4.450   1.719   8.285 -0.3362  0.2348  0.0467
 3337THY     HO83402   4.502   1.642   8.314 -1.4970 -0.8085 -0.5163
 3337THY    CA183403   4.407   1.687   8.163  0.5215 -0.2737  0.3148
 3337THY    CA283404   4.393   1.787   8.057  0.3002  0.9472 -0.3648
 3337THY    CP183405   4.402   1.933   8.091  0.6877 -0.0005 -0.3119
 3337THY    HP183406   4.394   1.937   8.200 -0.4290 -0.5478 -0.3568
 3337THY    CP283407   4.531   2.003   8.039 -0.3169 -0.3125  0.2874
 3337THY    HP283408   4.537   2.107   8.073 -2.7646 -1.4242  4.9746
 3337THY    HP383409   4.620   1.946   8.067 -0.8710 -0.0654  2.7721
 3337THY    HP483410   4.522   2.009   7.930 -0.6726 -0.5391  0.3029
 3337THY    CP383411   4.269   2.003   8.037  1.3469 -0.4451  0.1551
 3337THY    HP583412   4.237   2.080   8.108 -0.7605 -0.8239 -0.3269
 3337THY    HP683413   4.279   2.050   7.938 -0.2455  1.2324  0.7505
 3337THY    HP783414   4.190   1.929   8.028  0.2409  0.6242  0.7657
 3337THY    CA383415   4.359   1.740   7.926 -0.0550 -0.3361  0.0349
 3337THY    HA383416   4.342   1.810   7.845 -1.8493 -0.5469  0.1973
 3337THY    CA483417   4.355   1.602   7.897  0.5207  0.6711  0.8155
 3337THY    HA483418   4.340   1.572   7.794  0.3684  2.0530  0.4177
 3337THY    CA583419   4.362   1.511   8.002  0.6612  0.4820  0.3888
 3337THY    CM183420   4.354   1.364   7.966 -0.1034  0.5335  0.4621
 3337THY    HM183421   4.275   1.317   8.026 -0.9872  1.0971 -0.2345
 3337THY    HM283422   4.322   1.350   7.862 -2.0359 -0.2612  1.1197
 3337THY    HM383423   4.448   1.311   7.981  0.1056  0.3316 -1.4258
 3337THY    CA683424   4.387   1.551   8.130 -0.5674  0.0041  0.2688
 3337THY    HA683425   4.403   1.477   8.207 -0.1989 -0.0371  0.1567
 3338THY      O83426   9.778   0.694   4.726 -0.1078  0.1771  0.6399
 3338THY     HO83427   9.727   0.611   4.735  0.1778  0.0523  1.1554
 3338THY    CA183428   9.770   0.718   4.592  0.0098 -0.6617  0.3397
 3338THY    CA283429   9.834   0.827   4.533 -0.5452  0.3490 -0.4258
 3338THY    CP183430   9.914   0.932   4.615 -0.8308 -0.7300  0.8210
 3338THY    HP183431   9.908   0.914   4.723 -1.7204 -0.4509  0.8270
 3338THY    CP283432  10.067   0.938   4.590  1.3196 -0.4698 -0.1967
 3338THY    HP283433  10.091   0.956   4.485  0.3850 -0.8027 -0.4780
 3338THY    HP383434  10.113   1.017   4.650 -2.3040  2.4478 -0.9437
 3338THY    HP483435  10.107   0.841   4.624  0.9180  0.2069  2.3812
 3338THY    CP383436   9.859   1.069   4.601 -0.0012  0.1186 -0.1874
 3338THY    HP583437   9.756   1.075   4.638 -0.6148  0.8126 -1.9240
 3338THY    HP683438   9.916   1.145   4.657  0.8987 -0.4351 -0.3257
 3338THY    HP783439   9.873   1.107   4.500  1.2305  2.2711  0.7232
 3338THY    CA383440   9.817   0.845   4.396  0.5027  0.1811 -0.0953
 3338THY    HA383441   9.874   0.922   4.346  0.3454 -0.7943 -1.8486
 3338THY    CA483442   9.744   0.757   4.319  0.8323 -0.4604  0.7784
 3338THY    HA483443   9.737   0.785   4.214  0.0956 -0.2947  0.8661
 3338THY    CA583444   9.675   0.652   4.373 -0.5783 -0.7904 -0.4978
 3338THY    CM183445   9.580   0.559   4.294  0.0881  0.4375 -0.2795
 3338THY    HM183446   9.514   0.515   4.370  2.1609  0.8513  1.8951
 3338THY    HM283447   9.522   0.617   4.222  0.5841  0.3285 -0.7777
 3338THY    HM383448   9.643   0.487   4.240  2.3538  1.8684  0.3057
 3338THY    CA683449   9.692   0.631   4.517  0.1418  0.0759 -0.2265
 3338THY    HA683450   9.633   0.548   4.554  1.7556 -2.4139 -2.7722
 3339THY      O83451   1.691   7.829   6.981  0.8004  0.2182  0.2366
 3339THY     HO83452   1.689   7.911   6.929  0.4220 -0.1691 -0.3734
 3339THY    CA183453   1.586   7.757   6.932  0.3419 -0.7429 -0.5377
 3339THY    CA283454   1.516   7.658   7.011 -0.2383 -0.4520  0.7076
 3339THY    CP183455   1.576   7.624   7.148  0.3663  0.7712 -0.6287
 3339THY    HP183456   1.672   7.671   7.172  1.9442 -2.7192  0.5638
 3339THY    CP283457   1.481   7.668   7.258  0.3450 -0.0145  0.2687
 3339THY    HP283458   1.387   7.613   7.248  0.4894 -0.0525 -1.0252
 3339THY    HP383459   1.527   7.664   7.358  1.2556 -1.0305 -0.1636
 3339THY    HP483460   1.446   7.770   7.240 -0.8620 -0.4293  0.1779
 3339THY    CP383461   1.593   7.468   7.166 -0.4359 -1.1468 -0.6684
 3339THY    HP583462   1.654   7.435   7.081 -0.7684  1.9371 -2.2485
 3339THY    HP683463   1.636   7.450   7.265 -0.4359  1.1217 -0.2056
 3339THY    HP783464   1.498   7.413   7.161 -2.1782  1.6048  0.1906
 3339THY    CA383465   1.410   7.578   6.955  0.5908 -0.7092  0.7645
 3339THY    HA383466   1.363   7.494   7.006  0.0199 -1.7016 -1.3204
 3339THY    CA483467   1.357   7.617   6.829  0.0361  0.2579 -0.0371
 3339THY    HA483468   1.274   7.566   6.781 -2.6886  2.4190  2.0247
 3339THY    CA583469   1.432   7.711   6.757  1.0882 -0.2049 -0.0736
 3339THY    CM183470   1.383   7.742   6.613 -0.8929 -0.1550  0.2092
 3339THY    HM183471   1.381   7.656   6.544 -0.0076  1.2057 -1.6084
 3339THY    HM283472   1.282   7.785   6.617 -1.1305 -0.7284  4.3727
 3339THY    HM383473   1.455   7.809   6.566 -0.3626 -0.0937  1.1042
 3339THY    CA683474   1.538   7.782   6.803 -0.1103 -0.4720 -0.1652
 3339THY    HA683475   1.589   7.852   6.737 -1.3116  0.8855  0.3015
 3340THY      O83476   2.615   2.083   5.722 -0.1757 -0.1511 -0.3735
 3340THY     HO83477   2.634   2.130   5.639 -3.8816  3.2889  0.4297
 3340THY    CA183478   2.683   2.148   5.821  0.4712  0.1231 -0.5927
 3340THY    CA283479   2.712   2.093   5.947 -0.3105 -0.6058  0.0305
 3340THY    CP183480   2.673   1.954   5.984 -0.0204 -0.3264  0.6154
 3340THY    HP183481   2.589   1.920   5.922  1.2823 -1.0034 -0.8338
 3340THY    CP283482   2.792   1.866   5.958 -0.3745  0.1175  0.6565
 3340THY    HP283483   2.880   1.874   6.023  1.9817 -0.8794 -2.1495
 3340THY    HP383484   2.760   1.762   5.967 -0.1141 -0.1701 -1.2657
 3340THY    HP483485   2.813   1.867   5.850 -0.7724 -2.2672  0.5070
 3340THY    CP383486   2.629   1.932   6.133  0.4893  0.0111  0.0577
 3340THY    HP583487   2.553   2.004   6.165 -0.2640 -0.5374 -0.4707
 3340THY    HP683488   2.575   1.837   6.136 -0.9112  0.6353 -2.6568
 3340THY    HP783489   2.719   1.930   6.196  0.6316  0.7729 -0.1143
 3340THY    CA383490   2.762   2.175   6.049 -0.2458  0.6616 -0.9240
 3340THY    HA383491   2.791   2.132   6.144  0.4572  2.9911 -0.0111
 3340THY    CA483492   2.809   2.303   6.011 -0.6202  0.3148  0.4661
 3340THY    HA483493   2.868   2.362   6.081  0.9087 -0.8376  0.2025
 3340THY    CA583494   2.797   2.350   5.885 -0.3486  0.3198  0.2648
 3340THY    CM183495   2.860   2.487   5.856  0.0679  0.2182 -0.2476
 3340THY    HM183496   2.819   2.564   5.923 -1.2023 -1.2972  0.7806
 3340THY    HM283497   2.967   2.481   5.879  0.0056  0.1355  0.0221
 3340THY    HM383498   2.857   2.529   5.754  0.4763  2.3694  0.5598
 3340THY    CA683499   2.722   2.280   5.791 -0.1331 -0.1860 -0.6066
 3340THY    HA683500   2.699   2.321   5.693  0.8851 -0.5535 -1.0185
 3341THY      O83501   7.143   6.261   0.581 -0.9370  0.0574  0.2657
 3341THY     HO83502   7.117   6.182   0.632 -3.2152 -0.5912 -1.7011
 3341THY    CA183503   7.035   6.303   0.511  0.1352 -0.3076  0.5864
 3341THY    CA283504   7.039   6.348   0.379 -0.6471 -0.5780  0.3309
 3341THY    CP183505   7.171   6.369   0.300  0.2040  0.1874 -0.1919
 3341THY    HP183506   7.260   6.358   0.364  0.2192  1.8173  0.1234
 3341THY    CP283507   7.196   6.251   0.197 -0.8486  0.8659 -0.0017
 3341THY    HP283508   7.207   6.159   0.255  1.4305  0.7275 -0.5544
 3341THY    HP383509   7.109   6.234   0.133  0.4472 -0.2844 -1.5362
 3341THY    HP483510   7.294   6.267   0.151  0.6414  0.6380  2.8311
 3341THY    CP383511   7.172   6.518   0.239 -1.2710  0.1572  0.1076
 3341THY    HP583512   7.178   6.601   0.310 -0.1974 -0.7399  1.1125
 3341THY    HP683513   7.258   6.525   0.172 -0.9414  2.0240  0.6652
 3341THY    HP783514   7.088   6.540   0.172 -1.6169  1.8066  1.0386
 3341THY    CA383515   6.918   6.377   0.312 -0.4365 -0.7607 -0.6446
 3341THY    HA383516   6.906   6.412   0.210 -0.4568 -1.0131 -0.7288
 3341THY    CA483517   6.801   6.355   0.378  0.1587 -0.4391  0.7598
 3341THY    HA483518   6.708   6.365   0.323  0.2660  0.5770  0.7351
 3341THY    CA583519   6.795   6.305   0.508 -0.3211  0.0809  0.0655
 3341THY    CM183520   6.661   6.269   0.553  0.0945  0.0488 -0.2977
 3341THY    HM183521   6.658   6.217   0.649 -1.2383 -0.7923 -0.7626
 3341THY    HM283522   6.606   6.363   0.571 -0.0723 -0.3019  1.1742
 3341THY    HM383523   6.609   6.212   0.475  0.0604  1.7765 -1.6047
 3341THY    CA683524   6.910   6.277   0.574  0.0186 -0.4662  0.3162
 3341THY    HA683525   6.899   6.232   0.673 -3.8557 -1.8600 -0.5851
 3342THY      O83526   3.877   3.227   8.645 -0.2164  0.2908  0.3373
 3342THY     HO83527   3.853   3.153   8.703 -2.5292  1.7423  1.3981
 3342THY    CA183528   3.928   3.321   8.725  0.6244  0.0308 -0.2757
 3342THY    CA283529   3.895   3.459   8.711  0.1489  0.0404 -0.3880
 3342THY    CP183530   3.809   3.508   8.600 -0.1785 -0.3216 -0.3946
 3342THY    HP183531   3.766   3.421   8.550  2.4653 -1.1004 -1.5014
 3342THY    CP283532   3.694   3.602   8.636  0.1760 -0.1110 -0.5477
 3342THY    HP283533   3.637   3.620   8.545 -1.6734 -1.7443  0.2258
 3342THY    HP383534   3.628   3.562   8.713  0.3752  0.4133 -0.0995
 3342THY    HP483535   3.734   3.701   8.662 -0.2376 -0.3328  1.0370
 3342THY    CP383536   3.894   3.579   8.497  0.4659 -0.3314  0.3859
 3342THY    HP583537   3.831   3.633   8.425  2.6307 -0.8564 -2.0664
 3342THY    HP683538   3.955   3.656   8.546 -1.0343  1.5846 -0.5923
 3342THY    HP783539   3.943   3.500   8.439 -2.2464  0.0720 -2.7690
 3342THY    CA383540   3.942   3.550   8.807 -0.2249 -0.2618  0.1600
 3342THY    HA383541   3.916   3.654   8.788  0.8158  0.3862  2.0301
 3342THY    CA483542   4.019   3.494   8.909 -0.2300  0.4146 -0.0598
 3342THY    HA483543   4.067   3.566   8.975  0.0319  1.6305 -1.5252
 3342THY    CA583544   4.046   3.356   8.930  0.1452  0.0870  0.2337
 3342THY    CM183545   4.152   3.309   9.034 -1.1375 -0.3173  0.1649
 3342THY    HM183546   4.134   3.225   9.101 -1.3273 -0.4516 -0.0523
 3342THY    HM283547   4.252   3.298   8.989 -1.9608  3.5883 -3.2657
 3342THY    HM383548   4.186   3.391   9.099 -1.3548 -0.8574  0.9737
 3342THY    CA683549   3.990   3.272   8.835  0.0086  0.8195  0.0801
 3342THY    HA683550   4.019   3.168   8.842 -0.8180  0.4523 -1.4995
 3343THY      O83551   1.103   3.337   9.048 -0.1227  0.2439 -0.4674
 3343THY     HO83552   1.053   3.392   8.985  1.2064  2.0596  0.0122
 3343THY    CA183553   1.124   3.420   9.157  0.5827 -0.1126  0.0380
 3343THY    CA283554   1.166   3.365   9.281  0.3930 -0.9754  0.0650
 3343THY    CP183555   1.187   3.215   9.294 -0.0682  0.4877 -0.1532
 3343THY    HP183556   1.179   3.165   9.197 -0.9297  0.3316 -0.0148
 3343THY    CP283557   1.322   3.185   9.363 -0.1138  0.1319  0.1157
 3343THY    HP283558   1.334   3.077   9.373 -0.5284 -0.0660 -1.2366
 3343THY    HP383559   1.406   3.232   9.311  0.7130  0.9324  2.0747
 3343THY    HP483560   1.331   3.230   9.463  1.8854  0.6415 -0.2499
 3343THY    CP383561   1.071   3.154   9.374 -0.2945 -0.5503 -0.1254
 3343THY    HP583562   1.055   3.200   9.472  0.2259  0.6982 -0.6074
 3343THY    HP683563   0.989   3.201   9.317 -0.3839  1.8001  1.7927
 3343THY    HP783564   1.056   3.045   9.381  1.2675 -0.7134  1.1038
 3343THY    CA383565   1.192   3.452   9.390 -0.3838  0.8093  0.5945
 3343THY    HA383566   1.225   3.424   9.490  0.7914 -0.7033 -0.1742
 3343THY    CA483567   1.177   3.590   9.363  0.2874 -0.1590 -0.3898
 3343THY    HA483568   1.205   3.656   9.444 -0.9262 -1.4926  1.1975
 3343THY    CA583569   1.138   3.646   9.239 -0.1471  0.5716  0.0275
 3343THY    CM183570   1.139   3.789   9.210  0.6571 -0.3528  0.0508
 3343THY    HM183571   1.199   3.842   9.284 -0.0173  0.3196  0.1258
 3343THY    HM283572   1.176   3.808   9.108 -0.2665 -0.1885 -0.2634
 3343THY    HM383573   1.043   3.840   9.202  1.8337  1.7724 -1.5755
 3343THY    CA683574   1.111   3.556   9.133  0.4250  0.0232 -0.0381
 3343THY    HA683575   1.074   3.594   9.038  0.6496  0.6477  0.1228
 3344THY      O83576   6.525   8.396   2.132  0.2571  0.4181 -0.2589
 3344THY     HO83577   6.443   8.365   2.174 -1.4381  1.7771 -2.3591
 3344THY    CA183578   6.536   8.323   2.018 -0.5614 -0.2353  0.4141
 3344THY    CA283579   6.655   8.256   1.980  0.5041 -0.4219 -0.8969
 3344THY    CP183580   6.783   8.264   2.070 -0.1983  0.0818 -0.8941
 3344THY    HP183581   6.781   8.356   2.130  1.7068  0.2807 -1.0629
 3344THY    CP283582   6.776   8.163   2.185 -0.1194 -0.6749 -0.2696
 3344THY    HP283583   6.792   8.061   2.147  0.0312 -1.2275  1.2064
 3344THY    HP383584   6.854   8.190   2.256 -0.0394  2.6053 -1.4458
 3344THY    HP483585   6.674   8.166   2.224 -0.1555 -0.1664 -0.4022
 3344THY    CP383586   6.914   8.262   1.985 -0.3021 -0.5419 -0.1571
 3344THY    HP583587   6.894   8.340   1.910  0.0632  1.5077  1.7781
 3344THY    HP683588   7.003   8.292   2.042 -0.5586 -2.1444  1.1409
 3344THY    HP783589   6.934   8.164   1.941  1.1428 -0.8870  1.1956
 3344THY    CA383590   6.652   8.186   1.863 -0.2841 -0.2098  0.0876
 3344THY    HA383591   6.741   8.135   1.826 -0.3183  1.0366 -1.8591
 3344THY    CA483592   6.539   8.189   1.776  0.4445 -0.8111  0.3629
 3344THY    HA483593   6.535   8.129   1.685 -1.2056  0.2859 -0.3294
 3344THY    CA583594   6.423   8.256   1.816  0.3439 -0.3497  0.0665
 3344THY    CM183595   6.299   8.252   1.727  0.0307  0.0482 -0.7205
 3344THY    HM183596   6.268   8.154   1.691 -1.2900  0.5068 -0.8663
 3344THY    HM283597   6.213   8.292   1.783 -1.4612 -0.5042 -2.5320
 3344THY    HM383598   6.315   8.324   1.646  1.7241  2.4241  1.5111
 3344THY    CA683599   6.426   8.331   1.931 -0.0768 -0.2246 -0.0222
 3344THY    HA683600   6.337   8.382   1.969  0.9151  0.3214  1.6916
 3345THY      O83601   8.486   8.305   5.342 -0.2334 -0.2491 -0.0303
 3345THY     HO83602   8.448   8.217   5.326  0.6178 -0.1660 -3.3585
 3345THY    CA183603   8.591   8.298   5.263 -0.3280 -0.1540 -0.0600
 3345THY    CA283604   8.636   8.420   5.196  0.1169 -0.5250 -0.0313
 3345THY    CP183605   8.553   8.543   5.190 -0.3210  0.2684  0.3551
 3345THY    HP183606   8.510   8.564   5.288 -0.7629  1.4992 -0.0880
 3345THY    CP283607   8.635   8.670   5.163  0.0173  0.8426  0.6152
 3345THY    HP283608   8.571   8.758   5.170  0.8000  1.7212 -1.9617
 3345THY    HP383609   8.708   8.679   5.244 -0.7821  1.5576  1.2655
 3345THY    HP483610   8.682   8.672   5.064  1.2147 -1.8652  1.0352
 3345THY    CP383611   8.437   8.533   5.093 -0.8416 -0.0181 -0.5301
 3345THY    HP583612   8.466   8.540   4.988 -1.7128 -0.8389 -0.8375
 3345THY    HP683613   8.380   8.443   5.117  0.1175 -0.4773  0.1027
 3345THY    HP783614   8.366   8.616   5.105  0.1121  0.7231  0.2263
 3345THY    CA383615   8.751   8.413   5.117 -0.7970  0.6232 -0.0078
 3345THY    HA383616   8.776   8.492   5.046 -1.0992  0.9547  0.2476
 3345THY    CA483617   8.817   8.287   5.095 -0.2498  0.0736  0.2920
 3345THY    HA483618   8.906   8.284   5.033 -0.1134  0.2889  0.4752
 3345THY    CA583619   8.782   8.175   5.169 -0.5560 -0.0488  0.2027
 3345THY    CM183620   8.881   8.057   5.158  0.5089 -0.4486 -0.0548
 3345THY    HM183621   8.909   8.033   5.261  0.8974  0.3876  0.0385
 3345THY    HM283622   8.842   7.963   5.115  2.9281 -1.5878  0.0556
 3345THY    HM383623   8.972   8.088   5.105  0.3835  1.5735  0.8226
 3345THY    CA683624   8.664   8.177   5.254 -1.2910 -0.5379 -0.3913
 3345THY    HA683625   8.641   8.087   5.309 -2.7893  0.1514  0.1647
 3346THY      O83626   9.627   8.641   1.688 -0.0110  0.4389 -0.2187
 3346THY     HO83627   9.673   8.640   1.602 -0.7701 -2.2141 -0.6912
 3346THY    CA183628   9.613   8.769   1.727 -0.4267  0.3656  0.7465
 3346THY    CA283629   9.619   8.799   1.870 -0.3967 -0.0724  0.2090
 3346THY    CP183630   9.632   8.679   1.962 -0.0647  0.4450  0.1749
 3346THY    HP183631   9.680   8.592   1.916 -3.0167 -0.9468 -0.5292
 3346THY    CP283632   9.729   8.712   2.078  0.2513  0.2613 -0.0244
 3346THY    HP283633   9.701   8.803   2.131  1.5294  1.6939 -1.6880
 3346THY    HP383634   9.760   8.622   2.132  2.9701  0.5096 -1.0098
 3346THY    HP483635   9.825   8.731   2.030 -0.0714 -1.0244 -1.2464
 3346THY    CP383636   9.495   8.641   2.003 -0.0845 -0.3699 -0.0038
 3346THY    HP583637   9.424   8.623   1.921  0.6596 -1.3269 -0.4509
 3346THY    HP683638   9.494   8.555   2.071 -0.0638  0.1142  0.6174
 3346THY    HP783639   9.460   8.726   2.063  1.0997  1.4423 -1.7505
 3346THY    CA383640   9.614   8.936   1.905  0.0477  0.6131 -0.2032
 3346THY    HA383641   9.608   8.958   2.012 -1.4162 -2.1521  0.3759
 3346THY    CA483642   9.601   9.031   1.806  0.3338 -0.2896  0.1051
 3346THY    HA483643   9.598   9.138   1.826  0.6565 -0.2751  0.0795
 3346THY    CA583644   9.596   8.998   1.671  0.2166  0.3910  0.4153
 3346THY    CM183645   9.580   9.101   1.569  0.1922 -0.4811  0.8482
 3346THY    HM183646   9.668   9.166   1.567 -1.0716  1.3066  1.1078
 3346THY    HM283647   9.562   9.057   1.470  0.9109 -0.7877  0.8487
 3346THY    HM383648   9.490   9.159   1.594  0.2666 -0.0315  0.1206
 3346THY    CA683649   9.600   8.866   1.636 -0.9426 -0.0006 -0.0219
 3346THY    HA683650   9.589   8.835   1.532 -0.0810  1.1794 -0.4835
 3347THY      O83651   4.024   2.497   3.370  0.2137 -0.1751 -0.1313
 3347THY     HO83652   3.982   2.514   3.456 -2.7149  0.5701 -1.5955
 3347THY    CA183653   3.911   2.499   3.294  0.0519 -0.1199 -0.2975
 3347THY    CA283654   3.912   2.501   3.153  1.0419  0.3920 -0.6341
 3347THY    CP183655   4.037   2.481   3.070 -0.2129 -0.1800  0.1643
 3347THY    HP183656   4.124   2.543   3.096 -1.9229  2.1230  0.6153
 3347THY    CP283657   4.058   2.330   3.085  0.3069 -0.6855  0.7977
 3347THY    HP283658   3.986   2.272   3.025  0.2147 -1.9457  2.0771
 3347THY    HP383659   4.160   2.314   3.049 -0.2539  0.3417 -1.4279
 3347THY    HP483660   4.049   2.285   3.185  0.0407  0.4418  1.2896
 3347THY    CP383661   4.030   2.511   2.923  0.1041 -0.1869 -0.2405
 3347THY    HP583662   4.128   2.479   2.883  0.5109  1.1979 -0.3911
 3347THY    HP683663   3.950   2.450   2.880  1.6878 -2.4139 -0.2333
 3347THY    HP783664   4.023   2.617   2.896  0.1730 -0.5656 -1.8751
 3347THY    CA383665   3.792   2.518   3.080  0.5029 -0.1375  0.0229
 3347THY    HA383666   3.775   2.518   2.973 -2.5221  2.4482  0.3638
 3347THY    CA483667   3.674   2.552   3.154 -0.0774 -0.0409  0.7053
 3347THY    HA483668   3.579   2.554   3.102 -0.0942  0.5005  0.7528
 3347THY    CA583669   3.678   2.548   3.296 -0.3211  0.0830  0.4897
 3347THY    CM183670   3.552   2.569   3.371  0.0172 -0.1148 -0.1638
 3347THY    HM183671   3.554   2.651   3.443  2.6213 -0.9744  0.8533
 3347THY    HM283672   3.477   2.598   3.297  0.1583  1.1877  0.1869
 3347THY    HM383673   3.521   2.477   3.423  0.5473 -1.6104 -2.3595
 3347THY    CA683674   3.793   2.524   3.370  0.9724  0.0912  0.2132
 3347THY    HA683675   3.785   2.524   3.479 -1.8607  0.3463  0.0906
 3348THY      O83676   9.078   4.092   3.596  0.3573 -0.1799  0.2221
 3348THY     HO83677   9.142   4.027   3.562  2.0974  0.2980  2.3515
 3348THY    CA183678   8.964   4.022   3.599 -0.2984  0.2784 -0.0671
 3348THY    CA283679   8.871   4.053   3.694  0.2235 -0.7425  0.0387
 3348THY    CP183680   8.893   4.164   3.797  0.3389 -0.0890  0.0647
 3348THY    HP183681   8.977   4.226   3.767  0.2829 -0.9511 -2.0141
 3348THY    CP283682   8.784   4.260   3.781  0.0406 -0.2146  0.3500
 3348THY    HP283683   8.806   4.336   3.857  3.0240 -0.1815 -0.4138
 3348THY    HP383684   8.785   4.304   3.681  0.8790  1.1008  0.9077
 3348THY    HP483685   8.683   4.217   3.788 -0.5471  0.4020 -2.9601
 3348THY    CP383686   8.902   4.109   3.937 -0.1637  0.7364  0.0669
 3348THY    HP583687   8.948   4.183   4.003 -0.7793 -0.3668  1.7946
 3348THY    HP683688   8.804   4.094   3.983 -0.0892 -2.3247 -0.5385
 3348THY    HP783689   8.948   4.009   3.941  0.7415  1.0839 -1.0881
 3348THY    CA383690   8.753   3.978   3.706  0.0240 -0.0565 -0.0395
 3348THY    HA383691   8.674   3.994   3.779 -0.2126 -1.2420 -0.0042
 3348THY    CA483692   8.733   3.868   3.620 -0.1084  0.5156 -0.5379
 3348THY    HA483693   8.643   3.809   3.634 -1.8032  3.1526  0.3934
 3348THY    CA583694   8.836   3.832   3.529  0.3372  1.0006 -0.1598
 3348THY    CM183695   8.830   3.703   3.442  0.2682 -0.2471 -0.4878
 3348THY    HM183696   8.791   3.617   3.497 -1.0677  1.4561  1.3909
 3348THY    HM283697   8.752   3.712   3.366 -2.0241 -0.2686  1.7559
 3348THY    HM383698   8.926   3.683   3.393 -0.6781 -1.5945 -1.9100
 3348THY    CA683699   8.946   3.912   3.516  0.4950 -0.8755 -0.2147
 3348THY    HA683700   9.030   3.882   3.453  0.8049  1.4674 -1.0063
 3349THY      O83701   1.459   0.269   6.924  0.0096  0.1823 -0.7684
 3349THY     HO83702   1.416   0.317   6.851 -2.5589  1.3416  1.3355
 3349THY    CA183703   1.436   0.136   6.901  0.4183  0.2684 -0.4836
 3349THY    CA283704   1.527   0.035   6.950 -0.0620  0.3577  0.1779
 3349THY    CP183705   1.653   0.078   7.041  0.3939  0.4669  0.5228
 3349THY    HP183706   1.626   0.168   7.097  0.4166  0.4024  0.6362
 3349THY    CP283707   1.690  -0.036   7.143  0.1515 -0.9333  0.3395
 3349THY    HP283708   1.607  -0.064   7.208 -1.0931  0.0417 -0.7642
 3349THY    HP383709   1.722  -0.126   7.088 -0.2668 -1.6312  1.2196
 3349THY    HP483710   1.783  -0.008   7.194  0.9188 -1.2151 -0.8497
 3349THY    CP383711   1.775   0.114   6.957 -0.4752 -0.2232  0.1788
 3349THY    HP583712   1.864   0.085   7.013 -0.2444  0.4848  0.1925
 3349THY    HP683713   1.780   0.046   6.871  0.5600  0.9763 -0.7436
 3349THY    HP783714   1.776   0.218   6.922 -2.1046  0.3868  1.8039
 3349THY    CA383715   1.507  -0.102   6.911  0.3085  0.4629  0.6962
 3349THY    HA383716   1.568  -0.176   6.961  1.2015  1.5447  1.2635
 3349THY    CA483717   1.395  -0.132   6.830  0.6376  0.4137  0.1633
 3349THY    HA483718   1.371  -0.235   6.805  2.9126 -0.3332  0.7276
 3349THY    CA583719   1.305  -0.036   6.780  0.9247  0.1071 -0.1210
 3349THY    CM183720   1.189  -0.067   6.692  0.0730  0.4257  0.1716
 3349THY    HM183721   1.193   0.007   6.611  0.2671  0.2281  0.0025
 3349THY    HM283722   1.188  -0.164   6.642 -3.8529 -0.1444  1.0124
 3349THY    HM383723   1.091  -0.060   6.740 -1.3974 -0.1643 -2.5623
 3349THY    CA683724   1.334   0.099   6.811  0.0956  0.5724 -0.1770
 3349THY    HA683725   1.267   0.173   6.767  1.7090  0.0174 -4.0317
 3350THY      O83726   0.755   9.368   4.743  0.3115 -0.3234 -0.0015
 3350THY     HO83727   0.848   9.362   4.716 -0.2456  1.2058 -2.6297
 3350THY    CA183728   0.718   9.258   4.810  0.3360 -0.0542  0.3490
 3350THY    CA283729   0.601   9.247   4.888 -0.2045  0.6682 -0.2037
 3350THY    CP183730   0.499   9.361   4.895  0.4754 -0.3408 -0.0540
 3350THY    HP183731   0.542   9.443   4.836  1.8792 -0.8655  0.2015
 3350THY    CP283732   0.369   9.315   4.835 -0.1253 -0.4420 -0.0753
 3350THY    HP283733   0.290   9.389   4.851  1.0135  0.7112  0.3821
 3350THY    HP383734   0.375   9.299   4.727  1.4982 -0.5466  0.0026
 3350THY    HP483735   0.347   9.216   4.875 -2.0361  1.0727  3.0471
 3350THY    CP383736   0.487   9.427   5.038 -0.5975  0.9505 -0.0743
 3350THY    HP583737   0.587   9.459   5.070  0.6104 -0.8152 -1.8720
 3350THY    HP683738   0.415   9.510   5.039  0.3904  1.8407 -1.0876
 3350THY    HP783739   0.456   9.352   5.112  1.0272  1.9899  1.7523
 3350THY    CA383740   0.585   9.126   4.967 -0.1820  0.5640  0.5476
 3350THY    HA383741   0.500   9.123   5.036  0.0666 -0.1458  0.8304
 3350THY    CA483742   0.675   9.013   4.948 -0.4737 -0.1272 -0.1297
 3350THY    HA483743   0.658   8.920   5.001 -1.5079  0.9347  1.4895
 3350THY    CA583744   0.781   9.028   4.868  0.1328 -0.7449 -0.0883
 3350THY    CM183745   0.875   8.916   4.843  0.4340  0.2107 -0.0347
 3350THY    HM183746   0.827   8.821   4.817  1.5364 -0.7426  1.2372
 3350THY    HM283747   0.947   8.952   4.769  0.6403  0.8494  0.4641
 3350THY    HM383748   0.930   8.902   4.937  0.8879 -3.9471 -0.7500
 3350THY    CA683749   0.800   9.147   4.795 -0.3091 -0.1012 -0.2845
 3350THY    HA683750   0.877   9.151   4.719  0.2448 -2.9247  0.0049
 3351THY      O83751   9.913   0.746   4.980  0.1763  0.2643  0.7987
 3351THY     HO83752   9.865   0.722   4.899  1.3375 -2.3182  0.7827
 3351THY    CA183753   9.870   0.868   5.015 -0.0334 -0.4483 -0.3645
 3351THY    CA283754   9.954   0.949   5.095  0.2980  0.2742  0.6701
 3351THY    CP183755  10.083   0.897   5.150 -0.4521 -0.2858 -0.5583
 3351THY    HP183756  10.073   0.790   5.169 -0.6910 -0.0201  0.9209
 3351THY    CP283757  10.189   0.927   5.046  0.3222  0.8872 -0.0742
 3351THY    HP283758  10.185   1.033   5.018  0.6617  0.6119 -1.2120
 3351THY    HP383759  10.289   0.903   5.084  0.8324  0.5398 -1.5731
 3351THY    HP483760  10.180   0.866   4.955  1.1761  0.4945  0.0938
 3351THY    CP383761  10.119   0.955   5.290 -0.5017  0.5811  0.0074
 3351THY    HP583762  10.149   1.060   5.282 -1.3571  0.8427  0.1188
 3351THY    HP683763  10.037   0.946   5.363 -0.3317 -2.1246 -0.0238
 3351THY    HP783764  10.208   0.904   5.326  1.6087  2.5770 -2.0437
 3351THY    CA383765   9.910   1.080   5.120  0.5517  0.0517  0.3937
 3351THY    HA383766   9.978   1.148   5.171 -0.8544  1.5578  0.3499
 3351THY    CA483767   9.793   1.125   5.050 -0.1874 -0.6745 -0.0047
 3351THY    HA483768   9.759   1.226   5.069  1.4022 -0.0054 -0.5867
 3351THY    CA583769   9.710   1.036   4.982  0.0598 -0.3135  0.4629
 3351THY    CM183770   9.578   1.083   4.939  0.6585  0.5489  0.1065
 3351THY    HM183771   9.503   1.073   5.018 -0.6922 -3.0141 -1.3855
 3351THY    HM283772   9.586   1.190   4.921 -0.6373  0.9570  1.7348
 3351THY    HM383773   9.537   1.028   4.854  0.6139  0.6097  0.0887
 3351THY    CA683774   9.748   0.907   4.963  0.3976  0.0867  0.2319
 3351THY    HA683775   9.686   0.840   4.904  0.4972  0.7189 -0.6247
 3352THY      O83776   4.183   5.562   0.571 -0.3814  0.1813 -0.7851
 3352THY     HO83777   4.223   5.640   0.614 -0.6199  0.5880 -1.2820
 3352THY    CA183778   4.242   5.545   0.452  0.6516 -0.1735 -0.0734
 3352THY    CA283779   4.204   5.442   0.365  0.0533  0.2371  1.0954
 3352THY    CP183780   4.096   5.348   0.391  0.0942  0.1214  0.4112
 3352THY    HP183781   4.028   5.395   0.463  0.7246  2.4617 -0.4035
 3352THY    CP283782   4.005   5.306   0.271 -0.6923  0.2734  0.3528
 3352THY    HP283783   4.061   5.244   0.201  0.5914  0.9722  0.7190
 3352THY    HP383784   3.914   5.252   0.299  1.2872 -2.1641  2.5733
 3352THY    HP483785   3.975   5.398   0.220 -1.9619 -1.2655 -1.8303
 3352THY    CP383786   4.163   5.222   0.459  0.4619  0.2120 -0.6524
 3352THY    HP583787   4.243   5.183   0.396  0.8794 -0.0627  0.0369
 3352THY    HP683788   4.214   5.256   0.550 -0.8246  1.8311 -0.4910
 3352THY    HP783789   4.089   5.147   0.489  1.8880  0.6882  5.3026
 3352THY    CA383790   4.272   5.443   0.239  0.4391  0.3903  0.2016
 3352THY    HA383791   4.253   5.358   0.174 -1.6656 -0.1853  1.4754
 3352THY    CA483792   4.367   5.540   0.210 -0.2591  0.4864 -0.2358
 3352THY    HA483793   4.406   5.542   0.109  1.3086 -1.3360  0.2525
 3352THY    CA583794   4.401   5.637   0.304 -0.8005  0.4129  0.3218
 3352THY    CM183795   4.513   5.734   0.276 -0.6602  0.1164  0.2019
 3352THY    HM183796   4.519   5.810   0.356  0.9709  0.2052  0.0368
 3352THY    HM283797   4.610   5.688   0.301 -1.2536 -1.0511  0.4242
 3352THY    HM383798   4.512   5.779   0.176 -1.0630 -0.6033 -0.1189
 3352THY    CA683799   4.339   5.636   0.418 -0.0567  0.4710  0.4986
 3352THY    HA683800   4.374   5.708   0.492  0.3822  0.1757  0.5855
 3353THY      O83801   8.442   5.657   7.471 -0.4758 -0.4259  0.6816
 3353THY     HO83802   8.373   5.589   7.470  2.6474 -3.9554 -0.5576
 3353THY    CA183803   8.402   5.750   7.557  0.3546  0.2954 -0.3119
 3353THY    CA283804   8.480   5.800   7.662 -0.5747  0.5172  0.5881
 3353THY    CP183805   8.620   5.750   7.678  0.6502 -0.1254  0.2714
 3353THY    HP183806   8.627   5.646   7.643 -0.7465 -0.6938  1.5718
 3353THY    CP283807   8.706   5.837   7.595  0.7473 -0.0212  0.8471
 3353THY    HP283808   8.694   5.940   7.632 -1.5655 -0.5657  1.8094
 3353THY    HP383809   8.814   5.820   7.596  0.7635 -0.0430 -0.3016
 3353THY    HP483810   8.675   5.836   7.490  0.0575 -1.4122  1.0463
 3353THY    CP383811   8.674   5.739   7.818 -0.7137 -0.2711 -0.1203
 3353THY    HP583812   8.598   5.699   7.887  0.4287 -0.7781  0.8736
 3353THY    HP683813   8.768   5.684   7.827  2.1661  3.5193 -3.5573
 3353THY    HP783814   8.683   5.843   7.852  1.1157 -0.2633 -0.5553
 3353THY    CA383815   8.418   5.891   7.754  0.5788  0.2130 -0.0077
 3353THY    HA383816   8.480   5.924   7.836 -1.7107  1.2513  1.3915
 3353THY    CA483817   8.292   5.937   7.731  0.3450  0.0973 -0.1347
 3353THY    HA483818   8.237   6.005   7.795  0.1328 -0.4725  0.3025
 3353THY    CA583819   8.218   5.895   7.618 -0.5969 -0.1464  0.6443
 3353THY    CM183820   8.073   5.932   7.603 -0.0248 -0.4088 -0.4257
 3353THY    HM183821   8.028   5.947   7.702  0.2001  1.0966 -0.5337
 3353THY    HM283822   8.069   6.022   7.540  2.4996 -0.4420 -0.7524
 3353THY    HM383823   8.018   5.864   7.536  0.2842  0.3026 -1.4274
 3353THY    CA683824   8.276   5.801   7.530  0.1451 -0.2752  0.0858
 3353THY    HA683825   8.208   5.771   7.452  1.0879 -0.0857 -0.8330
 3354THY      O83826   1.973   6.861   2.669 -0.2011 -0.0123 -0.7918
 3354THY     HO83827   2.010   6.777   2.701 -1.7141 -0.0259  1.0863
 3354THY    CA183828   1.864   6.817   2.604  0.5905 -1.4723  0.4089
 3354THY    CA283829   1.749   6.899   2.582  0.0952  0.7664 -0.1910
 3354THY    CP183830   1.733   7.033   2.651 -0.0045 -0.2332  0.0833
 3354THY    HP183831   1.830   7.083   2.664  0.4138 -1.2473  0.9849
 3354THY    CP283832   1.656   7.148   2.568 -0.2167 -0.3712 -0.2888
 3354THY    HP283833   1.646   7.236   2.632 -0.5976  1.0833 -2.2749
 3354THY    HP383834   1.716   7.173   2.480 -1.4615 -2.5867 -1.8560
 3354THY    HP483835   1.556   7.111   2.542 -1.5014  0.7557  2.6516
 3354THY    CP383836   1.677   7.016   2.788 -0.7032 -0.2886 -0.1695
 3354THY    HP583837   1.568   7.017   2.798 -0.6906 -0.4369 -0.0229
 3354THY    HP683838   1.701   6.913   2.817  0.6807  0.0665  0.0261
 3354THY    HP783839   1.724   7.082   2.863 -0.3707 -2.8384  2.0168
 3354THY    CA383840   1.630   6.835   2.523  0.2784 -0.7971  0.0707
 3354THY    HA383841   1.534   6.885   2.516  0.8265  0.6608  1.9626
 3354THY    CA483842   1.634   6.701   2.474  0.3277 -0.2397  0.3111
 3354THY    HA483843   1.554   6.649   2.423  1.5983 -0.4394 -1.5458
 3354THY    CA583844   1.756   6.630   2.488  0.1063  0.1158 -0.8780
 3354THY    CM183845   1.763   6.502   2.415 -0.5351  0.8463  0.5338
 3354THY    HM183846   1.690   6.499   2.333 -2.1824 -2.0601  1.9598
 3354THY    HM283847   1.863   6.493   2.370  1.0685  3.8232  3.1365
 3354THY    HM383848   1.743   6.421   2.486  0.1005 -1.4266 -1.7174
 3354THY    CA683849   1.868   6.689   2.556 -0.7023 -0.0126  0.0876
 3354THY    HA683850   1.963   6.638   2.559  0.6943  2.0875 -2.7407
 3355THY      O83851   7.944   2.810   3.538 -0.7162 -0.1893 -1.0197
 3355THY     HO83852   8.014   2.780   3.477  0.2820 -0.8050  0.3715
 3355THY    CA183853   7.983   2.940   3.545 -0.4253 -0.2553 -0.0899
 3355THY    CA283854   7.973   3.001   3.667 -0.2296  0.0867  0.3448
 3355THY    CP183855   7.940   2.921   3.788 -0.3653  0.0121 -0.1754
 3355THY    HP183856   7.903   2.821   3.760  0.2155 -0.2630  0.0255
 3355THY    CP283857   8.062   2.896   3.875  0.5569 -0.3151  0.5864
 3355THY    HP283858   8.042   2.852   3.973 -0.4833 -0.9139  0.1220
 3355THY    HP383859   8.137   2.835   3.822 -0.4465 -1.3691  0.3436
 3355THY    HP483860   8.106   2.994   3.894  1.3008 -0.9721  2.4263
 3355THY    CP383861   7.826   2.995   3.872 -0.1244 -0.3420  0.7833
 3355THY    HP583862   7.794   2.926   3.951  0.5903 -2.5375 -0.7710
 3355THY    HP683863   7.852   3.096   3.906 -2.3208  2.1256 -3.9792
 3355THY    HP783864   7.737   3.010   3.811 -1.5163 -0.2701  2.7402
 3355THY    CA383865   7.992   3.139   3.671  0.0997 -0.5240 -0.1044
 3355THY    HA383866   7.981   3.203   3.758  0.2471 -0.2821 -0.2599
 3355THY    CA483867   8.022   3.203   3.553 -1.1573  0.2615  0.4412
 3355THY    HA483868   8.040   3.310   3.554 -0.0240  0.1458 -1.8002
 3355THY    CA583869   8.033   3.137   3.431  0.6825  0.1235  0.6224
 3355THY    CM183870   8.056   3.217   3.314 -0.1790  0.3935 -0.0877
 3355THY    HM183871   8.031   3.323   3.323 -1.0109  0.3071 -1.0463
 3355THY    HM283872   8.159   3.201   3.280  0.2779 -0.2471  1.5304
 3355THY    HM383873   7.986   3.188   3.234 -0.9191  1.2331  0.2394
 3355THY    CA683874   8.004   3.002   3.427 -0.1921 -0.2053  0.4215
 3355THY    HA683875   8.005   2.943   3.336  0.3356 -0.8753  0.8472
 3356THY      O83876   6.026   1.273   8.807 -0.6196 -0.6564 -0.3337
 3356THY     HO83877   6.123   1.261   8.807 -0.2207  1.4993  2.4876
 3356THY    CA183878   5.993   1.184   8.903 -1.3264  0.2107  0.2322
 3356THY    CA283879   5.860   1.164   8.929 -0.4278  0.3540  0.6476
 3356THY    CP183880   5.754   1.240   8.857  0.2026  0.1365 -0.0316
 3356THY    HP183881   5.800   1.307   8.783  0.5440  0.5685  0.5679
 3356THY    CP283882   5.660   1.142   8.776  0.0554 -0.0194  0.0614
 3356THY    HP283883   5.698   1.043   8.748 -1.0280 -1.1749  2.4293
 3356THY    HP383884   5.574   1.106   8.834  0.0409 -1.5639 -0.8444
 3356THY    HP483885   5.635   1.190   8.681  1.0504  1.6733  0.6144
 3356THY    CP383886   5.664   1.332   8.945  0.3167 -0.3496 -0.1218
 3356THY    HP583887   5.611   1.270   9.019 -0.7677  0.6544 -0.0412
 3356THY    HP683888   5.730   1.403   8.996  0.5349 -0.1025 -0.7468
 3356THY    HP783889   5.593   1.393   8.889  2.3508  1.7523 -0.5888
 3356THY    CA383890   5.822   1.064   9.016 -0.4301 -0.2047  0.4500
 3356THY    HA383891   5.717   1.041   9.022 -0.8891  1.6624  0.2635
 3356THY    CA483892   5.918   0.997   9.093  0.4187 -0.1989  0.1520
 3356THY    HA483893   5.885   0.930   9.172 -0.5646 -0.0936 -0.1618
 3356THY    CA583894   6.053   1.031   9.080 -0.2901  0.2376  0.4262
 3356THY    CM183895   6.160   0.943   9.150  0.4520 -0.2048 -0.5880
 3356THY    HM183896   6.221   1.014   9.206  0.1162  0.5245 -1.1209
 3356THY    HM283897   6.111   0.878   9.224  0.2051 -0.3672 -0.8935
 3356THY    HM383898   6.225   0.881   9.088  1.8773 -0.5383  1.1630
 3356THY    CA683899   6.096   1.127   8.986 -0.1820 -1.0288 -0.2394
 3356THY    HA683900   6.202   1.148   8.981 -0.5295  1.1174  0.4988
 3357THY      O83901   3.686   3.784   0.050 -0.7705 -0.6539 -0.3351
 3357THY     HO83902   3.778   3.806   0.073 -0.9748  1.3717 -1.2050
 3357THY    CA183903   3.649   3.863  -0.048  0.1667  0.6140  0.0770
 3357THY    CA283904   3.530   3.847  -0.120  0.8809  0.2917  0.1803
 3357THY    CP183905   3.441   3.728  -0.099  0.0071  0.1317  0.5186
 3357THY    HP183906   3.461   3.681  -0.002  1.1388  1.5700  1.0220
 3357THY    CP283907   3.294   3.770  -0.099 -0.1107  0.3694 -0.3174
 3357THY    HP283908   3.286   3.853  -0.027 -0.3848  2.1447 -2.3199
 3357THY    HP383909   3.251   3.805  -0.193 -0.9995  0.8472  0.2535
 3357THY    HP483910   3.229   3.686  -0.073  0.6317 -0.4936 -1.1856
 3357THY    CP383911   3.473   3.624  -0.203  0.6527  0.2672  0.6792
 3357THY    HP583912   3.437   3.664  -0.298  0.0566 -0.4185  0.6121
 3357THY    HP683913   3.569   3.571  -0.204 -0.2466 -1.6395 -3.0857
 3357THY    HP783914   3.400   3.547  -0.177 -0.9824  1.8051  0.7714
 3357THY    CA383915   3.508   3.932  -0.232 -0.2418  0.0193 -0.3122
 3357THY    HA383916   3.418   3.920  -0.292 -0.3070  0.7109 -0.3533
 3357THY    CA483917   3.578   4.042  -0.258 -0.2262 -0.5816 -0.1836
 3357THY    HA483918   3.547   4.104  -0.342 -0.2108 -1.5445 -0.9081
 3357THY    CA583919   3.702   4.060  -0.192  0.6884 -0.2576  0.0698
 3357THY    CM183920   3.791   4.173  -0.239 -0.4246  0.1876 -0.2573
 3357THY    HM183921   3.895   4.161  -0.207 -0.0202  2.0973 -0.6967
 3357THY    HM283922   3.790   4.184  -0.348 -1.2521  2.4644 -0.0899
 3357THY    HM383923   3.759   4.268  -0.193  2.0886 -0.1804  2.5655
 3357THY    CA683924   3.733   3.968  -0.087 -0.5389  0.0376  0.1356
 3357THY    HA683925   3.821   3.990  -0.029 -1.0775  1.0161  0.6107
 3358THY      O83926   1.807   4.376   2.601  0.1524  0.0737 -0.6636
 3358THY     HO83927   1.875   4.354   2.666 -2.3364  1.2885  2.5930
 3358THY    CA183928   1.798   4.511   2.600 -0.1200 -0.6804 -0.3366
 3358THY    CA283929   1.680   4.583   2.586 -0.1701  0.4826  0.2616
 3358THY    CP183930   1.550   4.494   2.589  0.0418 -0.6047  0.2218
 3358THY    HP183931   1.573   4.398   2.542  0.4466 -0.5348  0.2728
 3358THY    CP283932   1.498   4.496   2.731 -0.0997 -0.1866  0.5258
 3358THY    HP283933   1.468   4.595   2.769  1.8369  0.3939  0.6521
 3358THY    HP383934   1.415   4.429   2.754  0.9833 -2.4244 -1.6859
 3358THY    HP483935   1.569   4.451   2.802 -0.6270 -0.7735  0.6943
 3358THY    CP383936   1.449   4.546   2.488  0.0677 -0.1107 -1.1398
 3358THY    HP583937   1.482   4.583   2.390 -0.7879  2.6680 -0.4620
 3358THY    HP683938   1.370   4.469   2.486  1.1327 -1.4919  2.1965
 3358THY    HP783939   1.406   4.636   2.532  1.8818  0.3270 -0.1713
 3358THY    CA383940   1.679   4.726   2.584  0.4572  0.6606 -0.0739
 3358THY    HA383941   1.585   4.781   2.586 -0.6036 -1.0793  0.8951
 3358THY    CA483942   1.793   4.787   2.609  0.7440 -0.4339  0.1702
 3358THY    HA483943   1.794   4.895   2.612 -0.0622 -0.4019 -0.3857
 3358THY    CA583944   1.914   4.720   2.615 -0.1994  0.2190 -0.2162
 3358THY    CM183945   2.043   4.797   2.619  0.7119  0.1646 -0.4559
 3358THY    HM183946   2.038   4.869   2.701 -1.1381  1.2762 -1.4797
 3358THY    HM283947   2.129   4.729   2.624 -0.3821 -1.2965 -0.9460
 3358THY    HM383948   2.058   4.855   2.527 -0.3504  0.7729 -0.2698
 3358THY    CA683949   1.918   4.576   2.609 -0.1351 -0.6172 -0.2285
 3358THY    HA683950   2.011   4.520   2.602  0.1112 -0.5125  1.7678
 3359THY      O83951   8.184   1.939   4.231  0.0650 -0.3346  0.4310
 3359THY     HO83952   8.191   1.902   4.320 -0.0406  0.2781  0.6964
 3359THY    CA183953   8.084   2.030   4.246  0.3229  0.8225 -0.1914
 3359THY    CA283954   8.083   2.156   4.167  0.1892  0.2913 -0.4397
 3359THY    CP183955   8.178   2.172   4.047 -0.7327 -0.1983 -0.2092
 3359THY    HP183956   8.265   2.107   4.059 -0.5784 -0.3459 -1.8260
 3359THY    CP283957   8.126   2.126   3.906 -0.5408 -0.0127  0.0708
 3359THY    HP283958   8.082   2.214   3.858 -1.0019  0.5004  1.3912
 3359THY    HP383959   8.207   2.083   3.845 -1.0013 -0.4264 -0.2493
 3359THY    HP483960   8.043   2.057   3.921 -1.0295  0.9420  2.1067
 3359THY    CP383961   8.229   2.319   4.041  0.1291 -0.3338 -1.0774
 3359THY    HP583962   8.267   2.352   4.139  0.0854  1.2906 -1.5695
 3359THY    HP683963   8.309   2.329   3.967  0.4539 -0.4612 -0.7514
 3359THY    HP783964   8.143   2.381   4.014  0.3499  0.4110 -0.1421
 3359THY    CA383965   7.976   2.244   4.196  0.6668 -0.1512 -0.0435
 3359THY    HA383966   7.960   2.334   4.137  0.7952  0.1412  0.3662
 3359THY    CA483967   7.884   2.219   4.299 -0.6600  0.3520  0.1320
 3359THY    HA483968   7.805   2.291   4.321  1.2189  1.5265  3.9696
 3359THY    CA583969   7.895   2.102   4.378  0.0715 -0.0985 -0.2099
 3359THY    CM183970   7.790   2.058   4.479 -0.4391  0.0547 -0.1049
 3359THY    HM183971   7.715   2.138   4.477  1.9365  2.4212 -0.2719
 3359THY    HM283972   7.756   1.961   4.439 -0.6525 -0.0704  0.3839
 3359THY    HM383973   7.816   2.041   4.583 -2.7739 -0.5889  0.4406
 3359THY    CA683974   7.996   2.007   4.356  0.1195 -0.0231 -0.8187
 3359THY    HA683975   7.989   1.915   4.412 -0.6118  1.3248  1.4167
 3360THY      O83976   7.641   4.130   6.680 -0.0053 -0.0298  0.3584
 3360THY     HO83977   7.667   4.102   6.770  1.1636 -2.6221 -0.6680
 3360THY    CA183978   7.704   4.242   6.661 -0.0779  0.1414  0.0181
 3360THY    CA283979   7.743   4.285   6.540 -0.1228  0.0909  0.2570
 3360THY    CP183980   7.699   4.212   6.412  0.1373  0.1267 -0.0002
 3360THY    HP183981   7.691   4.103   6.425  1.4037 -0.3264 -2.3902
 3360THY    CP283982   7.561   4.254   6.367  0.5251 -0.1344  0.3068
 3360THY    HP283983   7.521   4.201   6.279 -1.8067  2.6296 -0.4505
 3360THY    HP383984   7.498   4.243   6.456  1.2661  2.7049  1.2881
 3360THY    HP483985   7.563   4.361   6.345 -2.2743  0.2510  1.5419
 3360THY    CP383986   7.807   4.212   6.302  0.5698  0.2250  0.7988
 3360THY    HP583987   7.816   4.303   6.242 -3.8227 -1.0206 -2.2443
 3360THY    HP683988   7.900   4.172   6.344 -0.3375 -2.7854  0.1937
 3360THY    HP783989   7.778   4.130   6.235  0.1856  0.5002  0.6209
 3360THY    CA383990   7.790   4.415   6.525  0.1089 -0.8161  0.1794
 3360THY    HA383991   7.823   4.462   6.433  0.4202  2.9009  1.9917
 3360THY    CA483992   7.844   4.479   6.642 -0.4256  0.6730  0.1294
 3360THY    HA483993   7.909   4.566   6.636  2.3429 -1.3135 -0.9227
 3360THY    CA583994   7.830   4.428   6.768 -0.6356  0.3690 -0.3704
 3360THY    CM183995   7.891   4.490   6.891 -0.5431 -0.5840 -0.0132
 3360THY    HM183996   7.898   4.415   6.971  2.1958 -0.1686  0.2465
 3360THY    HM283997   7.993   4.524   6.872 -0.6631  0.1360  0.5950
 3360THY    HM383998   7.839   4.584   6.910 -0.6975 -0.5939 -0.3792
 3360THY    CA683999   7.754   4.312   6.776  0.1144  0.1215 -0.4886
 3360THY    HA684000   7.729   4.276   6.876  1.7714 -1.3894 -0.5560
 3361THY      O84001   7.018   3.738   1.758  0.2362 -0.4569  0.2948
 3361THY     HO84002   7.082   3.669   1.736  1.9155  1.6198 -1.8534
 3361THY    CA184003   7.025   3.779   1.891  0.2575  0.1723 -0.3071
 3361THY    CA284004   6.982   3.901   1.938  0.4360  0.1629 -0.1227
 3361THY    CP184005   6.952   4.019   1.844  0.5750 -0.3563  0.3927
 3361THY    HP184006   6.938   3.987   1.740  1.6057  0.7749 -0.1243
 3361THY    CP284007   6.828   4.111   1.880 -0.6534  0.1741 -0.5955
 3361THY    HP284008   6.838   4.167   1.973  0.1381 -0.1868 -0.4470
 3361THY    HP384009   6.811   4.186   1.802  0.0637 -1.1871 -2.1475
 3361THY    HP484010   6.736   4.053   1.896 -1.2171  1.6555  2.0598
 3361THY    CP384011   7.079   4.104   1.838 -0.0331  0.1101  0.4272
 3361THY    HP584012   7.099   4.149   1.936 -0.7572 -2.5529  1.9214
 3361THY    HP684013   7.166   4.040   1.819 -0.8430 -1.7152  2.4118
 3361THY    HP784014   7.084   4.186   1.766  1.5995  0.0235  0.4153
 3361THY    CA384015   6.978   3.927   2.080  0.9602  0.2096  1.2031
 3361THY    HA384016   6.944   4.018   2.127 -1.2815  0.8619 -1.4114
 3361THY    CA484017   7.013   3.820   2.166 -0.5759 -0.4046  0.2124
 3361THY    HA484018   7.000   3.834   2.273 -1.0406 -0.5987  0.1847
 3361THY    CA584019   7.058   3.700   2.111 -0.1918  0.4144  0.0426
 3361THY    CM184020   7.097   3.587   2.198 -0.8698  0.5679  0.0947
 3361THY    HM184021   7.204   3.589   2.221 -0.6657 -1.2751 -0.5195
 3361THY    HM284022   7.032   3.582   2.286 -1.4454 -0.3933 -0.3679
 3361THY    HM384023   7.079   3.492   2.147  0.4288 -0.6535  1.8071
 3361THY    CA684024   7.061   3.679   1.979 -0.1103  0.5356 -0.1392
 3361THY    HA684025   7.089   3.580   1.943 -1.0566 -0.4934  1.8057
 3362THY      O84026   5.433   8.932   5.701  0.0502  0.0285  0.1704
 3362THY     HO84027   5.481   9.017   5.699 -1.6271  1.0641 -2.5460
 3362THY    CA184028   5.305   8.968   5.697 -0.3806  0.4147 -0.2961
 3362THY    CA284029   5.239   8.953   5.816  0.3897  0.5324  0.4133
 3362THY    CP184030   5.305   8.905   5.940  0.8730  0.4541 -0.4301
 3362THY    HP184031   5.399   8.850   5.930  0.7762 -0.0610  1.1938
 3362THY    CP284032   5.326   9.020   6.042 -0.3632  0.3028  0.1393
 3362THY    HP284033   5.241   9.088   6.041  0.5871  1.5683  1.3569
 3362THY    HP384034   5.355   8.987   6.143 -1.3249 -2.3000 -0.3603
 3362THY    HP484035   5.396   9.095   6.004  0.8575  0.2764  2.1833
 3362THY    CP384036   5.218   8.794   6.011  0.5571  0.2945 -0.2756
 3362THY    HP584037   5.189   8.724   5.932  1.2118 -0.4218  0.1121
 3362THY    HP684038   5.267   8.751   6.099 -0.0905 -2.2735 -1.0959
 3362THY    HP784039   5.127   8.841   6.050 -0.5621 -0.3839 -1.9438
 3362THY    CA384040   5.093   8.984   5.814  0.3430  0.0059  0.1558
 3362THY    HA384041   5.046   8.976   5.911 -0.9319  2.1287 -0.2291
 3362THY    CA484042   5.027   9.022   5.696  0.4965 -0.2681 -0.4334
 3362THY    HA484043   4.927   9.063   5.700  0.3334 -0.7668  0.8945
 3362THY    CA584044   5.103   9.040   5.580 -0.0356 -0.0685  0.0040
 3362THY    CM184045   5.045   9.080   5.446 -0.4929  0.1425  0.1995
 3362THY    HM184046   5.041   8.995   5.377 -2.2745  0.4533 -0.1304
 3362THY    HM284047   4.950   9.134   5.443 -0.3398  0.3892 -0.3636
 3362THY    HM384048   5.109   9.156   5.401 -2.2868  1.1425 -0.7521
 3362THY    CA684049   5.246   9.011   5.581  0.8684  0.6184  0.1503
 3362THY    HA684050   5.307   9.026   5.492 -0.2492 -2.7221 -1.3509
 3363THY      O84051   4.263   8.211   0.712 -0.2687 -0.0614  0.0143
 3363THY     HO84052   4.260   8.305   0.688  1.2348  0.7754  2.6207
 3363THY    CA184053   4.136   8.174   0.714 -0.4066 -0.0840 -0.0315
 3363THY    CA284054   4.099   8.046   0.771  0.6790  0.4006 -0.2548
 3363THY    CP184055   4.198   7.959   0.851  0.3211 -0.0484 -0.2033
 3363THY    HP184056   4.301   7.995   0.845 -0.0840  0.9418 -2.0358
 3363THY    CP284057   4.163   7.963   0.998 -0.0250 -0.1152 -0.9117
 3363THY    HP284058   4.062   7.921   1.013 -1.0828  0.8244 -4.5040
 3363THY    HP384059   4.240   7.904   1.048  1.1209 -0.9049 -3.4591
 3363THY    HP484060   4.168   8.063   1.042 -2.1618 -0.5770  0.5388
 3363THY    CP384061   4.211   7.811   0.803 -0.3626 -0.1903 -0.2234
 3363THY    HP584062   4.113   7.765   0.787  0.2252 -1.2021 -1.0365
 3363THY    HP684063   4.265   7.804   0.708 -0.7842 -2.0728 -0.3462
 3363THY    HP784064   4.274   7.756   0.874 -0.0789 -0.8362 -0.9625
 3363THY    CA384065   3.964   8.003   0.761  0.0270 -0.3966 -0.4094
 3363THY    HA384066   3.932   7.913   0.813  0.0045 -1.0770 -1.5722
 3363THY    CA484067   3.871   8.092   0.697 -0.2586 -0.4619 -0.7169
 3363THY    HA484068   3.764   8.078   0.699 -0.2184 -0.6857  0.4600
 3363THY    CA584069   3.913   8.212   0.632  0.0791  0.6101 -0.3306
 3363THY    CM184070   3.813   8.311   0.573 -0.0131  0.6034 -0.1979
 3363THY    HM184071   3.824   8.307   0.464  0.0442 -0.1564 -0.1660
 3363THY    HM284072   3.709   8.285   0.595  0.2723 -0.0780  0.3865
 3363THY    HM384073   3.839   8.408   0.617 -0.5200  1.0002 -0.7549
 3363THY    CA684074   4.040   8.259   0.648 -0.9018  0.6224  0.6793
 3363THY    HA684075   4.077   8.353   0.607  1.3123  0.0271  1.1856
 3364THY      O84076   1.936   4.983   0.744  0.0738  0.6229  0.4692
 3364THY     HO84077   1.985   5.048   0.799  2.2170 -0.9536  0.5365
 3364THY    CA184078   1.816   4.967   0.806 -0.5688 -0.4160  0.1539
 3364THY    CA284079   1.718   4.882   0.745  0.9012  0.8686  0.3338
 3364THY    CP184080   1.751   4.814   0.616  0.8845  0.3358  0.0414
 3364THY    HP184081   1.853   4.827   0.579  0.3953  2.8740 -0.5595
 3364THY    CP284082   1.708   4.662   0.617  0.6367 -0.1546 -1.0063
 3364THY    HP284083   1.755   4.610   0.533  1.6922 -0.6610 -0.1286
 3364THY    HP384084   1.751   4.616   0.707  0.5205 -0.6220 -1.1863
 3364THY    HP484085   1.599   4.646   0.611  0.3442  1.5393 -0.7457
 3364THY    CP384086   1.670   4.870   0.503 -0.0922  0.4494  0.6350
 3364THY    HP584087   1.714   4.848   0.406  2.0405  1.7523  1.2422
 3364THY    HP684088   1.569   4.827   0.496 -0.1101  0.8169 -1.9907
 3364THY    HP784089   1.647   4.976   0.513  0.2531  0.5161  0.7234
 3364THY    CA384090   1.600   4.855   0.819  0.2035  0.2191 -0.9065
 3364THY    HA384091   1.533   4.781   0.775  0.0804  0.0869 -0.4992
 3364THY    CA484092   1.581   4.928   0.943  0.6161  0.4099 -0.3409
 3364THY    HA484093   1.490   4.913   1.000  1.8108  0.6375  1.7546
 3364THY    CA584094   1.689   5.002   0.999 -0.5069 -0.1544  0.0909
 3364THY    CM184095   1.679   5.072   1.131  0.4983  0.3351 -0.4570
 3364THY    HM184096   1.776   5.091   1.178 -0.4383  0.3066  1.6086
 3364THY    HM284097   1.626   5.167   1.116  1.8861  1.0310 -1.0559
 3364THY    HM384098   1.633   4.997   1.197  3.6218 -1.8690 -0.5537
 3364THY    CA684099   1.795   5.024   0.926 -0.4106 -1.1303  0.1798
 3364THY    HA684100   1.878   5.086   0.958  1.8746 -4.0383  0.3055
 3365THY      O84101   9.053   4.349   7.061 -0.2156  0.1873  0.2101
 3365THY     HO84102   9.084   4.267   7.104 -0.2016 -1.1802 -2.2291
 3365THY    CA184103   8.980   4.299   6.960 -0.2484  0.3033 -0.2221
 3365THY    CA284104   8.972   4.355   6.837 -0.1630 -0.2325  0.0459
 3365THY    CP184105   9.036   4.495   6.814 -0.2165  0.0561  0.3449
 3365THY    HP184106   9.028   4.550   6.908 -1.3020  1.3232 -0.4468
 3365THY    CP284107   9.195   4.478   6.794 -0.0672  0.1219 -0.1498
 3365THY    HP284108   9.225   4.444   6.694 -1.3455 -0.0769 -0.4812
 3365THY    HP384109   9.241   4.578   6.800 -0.9331  0.7473 -2.4695
 3365THY    HP484110   9.239   4.407   6.864  0.4499 -0.0786 -0.6671
 3365THY    CP384111   8.970   4.582   6.704  0.2435 -0.3034  0.0853
 3365THY    HP584112   9.014   4.682   6.697 -0.7047  0.1291  0.1773
 3365THY    HP684113   8.985   4.530   6.608 -0.1688 -0.4350  0.0897
 3365THY    HP784114   8.863   4.597   6.719  0.2231 -1.0288  0.7441
 3365THY    CA384115   8.904   4.292   6.727  0.7672 -0.6101  0.5237
 3365THY    HA384116   8.908   4.332   6.626 -0.6632  1.2676  1.1647
 3365THY    CA484117   8.841   4.167   6.748  0.3318 -0.2954  0.1689
 3365THY    HA484118   8.795   4.105   6.671  1.2993 -0.9569  0.1038
 3365THY    CA584119   8.850   4.111   6.878  1.2998 -0.0900  0.5991
 3365THY    CM184120   8.798   3.973   6.904 -0.0349  0.9122  0.2363
 3365THY    HM184121   8.817   3.918   6.997 -4.1921 -0.8541  0.2652
 3365THY    HM284122   8.688   3.978   6.911 -0.0807  1.4475 -0.8086
 3365THY    HM384123   8.812   3.900   6.824  1.1469 -2.3428  3.1149
 3365THY    CA684124   8.918   4.177   6.978 -0.0197 -0.4130  0.7886
 3365THY    HA684125   8.918   4.129   7.075  1.2921 -0.3384  0.8356
 3366THY      O84126   4.854   9.472   6.336 -0.9059  0.0408  1.1181
 3366THY     HO84127   4.838   9.377   6.320 -0.0865  0.1989 -0.9489
 3366THY    CA184128   4.979   9.488   6.275  0.3269 -0.1314 -0.1132
 3366THY    CA284129   5.024   9.603   6.205  0.5780 -0.7257 -0.2445
 3366THY    CP184130   4.935   9.726   6.197 -0.4350  0.5450  0.4342
 3366THY    HP184131   4.846   9.704   6.257 -0.9961  0.6557 -0.3374
 3366THY    CP284132   4.999   9.860   6.245  0.4759  0.1103 -0.7097
 3366THY    HP284133   5.052   9.831   6.336  1.6119  0.2892 -1.3024
 3366THY    HP384134   5.074   9.911   6.183  0.8767  1.7793  1.0793
 3366THY    HP484135   4.923   9.935   6.270  2.9840  1.6151  3.2144
 3366THY    CP384136   4.892   9.739   6.055  0.1947 -0.0348  0.4983
 3366THY    HP584137   4.804   9.674   6.045 -1.1434  1.9566 -1.8943
 3366THY    HP684138   4.853   9.840   6.033  0.5603  0.2602  1.1845
 3366THY    HP784139   4.967   9.721   5.977 -2.3205 -1.8464 -1.7019
 3366THY    CA384140   5.153   9.600   6.153  0.4600  0.0098 -0.7461
 3366THY    HA384141   5.199   9.678   6.093 -0.1356  1.3358  0.4641
 3366THY    CA484142   5.235   9.496   6.200 -0.3095 -0.5851  0.7901
 3366THY    HA484143   5.338   9.491   6.165  0.1584  0.1739  2.0255
 3366THY    CA584144   5.192   9.387   6.272 -0.4362  0.2495  0.7902
 3366THY    CM184145   5.285   9.279   6.312  0.1850  0.0264 -0.7399
 3366THY    HM184146   5.343   9.316   6.397  0.0416 -0.3012 -0.4983
 3366THY    HM284147   5.224   9.202   6.361 -1.3051  2.0019  0.6145
 3366THY    HM384148   5.339   9.231   6.229  0.3451  1.3550 -1.4266
 3366THY    CA684149   5.063   9.385   6.311 -0.6845  0.2774 -0.7481
 3366THY    HA684150   5.036   9.308   6.383 -0.4651 -1.0220 -1.9922
 3367THY      O84151   5.777   8.706   8.122  0.3975 -0.0738  0.1646
 3367THY     HO84152   5.748   8.622   8.160 -1.6200  0.3551 -0.2875
 3367THY    CA184153   5.671   8.789   8.120  0.2783 -0.5570 -0.1975
 3367THY    CA284154   5.687   8.923   8.086  0.1114  0.5191  0.5818
 3367THY    CP184155   5.823   8.976   8.045 -0.1666  0.0543  0.1422
 3367THY    HP184156   5.872   8.897   7.987 -0.2368  0.7304 -0.8498
 3367THY    CP284157   5.811   9.110   7.959  0.2378  0.9523 -0.0269
 3367THY    HP284158   5.769   9.192   8.019  2.1565  0.5717  1.9572
 3367THY    HP384159   5.911   9.138   7.922  0.3390  1.4843  0.6237
 3367THY    HP484160   5.740   9.102   7.876 -1.8713  0.2484  1.7527
 3367THY    CP384161   5.922   8.999   8.159  0.6271  0.2318 -0.1644
 3367THY    HP584162   5.877   9.072   8.226 -0.9750 -2.4024  1.8610
 3367THY    HP684163   5.933   8.904   8.214  0.1041  0.0989 -0.2824
 3367THY    HP784164   6.023   9.024   8.124  0.3826 -0.5043 -1.4559
 3367THY    CA384165   5.569   9.006   8.092 -0.6169 -0.1377  0.0852
 3367THY    HA384166   5.585   9.113   8.077 -0.2666  0.2506  2.7854
 3367THY    CA484167   5.446   8.946   8.128 -0.1134 -0.3788 -0.7147
 3367THY    HA484168   5.359   9.010   8.114  0.6208  0.8708  0.2673
 3367THY    CA584169   5.436   8.812   8.163 -0.3201 -0.6024  0.4852
 3367THY    CM184170   5.303   8.748   8.187 -0.4892  0.0684  0.2072
 3367THY    HM184171   5.302   8.640   8.205 -0.1253 -0.4643 -2.5554
 3367THY    HM284172   5.254   8.810   8.264  0.6430  2.1212 -0.6461
 3367THY    HM384173   5.238   8.760   8.100 -0.4783 -1.6627 -0.0617
 3367THY    CA684174   5.549   8.733   8.155 -0.1265 -0.4802  0.5229
 3367THY    HA684175   5.542   8.629   8.187 -0.0731 -1.0405 -1.1622
 3368THY      O84176   7.462   9.844   6.704 -0.1844 -0.5105  0.1045
 3368THY     HO84177   7.528   9.777   6.682 -0.9932 -0.9623 -0.9883
 3368THY    CA184178   7.484   9.887   6.826  0.4646  0.2020 -0.1337
 3368THY    CA284179   7.394   9.975   6.885  0.6528 -0.1364  0.4305
 3368THY    CP184180   7.266  10.018   6.804  0.4654  0.1957 -0.3176
 3368THY    HP184181   7.281  10.003   6.696  0.1043  1.6729 -0.6040
 3368THY    CP284182   7.141   9.940   6.834  0.4191 -0.1357 -0.3453
 3368THY    HP284183   7.109   9.971   6.935 -0.1544  0.6949 -0.7695
 3368THY    HP384184   7.060   9.958   6.762 -1.9312 -1.5925  1.7298
 3368THY    HP484185   7.184   9.839   6.838  2.9959  0.8949 -0.0209
 3368THY    CP384186   7.243  10.169   6.816 -0.4660  0.1283  0.1462
 3368THY    HP584187   7.333  10.223   6.786  0.1870  0.3803  2.3955
 3368THY    HP684188   7.164  10.201   6.747  0.5738  2.1536 -0.1666
 3368THY    HP784189   7.210  10.188   6.918  0.2405 -2.8487  1.0468
 3368THY    CA384190   7.412  10.017   7.018 -0.2716  0.2530  0.2831
 3368THY    HA384191   7.345  10.083   7.072  1.0085 -0.3830  2.8333
 3368THY    CA484192   7.528   9.964   7.080 -0.8808  0.3758  0.1286
 3368THY    HA484193   7.549   9.986   7.184  0.7415 -0.8894  0.1096
 3368THY    CA584194   7.621   9.884   7.014 -0.0785  0.6096 -0.6287
 3368THY    CM184195   7.740   9.831   7.088 -1.2896  0.1265 -0.0404
 3368THY    HM184196   7.799   9.911   7.136  0.7487 -2.0233  1.2424
 3368THY    HM284197   7.703   9.762   7.165 -0.0599 -2.0286 -1.2817
 3368THY    HM384198   7.808   9.771   7.026  0.1891  2.3116 -0.6518
 3368THY    CA684199   7.598   9.848   6.882 -0.1194  0.2871  0.6724
 3368THY    HA684200   7.672   9.795   6.823 -1.5599 -3.2238  1.7491
 3369THY      O84201   8.452   3.774   5.861  0.1059 -0.3365  0.2841
 3369THY     HO84202   8.439   3.678   5.849  0.5441 -0.3932  0.2504
 3369THY    CA184203   8.553   3.813   5.786  0.7202  0.1893  0.2747
 3369THY    CA284204   8.611   3.943   5.808  0.3068  0.2116  0.0904
 3369THY    CP184205   8.555   4.039   5.915 -0.3615  0.1374  0.4714
 3369THY    HP184206   8.461   3.997   5.953 -0.8570 -0.4239 -1.2771
 3369THY    CP284207   8.655   4.048   6.026  0.4071  0.2398 -0.3880
 3369THY    HP284208   8.616   4.109   6.108  0.7825  1.6989 -1.2668
 3369THY    HP384209   8.668   3.945   6.061 -1.0698  0.0337 -0.3656
 3369THY    HP484210   8.745   4.092   5.981 -0.3861 -0.1240 -2.4596
 3369THY    CP384211   8.513   4.179   5.859  1.1533 -0.3215  0.1515
 3369THY    HP584212   8.466   4.249   5.929  1.3028 -1.2917  1.2535
 3369THY    HP684213   8.599   4.221   5.806 -0.8620  0.7730 -2.4750
 3369THY    HP784214   8.442   4.155   5.779 -0.7552 -1.4708  2.0888
 3369THY    CA384215   8.716   3.982   5.726  0.3832  0.3753  0.5059
 3369THY    HA384216   8.768   4.077   5.733  0.5165  0.4525 -1.2214
 3369THY    CA484217   8.774   3.893   5.632  0.5383 -0.1971 -0.8727
 3369THY    HA484218   8.860   3.925   5.573  0.2299  1.1547 -0.5989
 3369THY    CA584219   8.716   3.763   5.620  0.8909 -0.1773  0.3766
 3369THY    CM184220   8.765   3.665   5.515  0.1076 -0.8825 -0.0830
 3369THY    HM184221   8.852   3.607   5.548  2.0017  0.3442 -2.6236
 3369THY    HM284222   8.686   3.602   5.471  0.1746  0.9664 -3.1210
 3369THY    HM384223   8.810   3.720   5.432 -0.1267 -1.8154 -0.8359
 3369THY    CA684224   8.600   3.731   5.688  0.8577  0.4026 -0.5225
 3369THY    HA684225   8.561   3.632   5.668  0.1609  0.6787 -0.5495
 3370THY      O84226   5.443   9.770   6.235 -0.5643  0.2463  0.0228
 3370THY     HO84227   5.512   9.708   6.265  0.9678  1.3516 -1.0795
 3370THY    CA184228   5.422   9.850   6.346  0.7202 -0.2009 -0.3859
 3370THY    CA284229   5.502   9.837   6.461 -0.3687  0.6665  0.1960
 3370THY    CP184230   5.592   9.706   6.490  0.8263 -0.0707 -0.6711
 3370THY    HP184231   5.607   9.699   6.598  0.3644 -0.4900 -0.6321
 3370THY    CP284232   5.531   9.571   6.448  0.2092 -0.1062 -0.4245
 3370THY    HP284233   5.519   9.502   6.532  0.5044 -0.4646 -0.6743
 3370THY    HP384234   5.425   9.592   6.434  0.3883  3.1009  1.7734
 3370THY    HP484235   5.575   9.531   6.357  0.0288 -0.2325 -0.4556
 3370THY    CP384236   5.745   9.734   6.438  0.4394  0.0990 -0.6887
 3370THY    HP584237   5.797   9.805   6.503 -1.8814  0.3176  1.0506
 3370THY    HP684238   5.808   9.645   6.436 -0.1530 -0.3478  0.0008
 3370THY    HP784239   5.730   9.771   6.336  0.1346  1.3311 -0.2116
 3370THY    CA384240   5.468   9.923   6.564 -0.0660  0.3842 -0.5102
 3370THY    HA384241   5.526   9.924   6.656  2.1970  0.3790 -1.8500
 3370THY    CA484242   5.365  10.019   6.555 -0.3009 -0.8363 -0.2543
 3370THY    HA484243   5.340  10.080   6.642 -0.6651  0.7657 -1.4303
 3370THY    CA584244   5.292  10.030   6.435  0.5027 -0.2002 -0.1893
 3370THY    CM184245   5.174  10.117   6.418  0.3387  0.5292  0.3705
 3370THY    HM184246   5.166  10.165   6.319 -0.3422 -1.9639 -0.8599
 3370THY    HM284247   5.084  10.055   6.413 -0.7919  2.0629  0.6229
 3370THY    HM384248   5.159  10.195   6.494 -0.2244  2.3252 -1.4596
 3370THY    CA684249   5.328   9.954   6.325  0.7126 -0.1966  0.2114
 3370THY    HA684250   5.267   9.958   6.235 -0.7308  2.2609  1.1899
 3371THY      O84251   3.082   0.149   8.973 -0.3006 -0.2528 -0.4070
 3371THY     HO84252   3.155   0.086   8.968 -1.1960 -1.2353 -1.5277
 3371THY    CA184253   2.991   0.082   8.891 -0.2350  0.0549  0.0953
 3371THY    CA284254   2.885   0.148   8.824 -0.0686  0.2546 -0.0165
 3371THY    CP184255   2.883   0.301   8.828  0.3111 -0.5687  0.3162
 3371THY    HP184256   2.912   0.331   8.929  2.1134 -0.8337 -0.0785
 3371THY    CP284257   2.984   0.378   8.747 -0.2851 -0.4907  0.0142
 3371THY    HP284258   3.084   0.333   8.739  0.3415  1.1789 -3.0847
 3371THY    HP384259   2.943   0.381   8.645 -0.3612 -2.7836 -0.0791
 3371THY    HP484260   2.992   0.481   8.782  1.7456 -0.4994 -0.2921
 3371THY    CP384261   2.748   0.356   8.789  0.6771 -0.1579  0.1486
 3371THY    HP584262   2.725   0.358   8.682  0.3803 -0.8696  0.1976
 3371THY    HP684263   2.670   0.304   8.846  0.4245  1.0246  0.9209
 3371THY    HP784264   2.753   0.461   8.820  0.6525  0.7290 -2.6307
 3371THY    CA384265   2.795   0.073   8.743  0.3447 -0.0344  0.6693
 3371THY    HA384266   2.716   0.127   8.693 -0.5209  0.4712  2.4840
 3371THY    CA484267   2.812  -0.057   8.721 -0.0375 -0.2913 -0.3109
 3371THY    HA484268   2.750  -0.119   8.656  0.1539 -1.1996  0.3541
 3371THY    CA584269   2.914  -0.126   8.788 -0.6088  0.8235 -0.2795
 3371THY    CM184270   2.936  -0.276   8.749 -0.0382  0.1431 -0.3980
 3371THY    HM184271   2.989  -0.337   8.823 -1.8139 -2.2042 -0.9367
 3371THY    HM284272   2.841  -0.330   8.737 -0.9363  1.4031  0.7313
 3371THY    HM384273   3.007  -0.285   8.666  0.6663 -1.2044  0.3342
 3371THY    CA684274   3.004  -0.056   8.870  0.2159 -0.4512  0.0382
 3371THY    HA684275   3.059  -0.116   8.941 -2.1523 -1.3393  1.2244
 3372THY      O84276   1.303   1.660   6.634 -0.5259  0.0302 -0.4353
 3372THY     HO84277   1.249   1.740   6.626 -1.7204 -0.6245  0.6797
 3372THY    CA184278   1.232   1.546   6.624  0.0173 -0.3409 -0.0291
 3372THY    CA284279   1.280   1.421   6.657 -0.2681  0.5731 -0.6017
 3372THY    CP184280   1.425   1.406   6.706 -0.8927  0.9921  0.0406
 3372THY    HP184281   1.465   1.507   6.717  1.1291  0.2535 -0.1237
 3372THY    CP284282   1.458   1.325   6.840  0.1206 -0.2776 -0.0444
 3372THY    HP284283   1.565   1.329   6.866  1.0266 -0.2618 -3.3086
 3372THY    HP384284   1.395   1.356   6.924 -0.2919 -3.2292  0.8520
 3372THY    HP484285   1.431   1.220   6.825 -1.7585  0.3573 -1.3607
 3372THY    CP384286   1.502   1.338   6.585  0.0404  0.1264  0.1025
 3372THY    HP584287   1.604   1.306   6.610  0.2628  1.8265  1.6251
 3372THY    HP684288   1.453   1.253   6.537 -0.6080 -0.1381  1.1999
 3372THY    HP784289   1.514   1.412   6.504 -0.0045 -0.1795 -0.1831
 3372THY    CA384290   1.196   1.314   6.641  0.5482 -0.3854  0.0156
 3372THY    HA384291   1.228   1.217   6.676 -0.4179 -0.9130 -0.5223
 3372THY    CA484292   1.055   1.340   6.608 -0.4690 -0.0141  0.1379
 3372THY    HA484293   0.987   1.256   6.612  1.3771 -1.5676  3.7429
 3372THY    CA584294   1.010   1.466   6.571 -0.3129 -0.3577 -0.4676
 3372THY    CM184295   0.864   1.503   6.531  0.2392  0.2490 -0.2108
 3372THY    HM184296   0.860   1.575   6.449 -0.6324  1.8789  1.2006
 3372THY    HM284297   0.815   1.415   6.486 -1.0232 -0.6273  2.6418
 3372THY    HM384298   0.807   1.551   6.611 -2.9212 -2.7377 -0.4158
 3372THY    CA684299   1.110   1.566   6.568  0.1854  0.0002 -0.2476
 3372THY    HA684300   1.075   1.663   6.534 -1.0337 -0.0016  0.9021
 3373THY      O84301   5.213   9.186   1.279  0.3560  0.9549  0.2163
 3373THY     HO84302   5.188   9.258   1.218 -0.7188 -0.1728 -0.7196
 3373THY    CA184303   5.226   9.240   1.402  0.3058  0.0555  0.1689
 3373THY    CA284304   5.347   9.287   1.453 -0.2566  0.1176  0.1191
 3373THY    CP184305   5.477   9.282   1.372  0.0873  0.4795  0.0730
 3373THY    HP184306   5.462   9.242   1.271 -0.0472 -0.2665  0.3885
 3373THY    CP284307   5.530   9.424   1.343  0.3301 -0.5927  0.2432
 3373THY    HP284308   5.447   9.479   1.296  0.5956 -0.3192  0.0915
 3373THY    HP384309   5.557   9.490   1.426  0.6156  0.1726 -0.4412
 3373THY    HP484310   5.613   9.419   1.272  0.9513 -0.4048  0.9474
 3373THY    CP384311   5.577   9.201   1.447 -0.9255 -0.9844 -0.2689
 3373THY    HP584312   5.610   9.259   1.534 -0.7695 -1.2394 -0.1562
 3373THY    HP684313   5.537   9.102   1.472  1.2306 -2.4701 -2.3056
 3373THY    HP784314   5.667   9.188   1.387  1.1753 -0.1859  2.4937
 3373THY    CA384315   5.345   9.337   1.588 -0.6438  0.0334 -0.0492
 3373THY    HA384316   5.440   9.368   1.633  0.0840 -0.5933 -1.1073
 3373THY    CA484317   5.229   9.338   1.663  0.2344 -0.1567  0.1455
 3373THY    HA484318   5.224   9.374   1.765  0.6150 -0.0740  0.1347
 3373THY    CA584319   5.115   9.279   1.616  0.1695  0.1125  0.2537
 3373THY    CM184320   5.000   9.272   1.710  0.7298 -0.9141 -0.0838
 3373THY    HM184321   4.919   9.218   1.661 -1.4419  1.5002  0.5681
 3373THY    HM284322   5.024   9.229   1.808  0.0724  1.6014  1.2898
 3373THY    HM384323   4.966   9.374   1.733  0.5764 -1.0327  0.2336
 3373THY    CA684324   5.110   9.237   1.485 -0.5327  0.1892 -0.1874
 3373THY    HA684325   5.014   9.199   1.449 -0.6300  0.4443 -0.2003
 3374THY      O84326   5.590   3.300   8.767  0.3334 -0.2419  0.1219
 3374THY     HO84327   5.546   3.306   8.680  0.7405  0.7945 -0.0254
 3374THY    CA184328   5.671   3.412   8.772 -0.0666  0.4372  0.1098
 3374THY    CA284329   5.695   3.471   8.899 -0.5449 -0.3091  1.0884
 3374THY    CP184330   5.624   3.418   9.023  0.1992 -0.0534  0.1093
 3374THY    HP184331   5.526   3.382   8.991  1.1422 -0.9578 -1.9227
 3374THY    CP284332   5.692   3.299   9.092  0.6188  0.0961 -0.9954
 3374THY    HP284333   5.730   3.234   9.012  0.2009  1.2141 -2.1419
 3374THY    HP384334   5.784   3.319   9.149  1.8103 -2.7656 -1.7278
 3374THY    HP484335   5.624   3.246   9.159 -0.2616 -0.9862 -2.6714
 3374THY    CP384336   5.597   3.519   9.131 -0.4552  0.6929  0.2361
 3374THY    HP584337   5.698   3.536   9.170 -0.0460  0.0856 -0.5284
 3374THY    HP684338   5.540   3.605   9.094 -1.5912 -1.2030 -2.8039
 3374THY    HP784339   5.544   3.480   9.219  0.7818  0.5090  0.9154
 3374THY    CA384340   5.800   3.566   8.912 -0.8061 -0.1330  0.1543
 3374THY    HA384341   5.818   3.612   9.008 -2.1729  1.1882 -0.1816
 3374THY    CA484342   5.857   3.616   8.795 -0.1176  0.2535 -0.8033
 3374THY    HA484343   5.934   3.692   8.810  0.6706 -1.1238  3.2545
 3374THY    CA584344   5.829   3.555   8.673  0.1577 -0.7382 -0.6149
 3374THY    CM184345   5.893   3.605   8.551 -0.5517  1.0395 -0.1126
 3374THY    HM184346   6.002   3.600   8.568 -0.3791  3.7313 -0.0257
 3374THY    HM284347   5.870   3.537   8.468  0.4065  0.6410 -0.0735
 3374THY    HM384348   5.871   3.708   8.521 -0.3540  1.6468  1.6997
 3374THY    CA684349   5.742   3.450   8.663 -0.1746  0.2099 -0.0110
 3374THY    HA684350   5.733   3.393   8.570  2.4269  2.3054 -1.6880
 3375THY      O84351   6.508   8.061   1.078  0.5204  0.1992 -0.1790
 3375THY     HO84352   6.575   8.112   1.127 -0.5963 -0.0798  1.7558
 3375THY    CA184353   6.407   8.147   1.060 -0.0092  0.6427  0.1541
 3375THY    CA284354   6.295   8.119   0.983 -0.4259  0.7441  0.7723
 3375THY    CP184355   6.284   7.977   0.913 -0.4011 -0.4559 -0.0889
 3375THY    HP184356   6.376   7.921   0.933  0.9011  1.8616  0.9147
 3375THY    CP284357   6.160   7.890   0.953 -0.1473 -1.0107 -0.3433
 3375THY    HP284358   6.180   7.832   1.044  0.3635 -0.8266 -0.3349
 3375THY    HP384359   6.091   7.970   0.981  1.2636  0.1627 -0.1025
 3375THY    HP484360   6.119   7.828   0.872  0.4576  2.7076 -3.8359
 3375THY    CP384361   6.280   8.007   0.754 -0.2417  0.1640  0.3694
 3375THY    HP584362   6.312   7.921   0.694 -0.8351 -0.1983  0.5669
 3375THY    HP684363   6.178   8.034   0.727 -0.1234 -0.0314 -0.2869
 3375THY    HP784364   6.347   8.090   0.731 -1.2498  1.1779  1.0290
 3375THY    CA384365   6.199   8.217   0.963  0.5721 -0.8545  0.2825
 3375THY    HA384366   6.113   8.199   0.899  2.0637  0.0908 -2.1302
 3375THY    CA484367   6.211   8.348   1.023 -0.3242  0.0837  0.5054
 3375THY    HA484368   6.132   8.422   1.021 -1.2753 -0.8823  1.2320
 3375THY    CA584369   6.318   8.370   1.111 -0.4209  0.1442  0.3120
 3375THY    CM184370   6.327   8.494   1.189 -0.0817  0.3498  0.5180
 3375THY    HM184371   6.259   8.565   1.141 -1.0885 -0.6068  0.4813
 3375THY    HM284372   6.292   8.454   1.285 -2.3855 -0.0857 -0.4296
 3375THY    HM384373   6.430   8.529   1.202  0.5396 -1.4607  0.7537
 3375THY    CA684374   6.421   8.269   1.127 -0.0074 -0.1531  0.7961
 3375THY    HA684375   6.507   8.288   1.190  0.3677 -0.3468  0.3509
 3376THY      O84376   2.489   8.109   2.789 -0.0606 -0.5027  0.1420
 3376THY     HO84377   2.428   8.182   2.765 -0.1642 -0.6858 -0.1668
 3376THY    CA184378   2.540   8.089   2.665 -0.4263 -0.0710 -0.3492
 3376THY    CA284379   2.647   7.997   2.640  0.1051 -0.3680 -0.0852
 3376THY    CP184380   2.717   7.914   2.750  0.0472  0.4622  0.3980
 3376THY    HP184381   2.651   7.906   2.838 -1.6133 -2.6137 -0.9757
 3376THY    CP284382   2.734   7.769   2.693 -0.4837 -0.0712 -0.1101
 3376THY    HP284383   2.822   7.750   2.630 -1.3266 -2.0494 -0.7698
 3376THY    HP384384   2.736   7.697   2.776  1.8944 -0.0639 -0.0841
 3376THY    HP484385   2.644   7.749   2.634 -1.1769 -2.1351  1.4828
 3376THY    CP384386   2.858   7.977   2.787  0.4363  0.2605 -0.0271
 3376THY    HP584387   2.840   8.086   2.791 -1.2819  0.0075  0.0018
 3376THY    HP684388   2.886   7.945   2.887 -1.2261  1.1900  0.7837
 3376THY    HP784389   2.933   7.959   2.709 -0.3269 -0.6296 -0.5856
 3376THY    CA384390   2.687   7.984   2.500  0.3759 -0.7160  0.1496
 3376THY    HA384391   2.776   7.928   2.471  0.8052  0.5270 -1.0334
 3376THY    CA484392   2.621   8.060   2.401  0.6884  0.3258  0.0742
 3376THY    HA484393   2.644   8.040   2.297 -0.9612 -2.1481  0.0812
 3376THY    CA584394   2.523   8.150   2.432 -0.1907 -0.3281 -0.2511
 3376THY    CM184395   2.447   8.225   2.330  0.0065  0.3349  0.7590
 3376THY    HM184396   2.440   8.332   2.352  2.1801  0.6041  0.3531
 3376THY    HM284397   2.486   8.215   2.228 -0.5120  0.3667  0.5563
 3376THY    HM384398   2.341   8.195   2.332  0.2747 -0.8563 -0.7776
 3376THY    CA684399   2.483   8.164   2.564 -0.0901  0.7922  0.1582
 3376THY    HA684400   2.395   8.227   2.580  0.6025  1.2096  2.9008
 3377THY      O84401   1.753   6.147   4.563 -0.3828 -0.6492 -0.4215
 3377THY     HO84402   1.680   6.152   4.499 -0.0206  1.2816 -0.7632
 3377THY    CA184403   1.685   6.090   4.661  0.1923  0.0114  0.6458
 3377THY    CA284404   1.709   6.109   4.797  0.2204  0.0415 -0.3185
 3377THY    CP184405   1.831   6.190   4.851  0.7417  0.4446 -0.3271
 3377THY    HP184406   1.860   6.273   4.786 -1.5318  1.6323  0.1071
 3377THY    CP284407   1.827   6.256   4.994  0.2467  0.6828  0.4358
 3377THY    HP284408   1.776   6.353   4.990 -0.3326  0.4488  1.6064
 3377THY    HP384409   1.785   6.182   5.063  0.0252  0.1032 -0.3105
 3377THY    HP484410   1.923   6.290   5.034  0.3062 -0.4004  1.2587
 3377THY    CP384411   1.958   6.098   4.845 -1.0322  0.9179  0.5610
 3377THY    HP584412   2.051   6.131   4.894  0.6088 -0.7044 -1.3151
 3377THY    HP684413   1.932   6.001   4.890  2.2441 -1.2157 -1.6995
 3377THY    HP784414   1.984   6.085   4.740 -1.4228  1.2412  0.4196
 3377THY    CA384415   1.638   6.034   4.887  1.0311  0.0434 -0.4818
 3377THY    HA384416   1.652   6.035   4.994  0.0698  1.4150 -0.3556
 3377THY    CA484417   1.552   5.931   4.845  0.7089  0.1978 -0.2974
 3377THY    HA484418   1.513   5.861   4.919  1.3536 -1.4145 -1.4278
 3377THY    CA584419   1.538   5.909   4.707  0.5868  0.0914  0.1085
 3377THY    CM184420   1.450   5.797   4.652  0.5725  0.0549 -0.1848
 3377THY    HM184421   1.364   5.807   4.719  0.9275  3.0692 -0.0745
 3377THY    HM284422   1.422   5.814   4.548 -0.2407  1.1859  0.2014
 3377THY    HM384423   1.490   5.695   4.663 -0.3902 -0.1846  1.6148
 3377THY    CA684424   1.602   5.993   4.617  0.3279  0.8217 -0.0180
 3377THY    HA684425   1.594   5.960   4.514  2.0276 -1.0013  0.3719
 3378THY      O84426   0.369   0.634   3.499 -0.2753 -0.2850  0.0403
 3378THY     HO84427   0.312   0.601   3.428  0.4507  1.2393 -1.2925
 3378THY    CA184428   0.321   0.577   3.620  0.0818  0.5155  0.4282
 3378THY    CA284429   0.409   0.534   3.719  0.4851  0.1832 -0.2702
 3378THY    CP184430   0.554   0.556   3.696  0.2177 -0.0804 -0.1767
 3378THY    HP184431   0.568   0.600   3.597  0.7940 -1.1278 -0.5869
 3378THY    CP284432   0.614   0.669   3.793  0.3837  0.2794  0.1307
 3378THY    HP284433   0.545   0.752   3.773  1.0522  0.1546 -3.3927
 3378THY    HP384434   0.613   0.631   3.896 -0.0867  0.1090  0.0676
 3378THY    HP484435   0.707   0.706   3.749 -1.3673  1.2276 -3.1193
 3378THY    CP384436   0.642   0.428   3.691 -0.1531 -0.2937  0.3352
 3378THY    HP584437   0.606   0.370   3.606  0.6983 -2.3266  1.3086
 3378THY    HP684438   0.743   0.452   3.657 -0.5316 -0.9700 -1.3298
 3378THY    HP784439   0.628   0.364   3.779  1.3598 -0.1092  0.7444
 3378THY    CA384440   0.357   0.470   3.839 -0.1234 -0.0873  0.1495
 3378THY    HA384441   0.420   0.452   3.926 -0.8042  2.3316  1.2142
 3378THY    CA484442   0.222   0.451   3.855 -0.1540 -0.2796 -0.2531
 3378THY    HA484443   0.193   0.393   3.942  0.3466  1.6388  1.2614
 3378THY    CA584444   0.130   0.484   3.752  0.2488  0.7017 -0.3362
 3378THY    CM184445  -0.018   0.470   3.764 -0.3963 -0.1085 -0.2375
 3378THY    HM184446  -0.047   0.399   3.842  1.5151 -0.0532  0.5801
 3378THY    HM284447  -0.055   0.571   3.784  0.2109 -0.1373  1.1020
 3378THY    HM384448  -0.063   0.443   3.667 -0.2768 -2.3604  0.2628
 3378THY    CA684449   0.182   0.543   3.635  0.0260  0.4850  0.2503
 3378THY    HA684450   0.110   0.589   3.568 -1.4342 -0.6733  0.9607
 3379THY      O84451   4.533   6.560   0.264 -0.3305  0.0439 -0.2977
 3379THY     HO84452   4.584   6.480   0.282 -1.6569 -0.4187  1.7818
 3379THY    CA184453   4.600   6.657   0.327  0.0688 -0.1383 -0.4535
 3379THY    CA284454   4.588   6.793   0.288  0.2446 -0.6354 -0.2261
 3379THY    CP184455   4.497   6.827   0.167 -0.1868  0.4728  0.1263
 3379THY    HP184456   4.411   6.760   0.173 -1.4320  2.0619  0.8423
 3379THY    CP284457   4.433   6.966   0.189 -0.2929 -0.3576  1.0341
 3379THY    HP284458   4.500   7.052   0.200  1.1932 -1.1958 -0.8776
 3379THY    HP384459   4.371   6.980   0.100 -0.7008 -2.3011  0.9552
 3379THY    HP484460   4.360   6.956   0.270 -0.4572  0.1036  0.9408
 3379THY    CP384461   4.587   6.827   0.043  0.3905 -0.3692 -0.0167
 3379THY    HP584462   4.527   6.872  -0.037 -0.2748 -2.2312 -0.6083
 3379THY    HP684463   4.674   6.892   0.056  1.0041 -1.0053 -0.9016
 3379THY    HP784464   4.621   6.726   0.020  1.6624 -0.1090  0.6579
 3379THY    CA384465   4.664   6.889   0.357  0.0060  0.2440 -0.3373
 3379THY    HA384466   4.661   6.991   0.318 -1.2679  0.2092 -0.3723
 3379THY    CA484467   4.763   6.856   0.446 -0.5829 -0.2201 -0.5141
 3379THY    HA484468   4.830   6.928   0.492  1.9233 -0.9661 -2.7374
 3379THY    CA584469   4.778   6.728   0.485  0.2283  0.0127 -1.0164
 3379THY    CM184470   4.883   6.690   0.587 -0.2220 -0.5002  0.7378
 3379THY    HM184471   4.983   6.720   0.553  0.1370 -2.7968 -0.4483
 3379THY    HM284472   4.869   6.756   0.674 -0.1600  0.2752  0.1720
 3379THY    HM384473   4.889   6.584   0.614  0.7204 -0.3414  1.2244
 3379THY    CA684474   4.700   6.628   0.423  0.5047 -0.0066 -0.7508
 3379THY    HA684475   4.733   6.527   0.444  0.5633 -0.0833 -1.1984
 3380THY      O84476   0.098   8.812   0.843 -0.0311  0.4920  0.0748
 3380THY     HO84477   0.172   8.857   0.888  0.0337  0.3472  0.1148
 3380THY    CA184478   0.087   8.864   0.715 -0.0003 -0.2200 -0.2651
 3380THY    CA284479  -0.009   8.818   0.625 -0.0120  0.1823 -0.1060
 3380THY    CP184480  -0.091   8.698   0.667  0.5771  0.1855  0.0182
 3380THY    HP184481  -0.078   8.683   0.775  0.9633 -2.3648 -0.3061
 3380THY    CP284482  -0.244   8.716   0.631 -0.3227  1.0587 -0.2344
 3380THY    HP284483  -0.290   8.779   0.708 -0.0707  1.6765 -0.5836
 3380THY    HP384484  -0.258   8.764   0.534 -0.0037 -0.1295 -0.8848
 3380THY    HP484485  -0.291   8.617   0.635  2.1666 -0.2259 -0.3559
 3380THY    CP384486  -0.044   8.572   0.597 -0.0278 -0.2445 -0.0881
 3380THY    HP584487  -0.076   8.479   0.644  2.3029 -0.6847  0.7540
 3380THY    HP684488  -0.090   8.576   0.497  1.0154 -0.8837 -0.6209
 3380THY    HP784489   0.065   8.567   0.587 -0.0367  0.7897 -0.8867
 3380THY    CA384490  -0.016   8.873   0.494  0.2629 -0.4355 -0.1798
 3380THY    HA384491  -0.082   8.831   0.418  1.4630 -3.0210  0.1003
 3380THY    CA484492   0.079   8.967   0.455 -0.5679  0.1019  0.2148
 3380THY    HA484493   0.072   8.999   0.351  1.1352 -1.2742 -0.3643
 3380THY    CA584494   0.182   9.006   0.540 -0.3367  0.6258  0.6445
 3380THY    CM184495   0.295   9.095   0.492  0.6314  0.2367  0.1471
 3380THY    HM184496   0.391   9.053   0.524 -0.6327 -1.6400  1.7126
 3380THY    HM284497   0.298   9.077   0.384  1.5939 -4.0725  0.7180
 3380THY    HM384498   0.272   9.198   0.521 -1.6159  0.6353 -2.6040
 3380THY    CA684499   0.182   8.965   0.673 -0.0064  0.7120 -0.3694
 3380THY    HA684500   0.247   9.008   0.748 -1.2328 -2.1056  2.5455
 3381THY      O84501   9.806   4.909   6.347 -0.5647  0.2906  1.1175
 3381THY     HO84502   9.902   4.898   6.351 -0.3841  0.5705 -1.1849
 3381THY    CA184503   9.788   4.928   6.216  0.1156 -1.0918 -0.1126
 3381THY    CA284504   9.719   5.043   6.173 -0.6830 -0.6302 -0.3368
 3381THY    CP184505   9.642   5.137   6.270 -0.4760 -0.2897  0.5655
 3381THY    HP184506   9.640   5.093   6.371 -0.2987  1.8248  1.5478
 3381THY    CP284507   9.714   5.266   6.286 -0.3862 -0.2051 -0.2372
 3381THY    HP284508   9.706   5.341   6.207 -1.9487  1.4052  1.3318
 3381THY    HP384509   9.657   5.324   6.360 -1.2279 -0.6350 -0.5316
 3381THY    HP484510   9.819   5.256   6.314 -0.0062  3.1167 -0.1165
 3381THY    CP384511   9.495   5.152   6.227  0.9043  0.7191 -0.1548
 3381THY    HP584512   9.478   5.223   6.145  0.6775  2.3761  1.3005
 3381THY    HP684513   9.462   5.054   6.188 -1.3676  1.4740 -0.2789
 3381THY    HP784514   9.421   5.184   6.301  0.2646  2.7285 -1.5765
 3381THY    CA384515   9.734   5.079   6.032  0.1171  0.4530 -0.0970
 3381THY    HA384516   9.692   5.171   5.993  0.6829 -0.0584 -2.0059
 3381THY    CA484517   9.778   4.985   5.942 -0.3628  0.6112 -0.4543
 3381THY    HA484518   9.771   5.005   5.836 -1.7390  1.9854 -0.1444
 3381THY    CA584519   9.832   4.868   5.982  0.0013  0.2768  0.1940
 3381THY    CM184520   9.902   4.782   5.875 -0.0683  0.0142  0.2574
 3381THY    HM184521   9.882   4.677   5.898 -1.2695  0.2533  0.3420
 3381THY    HM284522   9.861   4.783   5.774 -0.3964 -0.0774  0.3889
 3381THY    HM384523  10.012   4.789   5.881  0.1243 -2.7873  2.6793
 3381THY    CA684524   9.855   4.847   6.121  0.2443  0.0235  0.1857
 3381THY    HA684525   9.908   4.757   6.151  0.9060  0.9897  2.1473
 3382THY      O84526   2.421   0.854   1.211 -0.5790 -0.3097 -0.1477
 3382THY     HO84527   2.377   0.873   1.296 -1.7901  0.3422 -0.8901
 3382THY    CA184528   2.517   0.752   1.231 -0.3471 -0.6714  0.3374
 3382THY    CA284529   2.607   0.754   1.344  0.3132 -0.8024 -0.0919
 3382THY    CP184530   2.596   0.876   1.435  0.1389  0.3124 -0.0991
 3382THY    HP184531   2.580   0.965   1.374  1.9223  0.7425 -0.0168
 3382THY    CP284532   2.486   0.858   1.540 -0.0902 -0.1685  0.3670
 3382THY    HP284533   2.525   0.808   1.630  3.2241 -2.2421 -2.0102
 3382THY    HP384534   2.438   0.955   1.560 -1.8803 -0.4570 -2.1171
 3382THY    HP484535   2.408   0.796   1.495 -0.6716 -0.8582  2.2306
 3382THY    CP384536   2.729   0.908   1.500 -0.8122  0.2663  0.0868
 3382THY    HP584537   2.755   0.825   1.567 -0.9191 -2.4449 -2.9973
 3382THY    HP684538   2.811   0.921   1.429  0.5295  0.4336  1.6025
 3382THY    HP784539   2.715   0.987   1.575 -1.0481  0.8682 -0.5813
 3382THY    CA384540   2.699   0.653   1.351  0.1924  0.3485  0.0580
 3382THY    HA384541   2.767   0.646   1.436  1.0735  3.1912 -0.3191
 3382THY    CA484542   2.704   0.555   1.257 -0.3169  0.4261  0.2854
 3382THY    HA484543   2.780   0.477   1.262 -0.7979 -0.1033 -0.5294
 3382THY    CA584544   2.612   0.548   1.152 -0.2708 -0.0465 -0.0316
 3382THY    CM184545   2.613   0.427   1.057  0.4743 -0.0196  0.3383
 3382THY    HM184546   2.563   0.450   0.962  0.6027 -1.5495 -0.1243
 3382THY    HM284547   2.717   0.397   1.035  0.1276 -1.3938  0.5114
 3382THY    HM384548   2.549   0.346   1.093 -3.0778  1.3293 -2.2991
 3382THY    CA684549   2.516   0.652   1.140 -0.1631 -0.5673  0.5197
 3382THY    HA684550   2.444   0.640   1.059  0.1464 -0.5086  0.2358
 3383THY      O84551   8.166   7.000   8.842 -0.1421  0.2062  0.7044
 3383THY     HO84552   8.095   7.036   8.785 -0.9427 -1.5439  0.5329
 3383THY    CA184553   8.188   6.873   8.815 -0.4696  0.0274 -0.0588
 3383THY    CA284554   8.246   6.787   8.909  0.3060  0.3157  0.4921
 3383THY    CP184555   8.274   6.834   9.056  1.3059  0.6773  0.1390
 3383THY    HP184556   8.243   6.936   9.082  0.7655  0.1017  1.8962
 3383THY    CP284557   8.198   6.750   9.160  0.5356  0.4266 -0.8870
 3383THY    HP284558   8.203   6.792   9.261 -0.5460  2.5397 -1.6432
 3383THY    HP384559   8.092   6.756   9.130 -0.8727 -0.0911  3.2681
 3383THY    HP484560   8.228   6.646   9.144  0.2952  0.6050 -2.6963
 3383THY    CP384561   8.412   6.816   9.096 -0.1629  0.0166 -0.9029
 3383THY    HP584562   8.443   6.715   9.123 -1.1726 -1.2508 -4.0527
 3383THY    HP684563   8.475   6.843   9.011  0.7209  0.8403 -0.0099
 3383THY    HP784564   8.427   6.877   9.186  2.5853 -0.8689 -0.6889
 3383THY    CA384565   8.263   6.655   8.874 -0.3421  0.5511  0.3204
 3383THY    HA384566   8.310   6.590   8.947 -1.2075 -1.0781 -0.5022
 3383THY    CA484567   8.214   6.596   8.749  0.6864  0.1380 -0.4717
 3383THY    HA484568   8.224   6.490   8.730  0.4397  0.3624 -1.9761
 3383THY    CA584569   8.144   6.676   8.662  0.5545  0.3535  0.3515
 3383THY    CM184570   8.083   6.629   8.527  0.0631  0.7256 -1.2166
 3383THY    HM184571   8.162   6.603   8.455 -1.1068 -2.5451 -1.5116
 3383THY    HM284572   8.043   6.532   8.559 -1.5053  1.7498  0.1207
 3383THY    HM384573   8.005   6.693   8.484  0.7156  2.3300 -0.1072
 3383THY    CA684574   8.135   6.816   8.694  0.1608  0.0604  0.0745
 3383THY    HA684575   8.079   6.883   8.629  1.4360  0.3420 -0.7692
 3384THY      O84576   5.475   3.279   5.016  0.2364 -0.3257 -0.2905
 3384THY     HO84577   5.571   3.281   5.025  0.2319  3.4898  0.6092
 3384THY    CA184578   5.459   3.364   4.906  0.4236 -0.0945 -0.2838
 3384THY    CA284579   5.347   3.449   4.893 -0.2511 -0.5376  0.3713
 3384THY    CP184580   5.233   3.432   4.988 -0.4292 -0.1602  0.2851
 3384THY    HP184581   5.272   3.392   5.082 -0.2209 -0.4166  0.0909
 3384THY    CP284582   5.171   3.567   5.027 -0.3583  0.7287 -0.1285
 3384THY    HP284583   5.137   3.632   4.946  0.9881  0.3371 -1.0602
 3384THY    HP384584   5.098   3.565   5.109 -0.7217 -0.2427 -0.4601
 3384THY    HP484585   5.253   3.617   5.080  0.8314 -1.0758 -0.1582
 3384THY    CP384586   5.116   3.338   4.940  0.0141  0.0604 -0.0056
 3384THY    HP584587   5.032   3.325   5.010 -1.2037 -0.0183 -1.4363
 3384THY    HP684588   5.082   3.371   4.841  1.1732 -2.9976 -1.5507
 3384THY    HP784589   5.155   3.239   4.916 -1.7175 -0.8287  0.7010
 3384THY    CA384590   5.354   3.553   4.794  0.7402 -0.4649 -0.2350
 3384THY    HA384591   5.264   3.611   4.777 -1.0363 -2.3843  1.9442
 3384THY    CA484592   5.473   3.582   4.724 -0.8144 -0.7976 -0.0727
 3384THY    HA484593   5.472   3.661   4.650  0.1392 -1.5226 -0.8914
 3384THY    CA584594   5.580   3.499   4.742  0.0373  0.3504  0.0043
 3384THY    CM184595   5.707   3.526   4.671 -0.3119  0.3218 -0.4171
 3384THY    HM184596   5.700   3.614   4.606 -0.7984  1.4653  1.1356
 3384THY    HM284597   5.797   3.530   4.734 -0.4610 -0.3624 -0.1561
 3384THY    HM384598   5.726   3.449   4.596  0.7438  0.8763 -0.7453
 3384THY    CA684599   5.573   3.395   4.833  0.1147  0.4900 -0.7530
 3384THY    HA684600   5.660   3.331   4.843  0.8634  1.4408 -1.1093
 3385THY      O84601   9.505   0.187   9.780 -0.3152  0.0806 -0.0177
 3385THY     HO84602   9.429   0.164   9.836 -1.8536 -0.9563 -2.3453
 3385THY    CA184603   9.538   0.312   9.828 -0.0281 -0.7713  0.1577
 3385THY    CA284604   9.601   0.412   9.747 -0.7241 -0.3015 -0.4897
 3385THY    CP184605   9.666   0.360   9.619  0.6585 -0.1795  0.6069
 3385THY    HP184606   9.691   0.255   9.638  0.2239 -0.1336  1.4703
 3385THY    CP284607   9.566   0.362   9.504 -0.2345 -0.2187 -0.0687
 3385THY    HP284608   9.584   0.288   9.426  3.6136 -0.2675  0.6621
 3385THY    HP384609   9.465   0.350   9.546  0.4417 -1.5600  1.2430
 3385THY    HP484610   9.564   0.462   9.458  1.9750 -0.6349 -1.2037
 3385THY    CP384611   9.805   0.416   9.583  0.6017  0.4395 -0.1374
 3385THY    HP584612   9.842   0.352   9.502 -2.9201 -0.2301 -1.4264
 3385THY    HP684613   9.810   0.522   9.558  3.7253  0.0613 -1.6900
 3385THY    HP784614   9.883   0.401   9.658  1.8360 -0.9177 -1.6065
 3385THY    CA384615   9.605   0.545   9.787 -0.1919 -0.1553 -0.2083
 3385THY    HA384616   9.653   0.618   9.723 -0.6494 -1.0941 -1.6993
 3385THY    CA484617   9.540   0.587   9.906  0.2042 -0.3898 -0.0164
 3385THY    HA484618   9.544   0.695   9.916 -0.7097 -0.1132 -2.1164
 3385THY    CA584619   9.481   0.490   9.990 -0.2322 -0.4291  0.2063
 3385THY    CM184620   9.423   0.529  10.131 -0.2302 -0.1348  0.2700
 3385THY    HM184621   9.328   0.475  10.139 -0.9002  0.7294 -1.4682
 3385THY    HM284622   9.492   0.509  10.215 -2.4276  0.5860  2.3696
 3385THY    HM384623   9.405   0.637  10.136  0.7521  0.1241 -1.2345
 3385THY    CA684624   9.474   0.360   9.944 -0.9608  0.8407  0.9592
 3385THY    HA684625   9.426   0.286  10.007 -0.0343 -0.2142  0.4528
 3386THY      O84626   0.668   0.050   2.080 -0.0418  0.5463  0.5039
 3386THY     HO84627   0.763   0.048   2.058 -0.1392 -0.8596  0.0689
 3386THY    CA184628   0.651   0.093   2.206 -0.3163 -0.2715 -0.6286
 3386THY    CA284629   0.527   0.116   2.262 -0.4239 -0.2636  0.3700
 3386THY    CP184630   0.398   0.084   2.187 -0.0625  0.0368 -0.0410
 3386THY    HP184631   0.407   0.118   2.084  0.4248  3.3837  0.9675
 3386THY    CP284632   0.379  -0.072   2.197  0.8240 -0.5567 -0.7269
 3386THY    HP284633   0.458  -0.130   2.149 -0.7339 -3.0864 -0.4344
 3386THY    HP384634   0.356  -0.113   2.296  1.2274  2.1091  0.5513
 3386THY    HP484635   0.292  -0.081   2.130  1.4063  3.3413 -2.2846
 3386THY    CP384636   0.283   0.168   2.233  0.4208  0.6434  0.4556
 3386THY    HP584637   0.303   0.272   2.207 -1.0202  0.4714 -1.5361
 3386THY    HP684638   0.196   0.134   2.176  1.1509 -1.4453  0.4816
 3386THY    HP784639   0.258   0.156   2.339  0.9209  0.9769  0.6133
 3386THY    CA384640   0.536   0.183   2.388 -0.1485 -0.3996  1.1084
 3386THY    HA384641   0.440   0.213   2.428 -1.5965  1.2515 -3.0734
 3386THY    CA484642   0.653   0.229   2.450 -0.0743 -0.3303  0.2173
 3386THY    HA484643   0.647   0.281   2.546  3.2769  0.5548  0.0870
 3386THY    CA584644   0.769   0.193   2.392  0.2574 -0.3989  0.4223
 3386THY    CM184645   0.904   0.232   2.452  0.2066  0.0950  0.3829
 3386THY    HM184646   0.906   0.336   2.486  1.6167  0.7295 -1.4491
 3386THY    HM284647   0.924   0.158   2.530 -1.8388 -0.6698  0.2347
 3386THY    HM384648   0.973   0.218   2.368 -1.6610  3.0547 -1.8073
 3386THY    CA684649   0.774   0.122   2.276  0.0730 -0.9181  0.0729
 3386THY    HA684650   0.868   0.091   2.232  1.2666  0.0082  1.8367
 3387THY      O84651   5.846   8.276   2.893  0.5725 -0.3848  0.2758
 3387THY     HO84652   5.811   8.309   2.808  0.2636  0.3174  0.6669
 3387THY    CA184653   5.846   8.142   2.880 -0.0109 -1.0334 -0.7756
 3387THY    CA284654   5.848   8.049   2.983 -0.0647 -0.0286  0.0259
 3387THY    CP184655   5.829   8.098   3.128 -0.1419  0.2709 -0.8340
 3387THY    HP184656   5.884   8.193   3.131  0.8074 -0.2786  1.2781
 3387THY    CP284657   5.684   8.134   3.155  0.0208 -0.6108  0.2631
 3387THY    HP284658   5.632   8.040   3.133  1.2768 -1.1290 -0.6142
 3387THY    HP384659   5.666   8.165   3.258 -3.1055  1.0662 -0.6607
 3387THY    HP484660   5.647   8.210   3.085  1.8155 -0.2641 -0.3608
 3387THY    CP384661   5.884   8.002   3.232  0.0437 -0.2023  0.5141
 3387THY    HP584662   5.989   7.984   3.204 -0.6972 -1.7552 -1.5198
 3387THY    HP684663   5.881   8.044   3.333 -1.5442  0.5421  0.1822
 3387THY    HP784664   5.824   7.911   3.244 -0.7603  0.6295  4.0116
 3387THY    CA384665   5.864   7.909   2.947 -0.2494 -0.1594  0.0721
 3387THY    HA384666   5.887   7.832   3.019 -2.8035 -0.0550  1.0979
 3387THY    CA484667   5.871   7.876   2.806 -0.1782  0.1524 -0.1051
 3387THY    HA484668   5.893   7.773   2.777  0.3225  0.3743 -0.5377
 3387THY    CA584669   5.851   7.971   2.705  0.0888  0.1442 -0.5659
 3387THY    CM184670   5.852   7.923   2.564 -0.1328 -0.2219  0.4516
 3387THY    HM184671   5.869   8.003   2.491 -1.8757  0.0104  0.2577
 3387THY    HM284672   5.947   7.871   2.550  1.1031  2.1245 -0.4330
 3387THY    HM384673   5.763   7.862   2.541 -0.3691 -0.1355  1.1119
 3387THY    CA684674   5.841   8.110   2.746 -0.0674 -0.4420  0.1485
 3387THY    HA684675   5.847   8.179   2.663 -0.8342 -0.7233 -0.1543
 3388THY      O84676   3.302   0.871   3.191 -0.3922 -0.2927 -0.2133
 3388THY     HO84677   3.368   0.909   3.252 -0.1905 -0.3350 -0.4014
 3388THY    CA184678   3.352   0.897   3.055 -0.1793 -0.1713  0.1570
 3388THY    CA284679   3.282   0.856   2.941 -0.9013 -0.5311 -0.6365
 3388THY    CP184680   3.149   0.785   2.950 -1.0962 -0.4582  0.2374
 3388THY    HP184681   3.118   0.765   3.053 -2.4055  0.4835  0.0606
 3388THY    CP284682   3.034   0.873   2.891 -0.5975 -0.0813 -0.0915
 3388THY    HP284683   2.935   0.827   2.901 -0.3740 -0.6093 -0.2740
 3388THY    HP384684   3.054   0.966   2.945  0.0947 -0.5928  0.5466
 3388THY    HP484685   3.060   0.891   2.786  0.0108  2.0014  0.3783
 3388THY    CP384686   3.158   0.660   2.884 -0.5366  0.8964  0.4759
 3388THY    HP584687   3.205   0.673   2.786 -0.5564 -1.9320  0.0330
 3388THY    HP684688   3.215   0.591   2.948 -1.1032 -0.5355 -0.5394
 3388THY    HP784689   3.065   0.608   2.862 -1.9523  4.2174 -2.2017
 3388THY    CA384690   3.338   0.899   2.819  0.4442  0.0998  0.2841
 3388THY    HA384691   3.279   0.882   2.729  1.2339 -1.6811  0.0549
 3388THY    CA484692   3.456   0.976   2.805  0.3092 -0.0405  0.5696
 3388THY    HA484693   3.491   0.996   2.704 -0.0122  0.4892  0.5533
 3388THY    CA584694   3.523   1.010   2.921  0.1754  0.6316  0.2163
 3388THY    CM184695   3.649   1.094   2.917  0.9182  0.2411 -0.2625
 3388THY    HM184696   3.615   1.197   2.902 -1.6559 -0.6193 -0.7730
 3388THY    HM284697   3.708   1.099   3.009  0.7278 -0.8734 -0.0611
 3388THY    HM384698   3.713   1.064   2.833 -1.3750 -0.7224 -1.7799
 3388THY    CA684699   3.461   0.981   3.042 -0.5063  0.6185  0.4660
 3388THY    HA684700   3.501   1.019   3.136 -3.1556 -0.9038  2.3540
 3389THY      O84701   7.556   6.692   7.774  0.0324 -0.3740 -0.6478
 3389THY     HO84702   7.568   6.599   7.747 -1.2770 -0.8520  0.3244
 3389THY    CA184703   7.615   6.702   7.895 -0.4109 -0.2122  0.0672
 3389THY    CA284704   7.576   6.793   7.998  0.3325 -0.7548 -0.1039
 3389THY    CP184705   7.469   6.898   7.970 -0.1250  0.1622 -0.1532
 3389THY    HP184706   7.408   6.862   7.886 -1.1372 -0.6686  0.9055
 3389THY    CP284707   7.375   6.927   8.086  0.4117  0.5231  0.2716
 3389THY    HP284708   7.305   7.010   8.071 -1.7756 -0.9053  1.9131
 3389THY    HP384709   7.317   6.836   8.107  0.1710  0.2800 -1.3067
 3389THY    HP484710   7.431   6.949   8.177 -2.6147 -2.0836  3.0162
 3389THY    CP384711   7.534   7.026   7.922 -0.5958 -0.4302 -0.3984
 3389THY    HP584712   7.643   7.023   7.932 -0.4877 -0.5078 -1.4440
 3389THY    HP684713   7.508   7.046   7.817  0.4665  2.7547 -0.1746
 3389THY    HP784714   7.510   7.116   7.980 -0.4897 -2.4433  3.0041
 3389THY    CA384715   7.640   6.781   8.120 -0.3463  0.3576 -0.3204
 3389THY    HA384716   7.614   6.843   8.205  0.9023 -1.5403  1.5293
 3389THY    CA484717   7.737   6.679   8.141  0.2416 -0.1324 -0.3213
 3389THY    HA484718   7.783   6.678   8.239 -0.6983  1.5930  0.1809
 3389THY    CA584719   7.779   6.606   8.041 -0.2734  0.4624  0.8114
 3389THY    CM184720   7.880   6.500   8.065 -0.7580  0.0116 -0.2088
 3389THY    HM184721   7.846   6.403   8.026 -0.2221 -0.1470 -0.2863
 3389THY    HM284722   7.978   6.522   8.021  1.7795  2.2752  5.6371
 3389THY    HM384723   7.900   6.483   8.171  0.1942 -0.7254 -0.4850
 3389THY    CA684724   7.713   6.612   7.920 -0.3226 -0.1509 -0.3568
 3389THY    HA684725   7.739   6.536   7.847  2.4012  0.6220 -0.3259
 3390THY      O84726   2.207   1.902   4.402 -0.8354  0.6153  1.0339
 3390THY     HO84727   2.192   1.866   4.314 -1.4106 -0.1981  1.4567
 3390THY    CA184728   2.301   1.994   4.380 -0.1506  0.4086  0.4320
 3390THY    CA284729   2.367   2.055   4.489 -0.2898 -0.1757 -0.1080
 3390THY    CP184730   2.327   2.023   4.631  0.1336  0.2857  0.0642
 3390THY    HP184731   2.268   1.931   4.631 -1.6040  1.3714 -0.4559
 3390THY    CP284732   2.446   1.997   4.723  0.2027  0.2075 -0.0047
 3390THY    HP284733   2.476   2.092   4.768 -1.2866  0.7837 -0.2067
 3390THY    HP384734   2.412   1.944   4.813  0.4691 -1.7025 -0.9598
 3390THY    HP484735   2.525   1.931   4.685 -1.7478 -3.0652  1.2186
 3390THY    CP384736   2.230   2.127   4.686 -0.1576 -0.3617  0.1318
 3390THY    HP584737   2.135   2.113   4.633  0.8753  1.0601 -2.2707
 3390THY    HP684738   2.219   2.128   4.795 -1.1188  0.9581  0.0489
 3390THY    HP784739   2.249   2.229   4.650  1.0635 -0.0050  1.6901
 3390THY    CA384740   2.462   2.162   4.466 -0.3198  0.0653  0.1098
 3390THY    HA384741   2.521   2.213   4.542 -0.0797 -0.0053 -0.0296
 3390THY    CA484742   2.482   2.205   4.336 -0.2932  0.6634  0.0848
 3390THY    HA484743   2.550   2.289   4.321  1.3148 -0.7794 -1.1110
 3390THY    CA584744   2.413   2.138   4.232  0.3671  0.1616  0.5130
 3390THY    CM184745   2.441   2.175   4.091 -0.2178  0.1025 -0.1946
 3390THY    HM184746   2.449   2.088   4.025  0.7694  0.0829 -0.0637
 3390THY    HM284747   2.357   2.233   4.051  0.5197  3.2541  2.3837
 3390THY    HM384748   2.535   2.231   4.080  0.4687 -0.4574  2.2568
 3390THY    CA684749   2.319   2.039   4.252  0.2633 -0.0614  0.5312
 3390THY    HA684750   2.264   1.993   4.171  1.0133 -0.2369  0.1115
 3391THY      O84751   5.450   4.208   8.694  0.8349 -0.1907 -0.0124
 3391THY     HO84752   5.394   4.134   8.723  0.1425  0.8867  1.5107
 3391THY    CA184753   5.569   4.198   8.756 -0.5378  0.6158  0.0337
 3391THY    CA284754   5.659   4.307   8.763  0.0904 -0.2373  0.0536
 3391THY    CP184755   5.610   4.451   8.723  0.1443 -0.3543  0.1092
 3391THY    HP184756   5.543   4.445   8.636 -1.3110 -1.2953  1.2513
 3391THY    CP284757   5.520   4.524   8.832 -0.1482 -0.1249 -0.1935
 3391THY    HP284758   5.426   4.468   8.836  0.2644 -0.8090  0.0864
 3391THY    HP384759   5.582   4.531   8.923  1.3584  1.0974 -1.2519
 3391THY    HP484760   5.500   4.630   8.809 -0.2336 -0.2212 -0.5570
 3391THY    CP384761   5.719   4.549   8.689  0.6856 -0.0325 -1.0351
 3391THY    HP584762   5.791   4.491   8.631 -0.0766 -1.6702 -0.4017
 3391THY    HP684763   5.678   4.631   8.629 -1.4921  0.5750  1.0957
 3391THY    HP784764   5.764   4.595   8.778 -0.0273 -2.2738  0.5809
 3391THY    CA384765   5.790   4.292   8.813 -0.2911  0.4477  0.8074
 3391THY    HA384766   5.857   4.377   8.825 -0.6403  0.7157  0.8664
 3391THY    CA484767   5.829   4.167   8.856 -0.3197  0.7563 -0.1902
 3391THY    HA484768   5.924   4.152   8.906 -0.0392  1.1595 -0.5935
 3391THY    CA584769   5.745   4.055   8.859 -0.4745  0.6527 -0.2355
 3391THY    CM184770   5.810   3.921   8.885  0.1501 -0.3042 -0.2737
 3391THY    HM184771   5.917   3.936   8.898  0.1810  0.7490 -1.5648
 3391THY    HM284772   5.771   3.856   8.965  1.1606 -0.0536  0.4372
 3391THY    HM384773   5.790   3.871   8.790 -1.7658  2.3094 -1.3537
 3391THY    CA684774   5.614   4.073   8.797  0.0579 -0.2256 -0.0185
 3391THY    HA684775   5.555   3.982   8.790  0.3801 -0.3402 -1.7311
 3392THY      O84776   5.705   9.379   0.017  0.5101  0.0107 -0.0796
 3392THY     HO84777   5.765   9.448   0.050  1.5504 -2.0827  2.8359
 3392THY    CA184778   5.674   9.300   0.120  0.5703  0.4105 -0.2743
 3392THY    CA284779   5.674   9.163   0.099 -0.6576  0.4782  0.3248
 3392THY    CP184780   5.710   9.100  -0.040  0.5627  0.3120  0.3095
 3392THY    HP184781   5.745   9.178  -0.109 -2.3401  1.2686 -0.2408
 3392THY    CP284782   5.807   8.984  -0.019 -0.4778 -0.5466  0.6332
 3392THY    HP284783   5.752   8.901   0.026 -0.2919 -0.4885  0.9725
 3392THY    HP384784   5.842   8.945  -0.115  1.3651  1.3825  0.4416
 3392THY    HP484785   5.898   9.005   0.038  0.3688  0.6063 -1.0637
 3392THY    CP384786   5.585   9.046  -0.101 -0.2631 -0.5801 -0.1297
 3392THY    HP584787   5.500   9.113  -0.085  0.0710  0.2421 -1.6967
 3392THY    HP684788   5.596   9.017  -0.206 -0.3182 -1.4716  0.0968
 3392THY    HP784789   5.556   8.948  -0.059  0.8019 -1.7055 -1.9284
 3392THY    CA384790   5.614   9.089   0.201  0.2565 -0.0673  0.2655
 3392THY    HA384791   5.601   8.982   0.183  0.8110 -0.8316  3.7864
 3392THY    CA484792   5.570   9.156   0.315  0.0964 -0.5242 -0.0533
 3392THY    HA484793   5.532   9.102   0.401 -0.2286 -2.0603 -1.1264
 3392THY    CA584794   5.577   9.298   0.329 -0.2482  0.2240  0.2750
 3392THY    CM184795   5.539   9.366   0.458 -0.8697  0.3361 -0.3290
 3392THY    HM184796   5.584   9.464   0.481 -1.6435  0.9099 -1.1978
 3392THY    HM284797   5.434   9.398   0.452 -0.2808  2.4403 -0.3570
 3392THY    HM384798   5.545   9.296   0.543  1.3088  1.0413  0.1631
 3392THY    CA684799   5.636   9.367   0.230 -0.0371  0.0959  0.2786
 3392THY    HA684800   5.646   9.474   0.241  1.0234  0.1387 -0.8306
 3393THY      O84801   5.431   3.181   6.110 -0.0620 -0.4370  0.6459
 3393THY     HO84802   5.521   3.147   6.093 -0.0275 -1.2043  2.1976
 3393THY    CA184803   5.338   3.091   6.064  0.2295 -0.3872 -0.6853
 3393THY    CA284804   5.201   3.104   6.072  0.0344  0.2215  0.0100
 3393THY    CP184805   5.133   3.231   6.122 -0.5579  0.2214 -0.1234
 3393THY    HP184806   5.212   3.280   6.179 -0.4837 -0.7048  0.5835
 3393THY    CP284807   5.070   3.325   6.018 -0.1740  0.2695 -0.6756
 3393THY    HP284808   5.144   3.365   5.948 -0.5936  1.1327 -0.6337
 3393THY    HP384809   4.991   3.273   5.962 -0.3933 -0.5921  0.3969
 3393THY    HP484810   5.029   3.406   6.079 -0.0268 -0.8360  0.9626
 3393THY    CP384811   5.036   3.197   6.234 -0.2411 -0.1535 -0.1086
 3393THY    HP584812   4.946   3.147   6.196 -0.0841 -1.6567  1.3934
 3393THY    HP684813   5.077   3.124   6.305 -0.3943  1.3778  1.6325
 3393THY    HP784814   5.012   3.293   6.283 -0.1574  0.2683 -0.8760
 3393THY    CA384815   5.118   2.999   6.029 -0.1231  0.0454  0.0526
 3393THY    HA384816   5.010   3.011   6.029 -0.0721  0.5093  0.0304
 3393THY    CA484817   5.175   2.886   5.981 -0.5127  0.5663 -0.9196
 3393THY    HA484818   5.115   2.804   5.942 -2.8861 -0.0462  3.4268
 3393THY    CA584819   5.313   2.872   5.979 -0.0328  0.0809 -0.6766
 3393THY    CM184820   5.352   2.743   5.924  0.8215 -0.0964  0.6280
 3393THY    HM184821   5.315   2.659   5.982 -2.5393  0.0019 -1.1587
 3393THY    HM284822   5.320   2.740   5.819  3.4312  3.4111 -0.4865
 3393THY    HM384823   5.462   2.749   5.917  0.9735  2.0853  3.2542
 3393THY    CA684824   5.397   2.976   6.013 -0.2890 -0.0304 -0.4236
 3393THY    HA684825   5.504   2.961   6.008 -0.6166 -2.7586 -0.4101
 3394THY      O84826   0.261   7.081   7.692  0.2961  0.1165 -0.0869
 3394THY     HO84827   0.299   7.061   7.779  1.5127 -0.4917 -0.7359
 3394THY    CA184828   0.173   6.979   7.665  0.5137  0.0135 -0.1106
 3394THY    CA284829   0.115   6.963   7.536  0.1894  0.5250  0.1841
 3394THY    CP184830   0.163   7.051   7.413  0.5960  0.1206 -0.0419
 3394THY    HP184831   0.261   7.089   7.446  1.0889 -0.7499 -0.4746
 3394THY    CP284832   0.175   6.985   7.272  0.6114 -0.1568  0.1486
 3394THY    HP284833   0.077   6.953   7.235 -2.0014  4.5087  2.2308
 3394THY    HP384834   0.208   7.056   7.196  0.6964  1.0933  1.3246
 3394THY    HP484835   0.243   6.898   7.273  0.2395 -0.4738 -0.8770
 3394THY    CP384836   0.077   7.178   7.394 -0.2103  0.7734  0.2855
 3394THY    HP584837   0.116   7.243   7.315 -1.1470  2.2361  0.9894
 3394THY    HP684838  -0.027   7.155   7.367 -0.1038  1.3781 -0.7015
 3394THY    HP784839   0.083   7.225   7.492  0.6860 -1.8649  1.5947
 3394THY    CA384840   0.012   6.865   7.521 -0.3068  0.2668 -0.6194
 3394THY    HA384841  -0.043   6.844   7.430 -2.6683 -1.2629  1.0236
 3394THY    CA484842  -0.027   6.784   7.627  0.6366  0.0749  0.2866
 3394THY    HA484843  -0.095   6.701   7.612  1.1333 -1.4572  4.7828
 3394THY    CA584844   0.034   6.800   7.747 -0.4216 -0.9009 -0.4218
 3394THY    CM184845   0.010   6.707   7.863  0.7260  0.6041  0.0854
 3394THY    HM184846  -0.038   6.759   7.946 -0.7175 -0.8714  0.2399
 3394THY    HM284847  -0.068   6.632   7.844 -2.0796  2.7669  2.2247
 3394THY    HM384848   0.105   6.659   7.890 -0.1222 -1.5926 -0.6151
 3394THY    CA684849   0.139   6.888   7.763  0.5120  0.6079  0.0617
 3394THY    HA684850   0.178   6.905   7.863  0.9454  2.7621 -0.4450
 3395THY      O84851   5.140   5.922   8.570  0.2279 -0.5834 -0.4188
 3395THY     HO84852   5.216   5.908   8.630  0.5199  2.7156  0.1894
 3395THY    CA184853   5.038   5.849   8.625  0.8009  0.2619  0.0650
 3395THY    CA284854   4.916   5.818   8.553 -0.2566  0.1102  0.0836
 3395THY    CP184855   4.896   5.872   8.414  0.3228  0.2009  0.1300
 3395THY    HP184856   4.973   5.950   8.401 -0.8907  1.6217  1.0747
 3395THY    CP284857   4.921   5.765   8.298  0.3501 -0.2700 -0.0925
 3395THY    HP284858   4.873   5.671   8.330  1.4097 -1.0015 -0.5813
 3395THY    HP384859   4.890   5.798   8.198 -0.3887 -0.2398  0.1360
 3395THY    HP484860   5.027   5.740   8.293  0.6250  1.0807 -1.7595
 3395THY    CP384861   4.759   5.945   8.385 -0.4756  0.1748 -0.9292
 3395THY    HP584862   4.724   6.001   8.473 -0.7826 -1.8383  0.3031
 3395THY    HP684863   4.758   6.019   8.304 -1.2399  0.5694 -0.5700
 3395THY    HP784864   4.681   5.869   8.376  1.3349 -1.8719 -0.2441
 3395THY    CA384865   4.814   5.742   8.610 -0.2058 -0.1103 -0.3511
 3395THY    HA384866   4.729   5.716   8.547  0.5437 -1.7590 -0.7421
 3395THY    CA484867   4.844   5.691   8.734 -0.5322  0.0566 -0.0682
 3395THY    HA484868   4.772   5.626   8.783  0.2562 -1.1070 -0.4122
 3395THY    CA584869   4.961   5.714   8.804  0.4319 -0.6535  0.5615
 3395THY    CM184870   4.986   5.666   8.945  0.1761  0.0751  0.3732
 3395THY    HM184871   5.058   5.727   9.001  1.2098  0.8924 -1.7369
 3395THY    HM284872   4.891   5.656   8.999 -1.0867  0.5255 -1.6953
 3395THY    HM384873   5.035   5.568   8.937  2.3775  1.1132  0.3598
 3395THY    CA684874   5.058   5.794   8.748  0.0997  0.1910  0.2114
 3395THY    HA684875   5.147   5.815   8.808  0.6319 -0.8338 -0.1876
 3396THY      O84876   3.688   7.934   5.526  0.3951  0.5326  0.6046
 3396THY     HO84877   3.749   8.006   5.552  1.5700  0.1762 -1.0344
 3396THY    CA184878   3.708   7.913   5.392  0.6062 -0.3506 -0.4881
 3396THY    CA284879   3.702   7.783   5.343 -0.6928  0.5038 -0.0927
 3396THY    CP184880   3.707   7.661   5.444 -0.0956 -0.0667 -0.2527
 3396THY    HP184881   3.639   7.694   5.524  1.1664 -0.5424  1.0644
 3396THY    CP284882   3.633   7.538   5.390  0.0310 -0.4824 -0.3775
 3396THY    HP284883   3.548   7.557   5.323 -1.1526  1.1035  1.4563
 3396THY    HP384884   3.704   7.471   5.341  0.4584  0.4486 -1.0680
 3396THY    HP484885   3.587   7.486   5.475 -1.0885 -1.3679 -1.4856
 3396THY    CP384886   3.843   7.623   5.511 -0.2322  0.1081  0.3005
 3396THY    HP584887   3.898   7.551   5.449  1.5116  2.1150 -0.6216
 3396THY    HP684888   3.909   7.709   5.526  0.7216 -0.9850  2.8567
 3396THY    HP784889   3.829   7.567   5.604 -1.0123  0.1443  0.2109
 3396THY    CA384890   3.722   7.757   5.202 -0.0357  0.2871 -0.7616
 3396THY    HA384891   3.716   7.658   5.158  0.9718  0.6461 -1.7575
 3396THY    CA484892   3.728   7.868   5.117 -0.3481  0.3156  0.0481
 3396THY    HA484893   3.733   7.843   5.011 -1.2031 -0.0243  0.0803
 3396THY    CA584894   3.727   8.000   5.170  0.1429  0.1998  0.2032
 3396THY    CM184895   3.733   8.118   5.073  1.0179 -0.3460  0.0424
 3396THY    HM184896   3.636   8.134   5.024 -0.3372 -0.0129  2.6111
 3396THY    HM284897   3.747   8.213   5.125 -2.1391 -1.3875  3.2171
 3396THY    HM384898   3.801   8.112   4.988  0.6594  1.4311 -0.4049
 3396THY    CA684899   3.717   8.022   5.304 -0.4858  0.1338  0.1176
 3396THY    HA684900   3.703   8.123   5.340 -0.8479  0.4503 -0.8781
 3397THY      O84901   9.499   6.034   5.503  0.1611 -0.2901 -0.3252
 3397THY     HO84902   9.434   5.996   5.565  1.3684  0.6235  1.6240
 3397THY    CA184903   9.584   5.941   5.470 -0.2186  0.1899  1.0266
 3397THY    CA284904   9.681   5.975   5.369  0.4935  0.0106  0.7692
 3397THY    CP184905   9.682   6.121   5.320 -0.2350 -0.2887 -0.4069
 3397THY    HP184906   9.594   6.182   5.345  0.2079  0.3863 -0.4682
 3397THY    CP284907   9.803   6.193   5.379 -0.4768  0.7616  0.4427
 3397THY    HP284908   9.799   6.185   5.488  3.4309 -2.6845  0.5487
 3397THY    HP384909   9.900   6.156   5.343  0.9343  3.9822  0.5699
 3397THY    HP484910   9.797   6.301   5.361  0.8482  0.7928  0.0963
 3397THY    CP384911   9.692   6.110   5.168 -0.1250 -0.5280 -0.6239
 3397THY    HP584912   9.696   6.210   5.123 -0.4131 -0.0758  0.3295
 3397THY    HP684913   9.764   6.041   5.123  0.2738  1.1505 -2.7145
 3397THY    HP784914   9.594   6.071   5.137 -0.1486 -2.6752  1.8523
 3397THY    CA384915   9.780   5.877   5.342 -0.1771 -0.2104 -0.2060
 3397THY    HA384916   9.852   5.895   5.263  1.6352  0.0442  1.4260
 3397THY    CA484917   9.768   5.752   5.399 -0.0669  0.0863 -0.5092
 3397THY    HA484918   9.839   5.671   5.382 -0.4508 -0.3127 -0.2389
 3397THY    CA584919   9.675   5.723   5.497 -0.3473  0.2095 -1.0800
 3397THY    CM184920   9.673   5.587   5.569  0.6385 -0.1032 -0.4063
 3397THY    HM184921   9.575   5.550   5.602  0.5373 -0.3166 -0.9470
 3397THY    HM284922   9.716   5.500   5.519  1.7133 -0.3394  0.8614
 3397THY    HM384923   9.731   5.590   5.662 -1.5370 -2.1339  1.1329
 3397THY    CA684924   9.584   5.823   5.539  0.5917  0.0888 -0.0153
 3397THY    HA684925   9.520   5.799   5.624  1.5168 -1.3253  0.3270
 3398THY      O84926   9.940   4.162   5.007 -0.2338  0.6298  0.1158
 3398THY     HO84927   9.947   4.080   5.058  0.0025 -0.4778 -1.6010
 3398THY    CA184928  10.037   4.243   5.046 -0.1020 -0.2620 -1.1219
 3398THY    CA284929  10.062   4.370   4.988 -0.6120  0.3705 -0.2493
 3398THY    CP184930   9.975   4.423   4.872 -0.3498 -0.1709  0.3433
 3398THY    HP184931   9.869   4.404   4.893 -1.4128  4.0985 -0.1971
 3398THY    CP284932   9.988   4.575   4.836 -1.7211  0.2537  0.0246
 3398THY    HP284933   9.930   4.606   4.749  1.5052  1.5249 -1.8604
 3398THY    HP384934   9.961   4.643   4.918 -1.0220 -0.5630  0.9657
 3398THY    HP484935  10.091   4.590   4.801 -1.6915 -2.0582 -1.0002
 3398THY    CP384936   9.991   4.345   4.747 -0.1161  0.4189  0.4052
 3398THY    HP584937  10.093   4.339   4.709 -0.3362  1.5112 -0.4074
 3398THY    HP684938   9.954   4.246   4.774 -0.2590  0.4999  0.5146
 3398THY    HP784939   9.927   4.392   4.672 -0.6593 -0.6235  0.2002
 3398THY    CA384940  10.179   4.443   5.035 -0.1419  1.0073  0.0276
 3398THY    HA384941  10.200   4.542   4.996 -0.3598  0.2421 -2.1767
 3398THY    CA484942  10.254   4.387   5.146 -0.3314 -0.3341  0.4065
 3398THY    HA484943  10.340   4.442   5.182 -1.4300  0.3220  2.2041
 3398THY    CA584944  10.219   4.270   5.210 -0.4096  0.2880 -0.4286
 3398THY    CM184945  10.307   4.220   5.328  0.0558  0.4005  0.3409
 3398THY    HM184946  10.272   4.119   5.351 -2.9055  1.5390  1.2500
 3398THY    HM284947  10.412   4.223   5.296  0.3549  2.5106  1.3403
 3398THY    HM384948  10.295   4.293   5.409 -0.7213  3.0081 -1.9896
 3398THY    CA684949  10.114   4.196   5.159  1.0434 -0.2027 -0.1054
 3398THY    HA684950  10.079   4.106   5.210 -1.8093  0.9008  0.0600
 3399THY      O84951   1.285   2.728   4.552 -0.0169  0.3023  0.5950
 3399THY     HO84952   1.343   2.656   4.522 -1.2783 -0.1224 -0.9231
 3399THY    CA184953   1.336   2.851   4.533 -0.2460  0.4402  0.1660
 3399THY    CA284954   1.255   2.967   4.542 -0.5698 -0.8105  0.3362
 3399THY    CP184955   1.107   2.955   4.562 -0.5697  0.3214  0.4372
 3399THY    HP184956   1.067   2.881   4.491 -3.0233  0.4586  1.5812
 3399THY    CP284957   1.077   2.911   4.700  0.4369  0.3613 -0.8516
 3399THY    HP284958   1.079   2.998   4.766  0.6923 -0.3662  0.1196
 3399THY    HP384959   0.976   2.871   4.681  0.9707 -0.9624 -1.0273
 3399THY    HP484960   1.156   2.839   4.724  0.0262 -0.0810 -0.7966
 3399THY    CP384961   1.032   3.082   4.532  0.4149  0.1620 -0.1892
 3399THY    HP584962   1.047   3.173   4.591 -0.9083  1.1944 -1.3806
 3399THY    HP684963   1.049   3.117   4.429  0.5816  5.4428  1.3153
 3399THY    HP784964   0.925   3.060   4.536  0.4751  0.0610  1.3125
 3399THY    CA384965   1.331   3.088   4.517 -0.0158  0.0579  0.3027
 3399THY    HA384966   1.284   3.185   4.527  0.1800  0.1680  0.1348
 3399THY    CA484967   1.472   3.090   4.484  0.5373 -0.5412  0.2044
 3399THY    HA484968   1.524   3.184   4.474 -0.8607  0.0740 -1.9470
 3399THY    CA584969   1.539   2.969   4.480  1.0049 -1.2041  0.8041
 3399THY    CM184970   1.691   2.966   4.449 -0.5041  0.3551 -0.0537
 3399THY    HM184971   1.753   3.045   4.493 -2.3338  2.3797 -0.9413
 3399THY    HM284972   1.740   2.884   4.503  1.5680  0.5563 -1.5036
 3399THY    HM384973   1.722   2.969   4.344  2.2721  3.7395  0.6735
 3399THY    CA684974   1.470   2.849   4.498 -0.0458 -0.0457  0.3419
 3399THY    HA684975   1.518   2.751   4.494 -0.4827 -0.3586  2.1741
 3400THY      O84976   5.675   5.715   8.736  0.0052  0.7710  0.0321
 3400THY     HO84977   5.658   5.756   8.650  0.0008  0.7218  0.0094
 3400THY    CA184978   5.799   5.746   8.779  0.0549 -0.1998  0.1520
 3400THY    CA284979   5.850   5.721   8.909  0.1410  0.1435 -0.9491
 3400THY    CP184980   5.771   5.660   9.024  0.6654 -0.8063  0.4476
 3400THY    HP184981   5.668   5.632   9.000 -0.3168  0.4901  2.8043
 3400THY    CP284982   5.833   5.532   9.077  0.4579 -0.2534  0.5167
 3400THY    HP284983   5.783   5.499   9.168 -0.7970  2.3817  0.8555
 3400THY    HP384984   5.844   5.457   8.997 -0.0341 -0.3659  0.5510
 3400THY    HP484985   5.940   5.535   9.101  1.2819 -0.6452 -2.6412
 3400THY    CP384986   5.759   5.767   9.133 -0.3641 -0.4470  0.1054
 3400THY    HP584987   5.696   5.734   9.217  0.7587 -0.0980  1.0996
 3400THY    HP684988   5.857   5.782   9.178 -0.2630 -3.1265  0.9557
 3400THY    HP784989   5.727   5.862   9.088  0.4300 -0.5296 -0.6557
 3400THY    CA384990   5.979   5.762   8.939 -0.0549  0.6001  0.1103
 3400THY    HA384991   6.024   5.735   9.034  1.9236  0.0718 -0.9130
 3400THY    CA484992   6.062   5.819   8.838 -0.0485  0.3121 -0.0290
 3400THY    HA484993   6.167   5.845   8.852 -0.4322  2.0214 -0.1401
 3400THY    CA584994   6.013   5.832   8.706  0.4365 -0.4007 -0.2951
 3400THY    CM184995   6.101   5.887   8.601  0.2503 -0.1162  0.2667
 3400THY    HM184996   6.197   5.834   8.595 -1.0120 -2.6659  1.2592
 3400THY    HM284997   6.052   5.881   8.503 -0.1245 -2.0457  0.5409
 3400THY    HM384998   6.128   5.992   8.618 -0.1262  0.4565 -2.2794
 3400THY    CA684999   5.884   5.796   8.676  0.2067  0.4002  0.0809
 3400THY    HA685000   5.845   5.820   8.578  0.2651  1.4619  0.3031
 3401THY      O85001   8.202   8.355   6.917  0.6177 -0.0817  0.0001
 3401THY     HO85002   8.116   8.383   6.883 -0.5429 -2.1086  1.0766
 3401THY    CA185003   8.175   8.243   6.990 -0.0343  0.0843  0.1861
 3401THY    CA285004   8.243   8.229   7.119  0.2168 -0.3748  1.0041
 3401THY    CP185005   8.318   8.356   7.172  0.1673 -0.4707 -0.0732
 3401THY    HP185006   8.346   8.429   7.095  2.8643 -0.0894  1.1749
 3401THY    CP285007   8.237   8.428   7.272 -0.2491 -0.0480 -0.5473
 3401THY    HP285008   8.147   8.454   7.216  0.3628  0.2223 -1.4397
 3401THY    HP385009   8.214   8.373   7.364 -1.5654  3.3232  1.2864
 3401THY    HP485010   8.291   8.519   7.299 -0.6350  0.8661 -2.6743
 3401THY    CP385011   8.452   8.335   7.256  1.0319  0.5582  0.1124
 3401THY    HP585012   8.492   8.233   7.260  0.0130  0.1742  1.3024
 3401THY    HP685013   8.523   8.411   7.220  1.3544 -0.0841 -0.6502
 3401THY    HP785014   8.436   8.349   7.363 -0.4174 -1.3679  0.1968
 3401THY    CA385015   8.211   8.117   7.194  0.1642 -0.0875 -0.1260
 3401THY    HA385016   8.244   8.103   7.296  0.5506 -1.7753 -0.4578
 3401THY    CA485017   8.136   8.015   7.132 -0.1943  0.3538  0.4541
 3401THY    HA485018   8.117   7.921   7.184 -0.4043 -0.9081 -1.7922
 3401THY    CA585019   8.077   8.028   7.006  0.0361 -0.1084 -0.5836
 3401THY    CM185020   8.004   7.910   6.936  0.2484  0.3235 -0.1913
 3401THY    HM185021   7.899   7.920   6.964  0.5232 -1.0686  1.5009
 3401THY    HM285022   8.010   7.915   6.826  3.2543  1.2306 -0.0736
 3401THY    HM385023   8.038   7.813   6.976 -0.1630  0.3087  0.1357
 3401THY    CA685024   8.095   8.147   6.937  1.0190  0.0528 -0.2070
 3401THY    HA685025   8.070   8.151   6.832  1.9958  0.1818 -0.4467
 3402THY      O85026   0.029   4.911   2.772  0.1070  0.4222  0.2928
 3402THY     HO85027  -0.064   4.935   2.760 -0.0683  1.8103  3.4696
 3402THY    CA185028   0.072   4.861   2.657  0.0763  0.8574 -0.5480
 3402THY    CA285029   0.206   4.810   2.648  0.1726  0.2284 -0.0576
 3402THY    CP185030   0.304   4.825   2.775 -0.1743 -0.4249 -0.1466
 3402THY    HP185031   0.256   4.796   2.869  0.7836 -1.8791 -0.0673
 3402THY    CP285032   0.423   4.729   2.763  0.1864 -0.0251 -0.1373
 3402THY    HP285033   0.386   4.630   2.734  0.2326 -0.0321 -0.1723
 3402THY    HP385034   0.500   4.767   2.695 -2.2391  1.4626 -2.2273
 3402THY    HP485035   0.467   4.711   2.862 -1.5959  1.1161  0.9258
 3402THY    CP385036   0.347   4.965   2.811  0.2826 -0.0920 -0.6164
 3402THY    HP585037   0.387   4.963   2.913  0.0957 -0.5828 -0.5502
 3402THY    HP685038   0.425   4.989   2.738  1.5528  0.8578  0.9823
 3402THY    HP785039   0.263   5.035   2.800 -0.6871 -1.0852  0.1561
 3402THY    CA385040   0.244   4.747   2.528  0.2219  0.1636  0.0383
 3402THY    HA385041   0.346   4.716   2.510  0.3762  0.7187 -0.0597
 3402THY    CA485042   0.149   4.737   2.424 -0.1321 -0.2179 -0.0838
 3402THY    HA485043   0.179   4.697   2.327  0.8201 -0.9474  0.5030
 3402THY    CA585044   0.014   4.777   2.440 -0.3706 -0.5170  0.2050
 3402THY    CM185045  -0.094   4.753   2.336  0.1159 -0.7004  0.2782
 3402THY    HM185046  -0.174   4.826   2.345 -1.2951 -1.9266 -1.5862
 3402THY    HM285047  -0.048   4.767   2.238 -2.0958  1.7497 -0.5127
 3402THY    HM385048  -0.133   4.650   2.334 -0.8773 -0.3245 -1.1010
 3402THY    CA685049  -0.018   4.846   2.558 -0.1303 -0.4501 -0.2512
 3402THY    HA685050  -0.120   4.882   2.571 -0.4568 -0.1246 -3.1384
 3403THY      O85051   1.721   1.826   1.799 -0.0751  0.7153 -0.0140
 3403THY     HO85052   1.755   1.889   1.864  0.2295  0.6400 -0.1006
 3403THY    CA185053   1.695   1.713   1.868 -0.5890 -0.3259 -0.0274
 3403THY    CA285054   1.716   1.589   1.820 -0.2194  0.2654  0.1736
 3403THY    CP185055   1.788   1.575   1.688 -0.4107  0.4417 -0.4521
 3403THY    HP185056   1.768   1.668   1.633 -2.2041  1.3298  1.5511
 3403THY    CP285057   1.940   1.571   1.727 -0.3149  0.9830  0.5424
 3403THY    HP285058   1.957   1.485   1.793 -3.1141  0.1065  0.2361
 3403THY    HP385059   2.000   1.565   1.635 -0.1927 -0.6357  0.6956
 3403THY    HP485060   1.966   1.664   1.779  3.1677 -0.1536  1.1402
 3403THY    CP385061   1.747   1.457   1.606 -0.8273 -0.4241 -0.3568
 3403THY    HP585062   1.637   1.454   1.605 -0.8436  0.1466 -0.8113
 3403THY    HP685063   1.788   1.455   1.504 -0.5924 -0.3008 -0.2633
 3403THY    HP785064   1.774   1.365   1.658 -1.4558 -0.2186  0.3570
 3403THY    CA385065   1.690   1.474   1.894 -0.0903  0.4182 -0.2815
 3403THY    HA385066   1.711   1.374   1.860  0.8357  0.0512  1.2575
 3403THY    CA485067   1.631   1.495   2.025 -0.2385 -1.0334  0.2339
 3403THY    HA485068   1.609   1.416   2.096  0.7251 -2.1831 -0.7029
 3403THY    CA585069   1.611   1.621   2.073 -0.5490 -1.1496 -0.3307
 3403THY    CM185070   1.550   1.655   2.201  0.3861 -0.3491  0.0570
 3403THY    HM185071   1.447   1.619   2.203 -0.1679  1.1092 -0.4035
 3403THY    HM285072   1.600   1.606   2.286  1.4412  0.5902  0.0062
 3403THY    HM385073   1.546   1.762   2.227 -1.9338 -0.1800 -0.7342
 3403THY    CA685074   1.651   1.731   1.998  0.7125 -0.2869 -0.3327
 3403THY    HA685075   1.628   1.832   2.029  1.7072 -0.4214  0.9272
 3404THY      O85076   9.765   7.846   6.935  0.1554  0.3559  0.2006
 3404THY     HO85077   9.825   7.910   6.977  1.4001 -0.8000  0.2651
 3404THY    CA185078   9.674   7.922   6.873  0.5683  0.0929  0.4785
 3404THY    CA285079   9.639   7.891   6.739  0.2326  0.3800 -0.1709
 3404THY    CP185080   9.672   7.751   6.678 -0.3440  0.0713 -0.3335
 3404THY    HP185081   9.726   7.690   6.751  2.0111  2.3512 -0.0184
 3404THY    CP285082   9.551   7.674   6.629 -0.8321  0.3560  0.4167
 3404THY    HP285083   9.492   7.653   6.719 -1.9098  1.1988 -0.0690
 3404THY    HP385084   9.496   7.730   6.553  2.0111  2.5234 -0.2072
 3404THY    HP485085   9.581   7.576   6.589 -4.3545 -1.2041  1.2151
 3404THY    CP385086   9.775   7.766   6.570  0.3567 -0.2686  0.5132
 3404THY    HP585087   9.729   7.832   6.495  0.4774  0.0831  0.7488
 3404THY    HP685088   9.857   7.823   6.614  0.2130  0.8180 -0.5744
 3404THY    HP785089   9.821   7.674   6.530 -0.6776 -0.1787 -0.9709
 3404THY    CA385090   9.549   7.980   6.673 -0.0656 -0.1667 -0.3525
 3404THY    HA385091   9.511   7.954   6.575  1.0275 -2.4874 -0.2484
 3404THY    CA485092   9.516   8.102   6.737 -0.1019  0.4912  0.1766
 3404THY    HA485093   9.451   8.174   6.689 -1.2739  1.2993  2.8000
 3404THY    CA585094   9.562   8.134   6.865 -0.8656 -0.1658  0.0362
 3404THY    CM185095   9.538   8.270   6.939  0.5275 -0.2284  0.0002
 3404THY    HM185096   9.442   8.278   6.990 -0.0688 -0.1948 -1.0863
 3404THY    HM285097   9.622   8.296   7.004 -0.7989  1.3144  1.1594
 3404THY    HM385098   9.529   8.348   6.863  0.4506  2.6991  2.8108
 3404THY    CA685099   9.632   8.035   6.939 -0.3976 -0.5286 -0.6890
 3404THY    HA685100   9.687   8.064   7.028 -2.0035 -1.3314  0.6293
 3405THY      O85101   0.476   4.658   8.098 -0.0413  0.5129 -0.4804
 3405THY     HO85102   0.491   4.694   8.187 -1.9169 -0.1664  0.1570
 3405THY    CA185103   0.569   4.574   8.056 -0.6962  1.1127 -1.0570
 3405THY    CA285104   0.546   4.477   7.958 -0.6026 -0.3323 -1.0268
 3405THY    CP185105   0.400   4.438   7.917 -0.3691  0.6190  0.6143
 3405THY    HP185106   0.339   4.529   7.916  0.4612  1.2904  3.1217
 3405THY    CP285107   0.391   4.361   7.792 -0.4916  0.1021  1.0691
 3405THY    HP285108   0.420   4.416   7.702 -0.2873 -0.3748  0.8385
 3405THY    HP385109   0.451   4.269   7.792  0.1573  0.5116  1.6586
 3405THY    HP485110   0.283   4.342   7.795 -0.6904  1.1688  0.8826
 3405THY    CP385111   0.336   4.352   8.030 -0.0020 -0.0657 -0.0970
 3405THY    HP585112   0.380   4.251   8.033  1.2844  0.4643 -0.1877
 3405THY    HP685113   0.350   4.406   8.125  2.3555  0.5990 -0.7447
 3405THY    HP785114   0.232   4.351   7.999  0.0060 -1.2404 -0.1071
 3405THY    CA385115   0.661   4.405   7.914  0.0353 -0.3482 -0.2349
 3405THY    HA385116   0.651   4.326   7.839  1.1524  2.0436 -3.0915
 3405THY    CA485117   0.787   4.420   7.965 -0.4514  0.5738  0.3229
 3405THY    HA485118   0.871   4.359   7.934 -0.1286  1.2346 -0.1104
 3405THY    CA585119   0.805   4.520   8.060 -0.2660  0.3369  0.1475
 3405THY    CM185120   0.946   4.549   8.104  0.5611  0.4467  0.4367
 3405THY    HM185121   1.004   4.600   8.026  1.6526 -1.0938  0.2089
 3405THY    HM285122   0.960   4.611   8.193  1.6289 -0.9773  1.3026
 3405THY    HM385123   0.984   4.449   8.127 -0.3274 -0.5048 -1.8678
 3405THY    CA685124   0.701   4.597   8.100  0.0129  0.0885 -0.0313
 3405THY    HA685125   0.720   4.672   8.176  1.0363  1.4169 -1.5300
 3406THY      O85126   8.288   8.995   9.530  0.2523 -0.1146 -0.0275
 3406THY     HO85127   8.283   9.083   9.491  1.4369 -0.6005 -1.3816
 3406THY    CA185128   8.395   9.009   9.602 -0.1628  0.6238  0.0941
 3406THY    CA285129   8.443   8.903   9.683  0.2950  0.0994  0.2009
 3406THY    CP185130   8.369   8.767   9.685  0.2972 -0.1325  0.1210
 3406THY    HP185131   8.313   8.764   9.591  1.0700  0.1940 -0.3648
 3406THY    CP285132   8.468   8.647   9.689  0.1833  0.0673  0.5491
 3406THY    HP285133   8.430   8.566   9.626  1.4627  0.3602 -0.6655
 3406THY    HP385134   8.555   8.678   9.630 -0.7658 -2.3340 -2.3799
 3406THY    HP485135   8.494   8.610   9.788  2.4557 -0.7365 -0.2918
 3406THY    CP385136   8.284   8.768   9.812 -0.2601  0.9742 -0.2918
 3406THY    HP585137   8.228   8.862   9.818  0.7785  1.8396 -2.7609
 3406THY    HP685138   8.220   8.680   9.814 -0.2534  0.9800  0.2665
 3406THY    HP785139   8.343   8.766   9.904 -0.2609  0.3631 -0.3013
 3406THY    CA385140   8.560   8.929   9.757 -1.1947 -0.5833 -0.3203
 3406THY    HA385141   8.592   8.845   9.817  0.9901  0.5646  0.2371
 3406THY    CA485142   8.615   9.055   9.765 -0.5622 -0.6456  0.1387
 3406THY    HA485143   8.702   9.077   9.827  0.9322 -0.4403 -1.9071
 3406THY    CA585144   8.560   9.156   9.691 -0.1382  0.3766  0.5061
 3406THY    CM185145   8.617   9.296   9.699  0.2759 -0.7123 -0.1650
 3406THY    HM185146   8.726   9.289   9.691  0.3671  0.5119 -0.2901
 3406THY    HM285147   8.586   9.351   9.609  1.8045 -1.3542 -1.1084
 3406THY    HM385148   8.596   9.343   9.796  1.2076 -0.1386 -0.2258
 3406THY    CA685149   8.451   9.133   9.604 -0.4025 -0.8719 -0.6764
 3406THY    HA685150   8.418   9.215   9.541  1.2856 -1.3711 -2.2878
 3407THY      O85151   5.665   1.297   1.021  0.2017 -0.0522  0.0755
 3407THY     HO85152   5.599   1.229   1.000  1.1723 -0.9543 -0.0766
 3407THY    CA185153   5.638   1.417   0.963 -0.2144  0.0958 -0.3156
 3407THY    CA285154   5.691   1.536   1.013 -0.5498 -1.0544 -0.1870
 3407THY    CP185155   5.780   1.538   1.134 -0.1571 -0.0235 -0.3139
 3407THY    HP185156   5.738   1.469   1.208  1.4663  0.7411  1.4158
 3407THY    CP285157   5.920   1.478   1.110  0.6297 -0.1935  0.0066
 3407THY    HP285158   5.971   1.547   1.042 -0.5252  1.2684  0.5709
 3407THY    HP385159   5.979   1.486   1.202  0.3393  3.0950  0.0245
 3407THY    HP485160   5.925   1.373   1.077 -0.4564 -0.5076  0.7690
 3407THY    CP385161   5.795   1.674   1.206 -0.5285 -0.1064  0.6488
 3407THY    HP585162   5.698   1.720   1.227  0.4453  2.5360 -0.2911
 3407THY    HP685163   5.858   1.672   1.296 -2.2196  0.2520  1.8978
 3407THY    HP785164   5.847   1.745   1.141 -1.3660  1.2259  1.3700
 3407THY    CA385165   5.674   1.650   0.932 -0.7882  0.0692  0.3877
 3407THY    HA385166   5.738   1.737   0.947 -0.2533 -0.4813  1.4123
 3407THY    CA485167   5.601   1.642   0.817  0.9318 -0.2946 -0.3133
 3407THY    HA485168   5.580   1.733   0.762  1.7065  0.5656  0.8007
 3407THY    CA585169   5.546   1.523   0.774  0.9311  0.1946 -0.0440
 3407THY    CM185170   5.466   1.502   0.644  0.1659  0.0943 -0.1921
 3407THY    HM185171   5.528   1.514   0.554 -0.7567  2.7917 -0.5771
 3407THY    HM285172   5.438   1.397   0.630  0.1907 -0.1147  1.2276
 3407THY    HM385173   5.383   1.573   0.635 -0.7828 -0.9472  0.1607
 3407THY    CA685174   5.569   1.405   0.849  0.0820 -0.3872 -0.3137
 3407THY    HA685175   5.524   1.315   0.808 -2.2793  0.5006  0.1349
 3408THY      O85176   6.460   1.910   1.234  0.4216  0.6511  0.2933
 3408THY     HO85177   6.466   2.007   1.233  0.5116  0.6463  0.4027
 3408THY    CA185178   6.373   1.887   1.138 -0.0644  0.9404 -0.5349
 3408THY    CA285179   6.322   1.753   1.111 -0.0763 -0.8004 -0.7453
 3408THY    CP185180   6.359   1.629   1.211  0.5651  0.2995 -0.4278
 3408THY    HP185181   6.429   1.664   1.287 -0.1061  0.5236  0.1037
 3408THY    CP285182   6.243   1.557   1.270 -0.0419  1.0333  0.8632
 3408THY    HP285183   6.192   1.490   1.200 -2.6111  1.5066  2.1212
 3408THY    HP385184   6.280   1.505   1.359  1.7970 -0.1934 -0.5658
 3408THY    HP485185   6.166   1.622   1.314  0.5123  0.8199  2.1924
 3408THY    CP385186   6.445   1.517   1.147 -0.1012 -0.1483  0.1587
 3408THY    HP585187   6.450   1.431   1.214  2.2083 -0.3910 -0.2444
 3408THY    HP685188   6.406   1.506   1.045 -2.2627 -1.5706  1.0790
 3408THY    HP785189   6.553   1.540   1.143  1.0718 -4.7837 -1.2253
 3408THY    CA385190   6.242   1.741   0.996  0.4710  0.0435 -0.4623
 3408THY    HA385191   6.217   1.642   0.960 -0.2002  0.3205 -0.7735
 3408THY    CA485192   6.210   1.857   0.923 -0.3196 -1.0001 -0.5940
 3408THY    HA485193   6.155   1.849   0.830  0.4111  1.3754 -1.2950
 3408THY    CA585194   6.251   1.990   0.961 -0.4675  0.6780 -0.2642
 3408THY    CM185195   6.230   2.107   0.868  0.3528 -0.1464 -0.5170
 3408THY    HM185196   6.201   2.067   0.770 -0.1765 -1.8787  0.2969
 3408THY    HM285197   6.153   2.175   0.906  0.1016 -0.7945  0.1644
 3408THY    HM385198   6.321   2.168   0.861  0.5884 -0.2967  0.8545
 3408THY    CA685199   6.337   2.001   1.065  0.4460  0.4947 -0.2778
 3408THY    HA685200   6.371   2.097   1.103  2.1350 -1.1062  2.7010
 3409THY      O85201   2.617   9.806   0.228  0.7020 -0.2678  0.1087
 3409THY     HO85202   2.661   9.770   0.307 -0.8227  0.7151  1.4811
 3409THY    CA185203   2.499   9.739   0.229  0.1262  0.5100  0.5551
 3409THY    CA285204   2.375   9.789   0.194  0.2137  0.5978  0.5573
 3409THY    CP185205   2.358   9.925   0.139 -0.0474  0.5680 -0.6844
 3409THY    HP185206   2.458   9.957   0.108  1.5989 -0.7465  2.7877
 3409THY    CP285207   2.261   9.935   0.018 -0.1190 -0.4526 -0.7001
 3409THY    HP285208   2.267  10.033  -0.029 -0.9956 -0.7074 -1.3814
 3409THY    HP385209   2.285   9.854  -0.053  1.2228 -0.0362 -0.7607
 3409THY    HP485210   2.157   9.929   0.052 -1.7095  0.3317 -4.8203
 3409THY    CP385211   2.294  10.018   0.245  0.1396  0.3574  0.0987
 3409THY    HP585212   2.353  10.031   0.337  0.4967  1.1920 -0.2387
 3409THY    HP685213   2.277  10.120   0.207 -2.3255  1.1350  2.9061
 3409THY    HP785214   2.198   9.983   0.284 -0.7705  1.2445 -1.2644
 3409THY    CA385215   2.262   9.705   0.191 -0.6976 -0.0933 -0.8257
 3409THY    HA385216   2.166   9.750   0.171 -0.1364  3.2468  2.7097
 3409THY    CA485217   2.272   9.569   0.230  0.2941 -0.3807 -0.7611
 3409THY    HA485218   2.188   9.500   0.233  2.0369 -2.5591  0.7262
 3409THY    CA585219   2.397   9.522   0.270  0.1235 -0.0529  0.0404
 3409THY    CM185220   2.407   9.388   0.341  0.3037  0.4210 -0.8773
 3409THY    HM185221   2.356   9.394   0.438  1.1033 -0.7409 -0.3459
 3409THY    HM285222   2.359   9.314   0.275  0.2395 -0.7937  0.4781
 3409THY    HM385223   2.511   9.354   0.351 -0.0215 -0.3321  0.1841
 3409THY    CA685224   2.508   9.605   0.271 -0.3476  0.4305  0.2102
 3409THY    HA685225   2.606   9.566   0.297  0.0695  1.1049 -0.2896
 3410THY      O85226   4.526   9.892   6.004 -0.7463 -0.0946  0.2127
 3410THY     HO85227   4.504   9.881   6.098  2.8617 -2.1934  0.9837
 3410THY    CA185228   4.415   9.920   5.935 -0.0818  0.1454  0.1323
 3410THY    CA285229   4.405   9.884   5.797  0.1658  0.5804 -0.5141
 3410THY    CP185230   4.518   9.805   5.737 -0.2230  0.0623  0.3018
 3410THY    HP185231   4.594   9.779   5.811 -0.7218 -1.6032  0.2754
 3410THY    CP285232   4.468   9.679   5.673  0.2888  0.2595  0.6151
 3410THY    HP285233   4.414   9.706   5.582  2.1607 -0.9377 -0.8983
 3410THY    HP385234   4.551   9.619   5.634 -0.1467  1.6424 -2.6875
 3410THY    HP485235   4.416   9.617   5.748  2.1451 -1.8424  0.2594
 3410THY    CP385236   4.581   9.890   5.626  0.6219 -0.3461  0.0527
 3410THY    HP585237   4.505   9.928   5.558 -0.3439 -2.4126 -0.0986
 3410THY    HP685238   4.610   9.982   5.678 -0.8778 -0.2723  0.7746
 3410THY    HP785239   4.672   9.848   5.580 -0.3398 -0.5870 -1.6932
 3410THY    CA385240   4.289   9.926   5.721  1.0637 -0.0708  0.7758
 3410THY    HA385241   4.266   9.897   5.619 -2.8340 -0.0969  1.4943
 3410THY    CA485242   4.185   9.989   5.788 -0.2542 -0.8050 -0.6197
 3410THY    HA485243   4.097  10.022   5.734 -0.5875 -2.4278 -1.1096
 3410THY    CA585244   4.200  10.022   5.921 -0.1133  0.1671 -0.1913
 3410THY    CM185245   4.090  10.105   5.982  0.2781  0.0155 -0.1214
 3410THY    HM185246   3.994  10.114   5.930  0.5671 -1.0591 -0.8775
 3410THY    HM285247   4.061  10.051   6.072  0.0721  2.9130  1.6652
 3410THY    HM385248   4.127  10.198   6.026  0.8183  0.1466 -0.8371
 3410THY    CA685249   4.312   9.989   5.990 -0.9024 -0.4145 -0.0821
 3410THY    HA685250   4.314  10.018   6.095 -0.2755 -0.2502 -0.1289
 3411THY      O85251   2.862   0.089   6.261  0.1295  0.4940  0.3551
 3411THY     HO85252   2.863   0.164   6.323  0.8827  0.9358 -0.1827
 3411THY    CA185253   2.938   0.145   6.167  0.0821 -0.4207  0.9254
 3411THY    CA285254   2.933   0.099   6.032  0.2125  0.2925 -0.2145
 3411THY    CP185255   2.845  -0.012   5.984 -0.1474  0.1799 -0.9453
 3411THY    HP185256   2.823  -0.075   6.070  1.2725  0.8009 -0.0918
 3411THY    CP285257   2.710   0.049   5.930  0.1695 -0.4537  0.3106
 3411THY    HP285258   2.647  -0.031   5.888 -1.7029  0.2319  1.6383
 3411THY    HP385259   2.648   0.078   6.016 -1.0129  0.4443 -0.8146
 3411THY    HP485260   2.697   0.121   5.849 -2.0802  0.0790  1.0550
 3411THY    CP385261   2.907  -0.102   5.873 -0.4046 -0.3515 -0.1479
 3411THY    HP585262   3.006  -0.131   5.911  0.3504 -1.4823 -2.7717
 3411THY    HP685263   2.841  -0.181   5.838  1.1236 -1.5677 -0.4023
 3411THY    HP785264   2.936  -0.056   5.778  0.2464  0.5243  0.4563
 3411THY    CA385265   3.018   0.169   5.942  0.0356 -0.0543 -0.1342
 3411THY    HA385266   3.026   0.139   5.838  0.1634  0.1410 -0.1824
 3411THY    CA485267   3.112   0.261   5.987 -0.5799 -0.5174 -0.4856
 3411THY    HA485268   3.192   0.299   5.923  0.3328 -1.3919  0.1184
 3411THY    CA585269   3.114   0.309   6.118  0.4444 -0.4537  0.1251
 3411THY    CM185270   3.211   0.403   6.177  0.5145 -0.3712 -0.1710
 3411THY    HM185271   3.264   0.346   6.254 -1.4972 -1.7789  0.2645
 3411THY    HM285272   3.292   0.433   6.110 -0.7916  1.1158 -1.1365
 3411THY    HM385273   3.174   0.493   6.228  0.8120  0.2400 -1.0273
 3411THY    CA685274   3.023   0.251   6.209 -0.1906  0.1283 -0.2977
 3411THY    HA685275   3.032   0.264   6.317 -1.4909  2.2412 -0.3808
 3412THY      O85276   3.627   0.386   7.130 -0.0702  0.0972  0.1765
 3412THY     HO85277   3.638   0.445   7.207 -0.7518  0.7820 -0.2400
 3412THY    CA185278   3.656   0.461   7.022 -0.2313 -0.0536  0.6652
 3412THY    CA285279   3.632   0.413   6.891 -0.3541  0.0786 -0.0755
 3412THY    CP185280   3.572   0.269   6.867  0.8225  0.5140  0.3624
 3412THY    HP185281   3.567   0.212   6.961  0.7346  0.8508  0.5644
 3412THY    CP285282   3.422   0.281   6.825  0.3890  0.6802 -0.5883
 3412THY    HP285283   3.412   0.351   6.741 -0.1009 -0.9075 -1.9277
 3412THY    HP385284   3.393   0.177   6.803  2.2451 -0.1105  0.5054
 3412THY    HP485285   3.359   0.316   6.908 -0.9694  1.3993 -1.8702
 3412THY    CP385286   3.660   0.183   6.767  0.1198  0.2379 -0.3290
 3412THY    HP585287   3.766   0.177   6.795  0.9382  3.1028 -2.3415
 3412THY    HP685288   3.625   0.079   6.764  1.3628 -0.1897 -0.8774
 3412THY    HP785289   3.662   0.222   6.664 -1.1410 -0.7188 -0.7497
 3412THY    CA385290   3.665   0.498   6.782 -0.0480 -0.2993 -0.0549
 3412THY    HA385291   3.635   0.461   6.684 -1.3499 -0.3982  0.3523
 3412THY    CA485292   3.724   0.624   6.800 -0.0766 -0.0276 -0.3790
 3412THY    HA485293   3.743   0.688   6.715 -0.6031 -0.0057 -0.4799
 3412THY    CA585294   3.750   0.673   6.930 -0.0118  0.0641  0.0195
 3412THY    CM185295   3.826   0.801   6.942 -0.1486  0.3287 -0.2065
 3412THY    HM185296   3.876   0.827   6.848  0.9387 -1.5061 -0.1686
 3412THY    HM285297   3.763   0.885   6.976  0.0634 -0.2170  1.6652
 3412THY    HM385298   3.905   0.784   7.015  0.0045 -1.6105 -0.7808
 3412THY    CA685299   3.718   0.587   7.043 -0.4067 -0.6419 -0.2157
 3412THY    HA685300   3.737   0.624   7.143  0.3252  1.7486 -1.1490
 3413THY      O85301   2.330   5.889   8.259 -0.3718  0.3884  0.4028
 3413THY     HO85302   2.393   5.893   8.185 -0.3802 -1.1319  0.2889
 3413THY    CA185303   2.385   5.807   8.353 -0.3603 -0.2665 -0.0497
 3413THY    CA285304   2.394   5.834   8.492 -0.4269  0.4097 -0.1911
 3413THY    CP185305   2.348   5.971   8.527  0.4012  0.2319  0.0422
 3413THY    HP185306   2.285   6.009   8.446  1.1318 -0.1403 -0.7062
 3413THY    CP285307   2.253   5.976   8.648 -0.1879  0.5030 -0.3968
 3413THY    HP285308   2.167   5.913   8.624 -1.0820  1.7278 -0.5191
 3413THY    HP385309   2.288   5.937   8.744  0.9541  3.2556  0.3991
 3413THY    HP485310   2.219   6.079   8.666  1.1920  1.0788 -0.9728
 3413THY    CP385311   2.465   6.066   8.544 -0.5227  0.0280  0.0971
 3413THY    HP585312   2.530   6.058   8.456  0.0037  3.1834  0.1062
 3413THY    HP685313   2.435   6.171   8.533  2.8234  1.1582  0.7377
 3413THY    HP785314   2.529   6.053   8.631  2.3892  3.3461 -1.3053
 3413THY    CA385315   2.468   5.750   8.575 -0.3240 -0.0074 -0.4266
 3413THY    HA385316   2.485   5.764   8.682 -0.0702 -0.3806 -0.4162
 3413THY    CA485317   2.521   5.630   8.529  0.3206  0.5765 -0.3187
 3413THY    HA485318   2.566   5.557   8.595  1.0594 -0.2804 -1.7101
 3413THY    CA585319   2.502   5.598   8.394 -0.2821  0.7473  0.0090
 3413THY    CM185320   2.548   5.450   8.347  0.0076 -0.2090 -1.0096
 3413THY    HM185321   2.528   5.361   8.408 -0.3544  0.1918 -0.5294
 3413THY    HM285322   2.516   5.437   8.243 -0.9777  3.1699 -1.2792
 3413THY    HM385323   2.657   5.462   8.342  0.0362  0.6237  0.6382
 3413THY    CA685324   2.445   5.693   8.307 -0.1472  0.0881  0.1666
 3413THY    HA685325   2.418   5.665   8.205 -1.6203  0.6213  0.3895
 3414THY      O85326   8.516   7.433   6.915  0.0523  0.1032  0.5207
 3414THY     HO85327   8.580   7.454   6.986 -0.4710 -0.3861  1.1510
 3414THY    CA185328   8.567   7.344   6.823 -1.0591  0.0082 -0.9638
 3414THY    CA285329   8.481   7.270   6.738  0.1525 -0.5790 -0.3985
 3414THY    CP185330   8.328   7.301   6.740 -0.4751  0.3341  0.2014
 3414THY    HP185331   8.306   7.360   6.830  1.4136 -0.5320  1.2993
 3414THY    CP285332   8.276   7.382   6.617 -0.1671  1.0149 -0.3805
 3414THY    HP285333   8.316   7.333   6.528 -0.8990  0.0545 -0.1934
 3414THY    HP385334   8.167   7.381   6.617 -0.2153 -1.6014  0.4265
 3414THY    HP485335   8.294   7.490   6.618  0.6662  0.8843  0.3018
 3414THY    CP385336   8.255   7.167   6.761  0.3476 -0.1691 -0.0673
 3414THY    HP585337   8.149   7.177   6.733  0.3254 -0.9643 -0.2954
 3414THY    HP685338   8.284   7.080   6.701 -0.1447 -1.1652  1.0861
 3414THY    HP785339   8.238   7.141   6.867 -2.8845  1.9177  0.0912
 3414THY    CA385340   8.539   7.188   6.649 -0.3574  0.5678  0.3141
 3414THY    HA385341   8.480   7.123   6.585 -0.2230  1.0471 -0.3014
 3414THY    CA485342   8.683   7.180   6.640  0.2197  0.1867 -0.4432
 3414THY    HA485343   8.734   7.117   6.568 -1.8872 -0.2134 -1.6488
 3414THY    CA585344   8.762   7.260   6.722 -0.6482 -0.1477  0.5251
 3414THY    CM185345   8.918   7.239   6.719 -0.0658  0.8119 -0.3267
 3414THY    HM185346   8.971   7.293   6.799  0.1506 -2.5479  2.0039
 3414THY    HM285347   8.936   7.134   6.742 -0.6116  0.8963  0.5419
 3414THY    HM385348   8.968   7.265   6.625  3.1145 -1.1508  0.6778
 3414THY    CA685349   8.709   7.334   6.823  0.1734 -0.0323 -0.0021
 3414THY    HA685350   8.778   7.389   6.886 -0.1254 -0.4640  0.7164
 3415THY      O85351   4.811   5.774   3.390 -0.7247  0.1864 -0.4551
 3415THY     HO85352   4.725   5.765   3.435 -0.7618 -1.1488 -0.7514
 3415THY    CA185353   4.785   5.780   3.262  0.9927  0.0263  0.4268
 3415THY    CA285354   4.885   5.786   3.162  0.7039  0.1178  0.1790
 3415THY    CP185355   5.022   5.824   3.208 -0.2035 -0.5277  0.2003
 3415THY    HP185356   5.035   5.788   3.310 -0.8813  0.3179  0.5996
 3415THY    CP285357   5.138   5.776   3.116 -0.5674  1.0089  0.0232
 3415THY    HP285358   5.154   5.672   3.148  1.8988  1.6039  0.9472
 3415THY    HP385359   5.109   5.792   3.012 -0.1892 -1.7117 -0.5920
 3415THY    HP485360   5.230   5.835   3.127 -1.2263  2.3282 -1.2708
 3415THY    CP385361   5.027   5.977   3.224 -0.5071  0.1821  0.5347
 3415THY    HP585362   4.938   6.008   3.279 -1.7178 -1.6230 -0.2853
 3415THY    HP685363   5.115   6.023   3.271 -2.3593  0.8796  3.5967
 3415THY    HP785364   5.039   6.020   3.124  3.4729 -1.5445  0.0477
 3415THY    CA385365   4.844   5.771   3.026 -0.3591  0.3762  0.9221
 3415THY    HA385366   4.914   5.784   2.944 -0.4060  3.2285  1.2602
 3415THY    CA485367   4.706   5.743   3.004  0.1441  0.0514  0.1512
 3415THY    HA485368   4.662   5.739   2.905 -1.0529  0.3379  0.6577
 3415THY    CA585369   4.625   5.720   3.114 -0.2985 -0.5450 -0.4421
 3415THY    CM185370   4.478   5.693   3.086 -0.4671  0.2876 -0.4556
 3415THY    HM185371   4.424   5.663   3.176 -0.0092  0.1758 -0.2152
 3415THY    HM285372   4.428   5.776   3.034  0.0548 -0.7835 -2.8314
 3415THY    HM385373   4.477   5.604   3.022  1.4838 -0.2337  0.1851
 3415THY    CA685374   4.658   5.747   3.238 -1.0717  0.3437 -0.7467
 3415THY    HA685375   4.578   5.733   3.310 -1.5621  2.7632 -0.7231
 3416THY      O85376   1.226   2.946   3.587 -0.3556 -0.3131 -0.1957
 3416THY     HO85377   1.301   2.954   3.526  0.3215  0.4569  0.7006
 3416THY    CA185378   1.111   2.922   3.520 -0.0198  0.4912  0.1294
 3416THY    CA285379   1.007   2.831   3.563 -0.4096 -0.2264  0.0536
 3416THY    CP185380   1.024   2.756   3.695 -0.5972 -0.6857  0.6356
 3416THY    HP185381   1.130   2.765   3.722 -0.6709 -1.1761  1.1130
 3416THY    CP285382   0.947   2.825   3.805  0.2115 -0.1133 -0.3221
 3416THY    HP285383   0.841   2.827   3.777 -0.4684  2.9266  1.9226
 3416THY    HP385384   0.962   2.776   3.901  0.1681  0.8943  0.2134
 3416THY    HP485385   0.978   2.930   3.816  0.6304 -0.3245  0.5893
 3416THY    CP385386   0.982   2.612   3.693  0.0936 -0.0323  0.4175
 3416THY    HP585387   0.877   2.607   3.659  0.2718  0.6586 -0.2624
 3416THY    HP685388   1.032   2.561   3.610  0.6484  2.6208 -0.9677
 3416THY    HP785389   1.001   2.563   3.789  1.1818  0.9773  0.7387
 3416THY    CA385390   0.889   2.825   3.487  0.3892 -0.2057  0.9716
 3416THY    HA385391   0.799   2.768   3.507  1.0512 -1.2611  0.9958
 3416THY    CA485392   0.888   2.900   3.370 -0.7985 -0.2523  0.1908
 3416THY    HA485393   0.800   2.887   3.308 -0.0280  0.3163 -1.0428
 3416THY    CA585394   0.983   2.993   3.330 -0.1709 -0.3298 -0.3641
 3416THY    CM185395   0.962   3.078   3.202  0.1102  0.8249  0.0962
 3416THY    HM185396   1.063   3.102   3.167  0.4265 -1.2022 -0.5271
 3416THY    HM285397   0.908   3.023   3.124 -0.5733  2.2823 -0.4934
 3416THY    HM385398   0.901   3.164   3.231 -1.9719 -0.3841 -0.4842
 3416THY    CA685399   1.097   3.007   3.409  0.8684  0.5267  0.0898
 3416THY    HA685400   1.178   3.071   3.378  1.2903 -0.7976 -1.7169
 3417THY      O85401   4.611   9.681   3.794 -0.4034  0.6240 -0.5160
 3417THY     HO85402   4.641   9.717   3.709 -1.1899  0.4065 -0.8896
 3417THY    CA185403   4.600   9.554   3.794  0.1497  0.4600 -0.0904
 3417THY    CA285404   4.498   9.498   3.871 -0.0172 -0.1404  1.1105
 3417THY    CP185405   4.409   9.576   3.966 -0.0457 -0.4686 -0.3054
 3417THY    HP185406   4.438   9.681   3.977 -0.1364 -0.4637 -0.1088
 3417THY    CP285407   4.255   9.558   3.921  0.0639 -0.3451  0.7183
 3417THY    HP285408   4.178   9.590   3.992 -1.2932 -0.2519 -0.7437
 3417THY    HP385409   4.222   9.598   3.825  0.6028 -1.1477  0.1775
 3417THY    HP485410   4.241   9.449   3.917  2.7393 -0.7168 -1.2788
 3417THY    CP385411   4.423   9.530   4.115  0.1669  0.0178 -0.6107
 3417THY    HP585412   4.361   9.440   4.123 -0.6505  0.3408 -2.6801
 3417THY    HP685413   4.528   9.516   4.142 -0.0333  0.5343  0.5069
 3417THY    HP785414   4.375   9.603   4.181 -2.2017  1.6191 -3.8136
 3417THY    CA385415   4.486   9.358   3.859 -0.1365 -0.2840  0.3264
 3417THY    HA385416   4.416   9.305   3.923 -0.1159 -3.1933 -1.8306
 3417THY    CA485417   4.571   9.285   3.781  0.2627 -0.6837 -0.2232
 3417THY    HA485418   4.551   9.178   3.782 -3.1073 -0.1897  0.8446
 3417THY    CA585419   4.682   9.348   3.718  0.2117 -0.2166  0.8589
 3417THY    CM185420   4.779   9.257   3.639  0.7007  0.1831 -0.1672
 3417THY    HM185421   4.878   9.301   3.653  0.0219  1.7892 -0.1324
 3417THY    HM285422   4.780   9.154   3.676  0.7928 -0.1819 -1.1501
 3417THY    HM385423   4.750   9.262   3.533 -1.3105 -2.0857  0.1931
 3417THY    CA685424   4.692   9.489   3.718 -0.2551 -0.3343  0.1909
 3417THY    HA685425   4.768   9.545   3.664 -0.9821  0.4148 -0.0897
 3418THY      O85426   6.108   0.348   3.188 -0.2433 -0.0801  0.4736
 3418THY     HO85427   6.025   0.369   3.233 -1.5805 -0.6751 -1.5948
 3418THY    CA185428   6.079   0.229   3.123  1.1146 -0.5255  0.0261
 3418THY    CA285429   6.159   0.181   3.017 -0.2627  0.0891 -0.1503
 3418THY    CP185430   6.277   0.268   2.966  0.0631 -0.0766 -0.1753
 3418THY    HP185431   6.248   0.373   2.975  3.4596  0.8897  1.1321
 3418THY    CP285432   6.406   0.239   3.051 -0.0450  0.5587  0.4537
 3418THY    HP285433   6.480   0.316   3.025  1.1137 -0.5799  0.2490
 3418THY    HP385434   6.384   0.243   3.158 -3.8957  1.7775 -0.2284
 3418THY    HP485435   6.456   0.143   3.032 -1.1304 -0.0749  0.7274
 3418THY    CP385436   6.304   0.244   2.822  0.1643  0.2385 -0.1527
 3418THY    HP585437   6.214   0.260   2.762 -0.1886 -0.0037  0.3096
 3418THY    HP685438   6.382   0.307   2.777 -0.5992  0.3770 -1.3164
 3418THY    HP785439   6.331   0.138   2.815 -0.0805 -0.0295  2.2256
 3418THY    CA385440   6.128   0.053   2.958  0.1435  0.3103  0.3524
 3418THY    HA385441   6.175   0.017   2.868 -1.1428  1.0663 -0.6622
 3418THY    CA485442   6.018  -0.021   3.014 -0.0587 -0.9502 -0.0860
 3418THY    HA485443   5.994  -0.121   2.979  1.4218 -1.5572  0.5458
 3418THY    CA585444   5.947   0.025   3.121 -0.0857 -0.2033 -0.7498
 3418THY    CM185445   5.833  -0.058   3.179  0.0482  0.5693  0.6283
 3418THY    HM185446   5.738  -0.059   3.126 -1.0879  0.0827  2.5666
 3418THY    HM285447   5.875  -0.159   3.183  0.6435  0.8106  0.7477
 3418THY    HM385448   5.818  -0.028   3.284  4.1296  0.4842  1.4002
 3418THY    CA685449   5.970   0.158   3.170  1.4756  0.5897 -0.3645
 3418THY    HA685450   5.899   0.195   3.243  3.1417  1.0619  1.0701
 3419THY      O85451   7.441   3.040   8.710 -0.0772  0.3844 -0.2056
 3419THY     HO85452   7.479   2.950   8.712 -1.9329 -0.4497 -0.0828
 3419THY    CA185453   7.409   3.064   8.840  0.7361 -0.1327 -0.0022
 3419THY    CA285454   7.325   2.977   8.916 -0.2332 -0.2953 -0.1779
 3419THY    CP185455   7.258   2.848   8.850 -0.3798 -0.2543  0.3073
 3419THY    HP185456   7.295   2.840   8.747  0.3941  0.8597  0.4854
 3419THY    CP285457   7.287   2.721   8.919 -0.3751 -0.0131  0.0658
 3419THY    HP285458   7.241   2.727   9.018 -0.0816  1.4185  0.1257
 3419THY    HP385459   7.258   2.628   8.867 -0.9757  1.1956 -1.8771
 3419THY    HP485460   7.392   2.712   8.949 -0.7760  0.3964  1.6389
 3419THY    CP385461   7.106   2.871   8.847 -0.4669  0.0533  0.1040
 3419THY    HP585462   7.077   2.806   8.764  2.5767 -1.1579 -0.1240
 3419THY    HP685463   7.062   2.831   8.939 -1.2806 -0.5200 -0.5184
 3419THY    HP785464   7.069   2.973   8.830 -0.7089 -0.1046 -0.3274
 3419THY    CA385465   7.304   3.007   9.049 -0.7717 -0.2238 -0.3760
 3419THY    HA385466   7.229   2.952   9.106 -0.7916  0.9367  0.7548
 3419THY    CA485467   7.358   3.117   9.115  0.0363 -0.2811  0.8729
 3419THY    HA485468   7.333   3.130   9.220  0.6294  0.4421  0.9283
 3419THY    CA585469   7.445   3.197   9.037 -0.4728 -0.0859 -0.2220
 3419THY    CM185470   7.512   3.309   9.103 -0.2392  0.7071  0.5630
 3419THY    HM185471   7.588   3.345   9.033 -1.1251  1.3800 -0.0823
 3419THY    HM285472   7.435   3.387   9.106 -0.0494  0.9199 -0.0071
 3419THY    HM385473   7.543   3.283   9.205 -0.3603 -0.5166  0.3070
 3419THY    CA685474   7.477   3.171   8.899  0.0070  0.1264  0.6103
 3419THY    HA685475   7.555   3.223   8.845  1.4600  0.1288  2.6036
 3420THY      O85476   8.230   9.749   3.316  0.0969  0.2058 -0.2146
 3420THY     HO85477   8.259   9.739   3.408 -0.5581  0.1534 -0.0089
 3420THY    CA185478   8.301   9.830   3.237 -0.0959 -0.3271  0.0872
 3420THY    CA285479   8.259   9.877   3.110 -0.4480  0.3377  0.6145
 3420THY    CP185480   8.121   9.856   3.052  0.5825 -0.0805 -1.1820
 3420THY    HP185481   8.067   9.781   3.110  2.6898 -1.1736 -0.5175
 3420THY    CP285482   8.057   9.996   3.073 -0.1577  0.1558 -0.1310
 3420THY    HP285483   8.103  10.072   3.009  0.1317 -0.3543 -0.5379
 3420THY    HP385484   7.949   9.996   3.055  0.0506  2.1529 -1.7535
 3420THY    HP485485   8.087  10.034   3.172 -1.3090  0.6937  0.0299
 3420THY    CP385486   8.113   9.815   2.907  0.1109 -0.2270  1.1528
 3420THY    HP585487   8.009   9.792   2.881 -0.8702  3.3037  1.4250
 3420THY    HP685488   8.152   9.898   2.846 -0.6835  0.5746  1.7035
 3420THY    HP785489   8.175   9.726   2.889  2.8385  1.6516  0.6200
 3420THY    CA385490   8.344   9.959   3.036 -0.5485  0.0357  0.1773
 3420THY    HA385491   8.324  10.009   2.941  0.5826  0.2329  0.0294
 3420THY    CA485492   8.482   9.967   3.077 -0.5036  0.3059 -0.2209
 3420THY    HA485493   8.555  10.021   3.018 -0.9949  0.2111 -0.9372
 3420THY    CA585494   8.517   9.916   3.202  0.1630  0.6242 -0.1409
 3420THY    CM185495   8.653   9.941   3.251 -0.4921  0.0048  0.5379
 3420THY    HM185496   8.654  10.038   3.301 -0.3450  1.0253 -1.3829
 3420THY    HM285497   8.679   9.873   3.333 -0.6448  0.0036  0.5871
 3420THY    HM385498   8.732   9.953   3.176 -1.0414  0.1250 -0.0325
 3420THY    CA685499   8.426   9.865   3.287 -0.6724 -0.5143 -0.2296
 3420THY    HA685500   8.464   9.844   3.387  2.1888  1.2389 -0.8501
 3421THY      O85501   7.814   9.814   4.837  0.2519  0.8246  0.3564
 3421THY     HO85502   7.728   9.827   4.880 -0.6779  1.1210 -1.4938
 3421THY    CA185503   7.886   9.922   4.841  0.7981 -0.4929 -0.7905
 3421THY    CA285504   8.025   9.923   4.846 -0.5330 -1.4767  0.0002
 3421THY    CP185505   8.107   9.794   4.882 -0.0713  0.7812  0.5697
 3421THY    HP185506   8.037   9.709   4.876  2.0079 -0.9286 -0.8913
 3421THY    CP285507   8.216   9.773   4.777  0.5276 -0.2684 -0.2754
 3421THY    HP285508   8.260   9.673   4.782  0.9938 -0.0881 -0.7221
 3421THY    HP385509   8.176   9.773   4.675 -1.3629 -1.9765  0.3981
 3421THY    HP485510   8.294   9.850   4.782 -1.1661  1.5577 -0.7227
 3421THY    CP385511   8.168   9.801   5.019  0.3389 -0.4122 -0.1436
 3421THY    HP585512   8.274   9.772   5.024  0.5356  0.2874 -0.1352
 3421THY    HP685513   8.153   9.902   5.060 -0.6203 -0.9558  0.8679
 3421THY    HP785514   8.115   9.725   5.077  0.3413 -2.0334 -2.1354
 3421THY    CA385515   8.093  10.046   4.836 -0.3094  0.2784 -0.3265
 3421THY    HA385516   8.202  10.054   4.838 -0.3589  1.6653  2.5466
 3421THY    CA485517   8.018  10.164   4.820 -0.0506 -0.2291  0.6382
 3421THY    HA485518   8.066  10.255   4.787 -1.5772  0.1360 -0.6751
 3421THY    CA585519   7.881  10.159   4.808 -0.3465  0.4931  0.5968
 3421THY    CM185520   7.798  10.276   4.766  0.3970  0.0216 -0.0582
 3421THY    HM185521   7.859  10.367   4.768 -0.5556  0.7851 -2.2736
 3421THY    HM285522   7.777  10.264   4.659 -2.7041  1.5108  0.2571
 3421THY    HM385523   7.706  10.284   4.824  1.1929  0.1576  1.2166
 3421THY    CA685524   7.813  10.040   4.822 -0.3962 -0.0075 -0.6147
 3421THY    HA685525   7.704  10.036   4.813 -0.5397 -0.9495  1.1548
 3422THY      O85526   8.796   2.959   2.453 -0.4705  0.4220  0.4084
 3422THY     HO85527   8.719   3.000   2.494 -1.5652 -0.9935 -0.1655
 3422THY    CA185528   8.865   2.896   2.552 -0.4350 -1.0398  0.0887
 3422THY    CA285529   9.007   2.885   2.550  0.1681 -0.3507  0.2636
 3422THY    CP185530   9.086   2.904   2.422  0.2964  0.2770  0.7759
 3422THY    HP185531   9.016   2.937   2.344 -2.5460 -1.9529  2.1894
 3422THY    CP285532   9.173   3.030   2.443  0.2222  0.3248  0.1646
 3422THY    HP285533   9.205   3.069   2.346  1.4305 -3.7112 -1.2806
 3422THY    HP385534   9.125   3.105   2.507 -0.5238  1.0525 -1.2160
 3422THY    HP485535   9.259   2.995   2.501  1.2794  1.8933 -0.4162
 3422THY    CP385536   9.162   2.778   2.376 -0.5023 -0.3791  0.4120
 3422THY    HP585537   9.091   2.695   2.383 -0.8173 -0.0237  1.9642
 3422THY    HP685538   9.189   2.808   2.274 -0.3015  1.8133  1.0494
 3422THY    HP785539   9.250   2.764   2.440 -1.5679 -1.4077  1.7152
 3422THY    CA385540   9.071   2.844   2.669 -0.1539 -0.4248 -0.1537
 3422THY    HA385541   9.179   2.838   2.673 -0.1139  0.4532  0.1492
 3422THY    CA485542   8.995   2.821   2.789  0.5682 -0.1795  0.1900
 3422THY    HA485543   9.036   2.798   2.887 -0.8821 -0.9408  0.6547
 3422THY    CA585544   8.852   2.824   2.774  0.3134 -1.0685 -0.3634
 3422THY    CM185545   8.754   2.772   2.877 -0.4961 -0.4038 -0.2613
 3422THY    HM185546   8.742   2.666   2.850 -1.7346 -0.0715 -1.0765
 3422THY    HM285547   8.796   2.787   2.978 -0.5222  2.3880 -0.5825
 3422THY    HM385548   8.658   2.824   2.882 -1.4230 -2.1782  1.4686
 3422THY    CA685549   8.789   2.876   2.660 -0.1402  0.3744 -0.7583
 3422THY    HA685550   8.682   2.877   2.645 -0.1204  1.7035 -0.8954
 3423THY      O85551   3.566   8.398   7.474 -0.1010 -0.3949 -0.2544
 3423THY     HO85552   3.583   8.341   7.397 -0.4469 -1.9851  0.8131
 3423THY    CA185553   3.437   8.445   7.461  0.3017 -0.3502  0.3902
 3423THY    CA285554   3.400   8.578   7.514 -0.9040  0.2454 -0.0385
 3423THY    CP185555   3.506   8.656   7.595  0.8871  0.4345  0.3123
 3423THY    HP185556   3.605   8.641   7.550 -0.6871 -1.6122 -2.7961
 3423THY    CP285557   3.494   8.811   7.587  0.0317 -0.0356 -0.9941
 3423THY    HP285558   3.495   8.847   7.483 -0.3795 -0.7955 -1.2659
 3423THY    HP385559   3.395   8.832   7.629 -0.3075  0.7338 -2.1383
 3423THY    HP485560   3.578   8.861   7.636  0.7998 -1.6422 -0.5984
 3423THY    CP385561   3.499   8.611   7.741 -0.4496  0.2663  0.6151
 3423THY    HP585562   3.540   8.510   7.758 -0.1630  0.3113  0.2112
 3423THY    HP685563   3.571   8.672   7.797 -0.2170 -0.6957  1.3937
 3423THY    HP785564   3.399   8.619   7.784 -1.3177  1.1741 -1.4640
 3423THY    CA385565   3.262   8.616   7.487  0.8117 -0.0175  0.9772
 3423THY    HA385566   3.229   8.719   7.498  0.8845  0.2586 -1.0096
 3423THY    CA485567   3.173   8.522   7.442 -0.2249  0.1853  0.6604
 3423THY    HA485568   3.069   8.553   7.439  0.1236  1.3656 -0.1451
 3423THY    CA585569   3.208   8.387   7.411 -0.3711  0.2771  0.3582
 3423THY    CM185570   3.103   8.283   7.370 -0.3641  1.4207 -0.2721
 3423THY    HM185571   3.147   8.191   7.411  1.3836  1.1311 -2.5967
 3423THY    HM285572   3.004   8.301   7.413 -0.0309 -0.0882  1.2256
 3423THY    HM385573   3.099   8.252   7.265 -1.0140 -0.9753  0.3984
 3423THY    CA685574   3.346   8.356   7.417  0.7629 -0.1681  0.2676
 3423THY    HA685575   3.368   8.252   7.393 -2.3378 -1.1608  1.1933
 3424THY      O85576   8.796   0.367   6.020  0.5670  0.8974 -0.1523
 3424THY     HO85577   8.864   0.430   6.049  1.1362  0.0792  0.3195
 3424THY    CA185578   8.720   0.329   6.124 -0.4453  0.4100  0.3771
 3424THY    CA285579   8.600   0.254   6.109  0.9050 -0.0229  0.2889
 3424THY    CP185580   8.537   0.226   5.971  0.0111  0.2923  0.2377
 3424THY    HP185581   8.614   0.237   5.893  0.3219 -1.5978  0.2408
 3424THY    CP285582   8.485   0.076   5.966 -0.1592 -0.3412  0.1382
 3424THY    HP285583   8.556   0.005   6.008  1.0312  0.5240 -0.3650
 3424THY    HP385584   8.388   0.064   6.017 -1.3839 -0.2698 -2.0306
 3424THY    HP485585   8.468   0.059   5.859  0.1028 -1.6392  0.2955
 3424THY    CP385586   8.431   0.325   5.932 -0.1011 -0.1985  0.5621
 3424THY    HP585587   8.456   0.429   5.955 -1.6050  0.1873  0.5330
 3424THY    HP685588   8.411   0.315   5.824 -0.6588 -1.2009  0.7483
 3424THY    HP785589   8.332   0.306   5.974 -0.3908  0.6476  0.2887
 3424THY    CA385590   8.538   0.223   6.232 -0.1756 -0.0798  0.0214
 3424THY    HA385591   8.445   0.167   6.221 -0.3915  0.6410 -2.5673
 3424THY    CA485592   8.598   0.257   6.354 -0.0107 -0.9110  0.0474
 3424THY    HA485593   8.544   0.227   6.443  0.8374 -0.4585  0.7273
 3424THY    CA585594   8.722   0.322   6.361  0.2376 -0.0778 -0.1458
 3424THY    CM185595   8.787   0.351   6.491 -0.1267  0.2714 -0.1448
 3424THY    HM185596   8.745   0.306   6.582 -0.4442 -0.9222 -0.8555
 3424THY    HM285597   8.890   0.316   6.498  0.9415  3.0704 -0.7182
 3424THY    HM385598   8.772   0.456   6.520 -1.0343  0.2962 -0.6587
 3424THY    CA685599   8.792   0.353   6.244 -0.8489  0.2893 -0.6064
 3424THY    HA685600   8.888   0.404   6.240 -0.4425 -0.5081 -1.5869
 3425THY      O85601   8.415   9.248   2.600  0.1397 -0.3997 -0.8965
 3425THY     HO85602   8.450   9.301   2.526  0.8369  0.1913 -0.1646
 3425THY    CA185603   8.436   9.313   2.714 -0.1509  0.0773 -0.9856
 3425THY    CA285604   8.421   9.247   2.841 -0.6327  0.4996 -0.6262
 3425THY    CP185605   8.401   9.092   2.847 -0.2898 -1.6061  0.4750
 3425THY    HP185606   8.356   9.059   2.753  0.5027  1.0388 -0.9361
 3425THY    CP285607   8.536   9.023   2.859 -0.1949 -0.1933  0.0674
 3425THY    HP285608   8.529   8.915   2.842  1.5017 -0.0848 -1.6633
 3425THY    HP385609   8.602   9.054   2.776  0.2866 -1.8737 -0.2044
 3425THY    HP485610   8.579   9.051   2.956  2.4230 -1.2031 -0.7022
 3425THY    CP385611   8.294   9.064   2.960  0.5334  0.8180 -0.0858
 3425THY    HP585612   8.339   9.047   3.058 -0.5588  1.2629  0.5041
 3425THY    HP685613   8.224   9.147   2.973  1.1756  1.0519  2.3889
 3425THY    HP785614   8.229   8.983   2.924 -1.6627  2.8290 -0.8689
 3425THY    CA385615   8.438   9.328   2.957 -0.3982  1.0351  0.2687
 3425THY    HA385616   8.423   9.279   3.053  0.5942 -0.5433 -0.3401
 3425THY    CA485617   8.445   9.466   2.952 -0.4978 -0.0183 -0.7731
 3425THY    HA485618   8.449   9.528   3.041 -0.7456  1.6233 -1.8630
 3425THY    CA585619   8.450   9.526   2.826 -0.3210 -0.1905 -0.7648
 3425THY    CM185620   8.476   9.679   2.809  0.6430  0.2853 -0.4456
 3425THY    HM185621   8.426   9.734   2.889  1.4707 -1.3452  1.2738
 3425THY    HM285622   8.583   9.703   2.810 -0.0097  3.6853 -0.1849
 3425THY    HM385623   8.432   9.710   2.714 -0.8849 -2.3740 -0.7173
 3425THY    CA685624   8.453   9.449   2.713  0.2409 -0.4690  0.6208
 3425THY    HA685625   8.452   9.499   2.617  0.2286 -0.8503  0.4209
 3426THY      O85626   6.750   9.085   8.109 -0.3686 -0.1273  0.1119
 3426THY     HO85627   6.739   8.991   8.131  0.7495 -0.5803 -1.1616
 3426THY    CA185628   6.696   9.159   8.205  0.1464 -0.3828 -0.3857
 3426THY    CA285629   6.673   9.294   8.175  0.6849  0.2937  0.4574
 3426THY    CP185630   6.727   9.350   8.039  0.1834  0.6213 -0.2999
 3426THY    HP185631   6.721   9.275   7.959  1.8005  0.6289 -0.4498
 3426THY    CP285632   6.638   9.465   7.993 -0.1230  0.4968 -0.5944
 3426THY    HP285633   6.630   9.557   8.052 -0.8111 -0.4094  0.7730
 3426THY    HP385634   6.654   9.500   7.891 -1.7463  0.5933 -0.8438
 3426THY    HP485635   6.533   9.440   8.009 -0.3170  2.4378  1.9043
 3426THY    CP385636   6.870   9.386   8.046 -0.7541 -0.3122  0.4217
 3426THY    HP585637   6.878   9.465   8.122 -0.3924 -0.2470  0.3146
 3426THY    HP685638   6.919   9.289   8.064 -0.7024 -0.5469 -0.9006
 3426THY    HP785639   6.919   9.435   7.962  1.3788  0.9222  2.2569
 3426THY    CA385640   6.619   9.377   8.275  0.8009 -0.5380 -0.0266
 3426THY    HA385641   6.617   9.485   8.260 -1.4176 -0.1391  2.3898
 3426THY    CA485642   6.582   9.327   8.398  0.4083  0.4226 -0.1081
 3426THY    HA485643   6.529   9.393   8.466 -0.0817  1.2282 -1.2260
 3426THY    CA585644   6.600   9.189   8.420  0.4504  0.1088 -0.2814
 3426THY    CM185645   6.553   9.123   8.536 -0.1207  0.0070  0.3844
 3426THY    HM185646   6.531   9.194   8.616  1.1415 -0.1539  0.9072
 3426THY    HM285647   6.465   9.062   8.512  0.7620 -0.3279 -2.3289
 3426THY    HM385648   6.627   9.053   8.577  0.4612 -0.3803 -1.2407
 3426THY    CA685649   6.663   9.105   8.322  0.4769 -0.2752  0.1131
 3426THY    HA685650   6.670   8.999   8.347 -0.5051  0.1689  2.4770
 3427THY      O85651   5.930   4.249   4.612  0.3763  0.1870 -0.1160
 3427THY     HO85652   6.015   4.203   4.618  0.1510 -0.5716 -2.0315
 3427THY    CA185653   5.950   4.362   4.682  0.4095  0.5333  0.4947
 3427THY    CA285654   5.850   4.465   4.685 -0.2760  0.0488 -1.0075
 3427THY    CP185655   5.720   4.447   4.615 -0.7134 -0.6943  0.3614
 3427THY    HP185656   5.723   4.362   4.546  1.4417 -1.0863  0.8901
 3427THY    CP285657   5.601   4.418   4.704  0.9054  0.9100 -0.6822
 3427THY    HP285658   5.511   4.374   4.660  0.0937  1.4632  0.3950
 3427THY    HP385659   5.620   4.336   4.775  2.8974  1.1579 -0.8610
 3427THY    HP485660   5.559   4.504   4.756  2.1488  0.4947  1.1226
 3427THY    CP385661   5.689   4.565   4.523  0.0919 -0.4786 -0.1427
 3427THY    HP585662   5.620   4.534   4.444  1.8519 -1.7980 -1.2463
 3427THY    HP685663   5.652   4.648   4.583 -0.1555 -2.2803  2.3870
 3427THY    HP785664   5.784   4.588   4.473  1.5266 -0.9412  2.2174
 3427THY    CA385665   5.887   4.591   4.738 -0.9742 -0.2340  0.0785
 3427THY    HA385666   5.819   4.676   4.735 -2.0492 -1.0339  0.9006
 3427THY    CA485667   6.013   4.609   4.799  0.6698  0.3602  0.1307
 3427THY    HA485668   6.040   4.707   4.837  1.1107  0.7077 -1.0423
 3427THY    CA585669   6.103   4.507   4.795  0.4705 -0.1811  0.0101
 3427THY    CM185670   6.242   4.543   4.848  0.7344  0.4417  1.0262
 3427THY    HM185671   6.319   4.478   4.804  0.2864 -0.2759  1.2861
 3427THY    HM285672   6.256   4.646   4.813 -2.7721  0.4887 -0.5669
 3427THY    HM385673   6.251   4.544   4.957 -0.2092  4.0381  1.1918
 3427THY    CA685674   6.076   4.386   4.733  0.0336 -0.4064 -0.2974
 3427THY    HA685675   6.164   4.328   4.707 -0.4971 -0.8653 -1.1157
 3428THY      O85676   0.648   1.604   2.733 -0.2335  0.2802  0.7788
 3428THY     HO85677   0.740   1.603   2.765  0.8066 -0.4229 -1.9319
 3428THY    CA185678   0.561   1.580   2.831  0.4873  0.4307  0.1944
 3428THY    CA285679   0.432   1.538   2.802  0.5462  0.0424  0.0186
 3428THY    CP185680   0.378   1.527   2.654  0.3248  0.8465  0.6282
 3428THY    HP185681   0.466   1.521   2.588 -1.2309 -2.2065 -1.3550
 3428THY    CP285682   0.325   1.390   2.619 -0.1463 -0.0265 -0.3284
 3428THY    HP285683   0.317   1.381   2.510  2.2612 -1.7745 -0.4324
 3428THY    HP385684   0.401   1.316   2.646  0.6832  0.0798 -2.2344
 3428THY    HP485685   0.229   1.367   2.668  0.3282  0.4944  0.8726
 3428THY    CP385686   0.276   1.643   2.614  0.8784 -1.0952  0.4896
 3428THY    HP585687   0.235   1.623   2.514  1.4476 -2.6438  0.5479
 3428THY    HP685688   0.197   1.637   2.689 -0.1317  0.7315 -0.3421
 3428THY    HP785689   0.327   1.739   2.625  0.6597 -0.8429 -0.5244
 3428THY    CA385690   0.349   1.504   2.905 -0.1308  0.3656  0.4211
 3428THY    HA385691   0.243   1.485   2.891  0.0072  0.6306 -1.1062
 3428THY    CA485692   0.395   1.507   3.039 -0.0341  0.4467  0.3382
 3428THY    HA485693   0.330   1.491   3.124  0.3741 -1.2309  0.3538
 3428THY    CA585694   0.516   1.564   3.069 -0.9822  0.0515  0.4261
 3428THY    CM185695   0.565   1.588   3.210 -0.1698 -0.7339 -0.2589
 3428THY    HM185696   0.577   1.696   3.228 -1.4737 -0.5615 -0.3626
 3428THY    HM285697   0.496   1.549   3.286 -1.0263  0.3269 -0.4589
 3428THY    HM385698   0.655   1.534   3.240  0.4562  0.7181  0.5938
 3428THY    CA685699   0.605   1.593   2.963 -1.0861 -0.3582  0.2880
 3428THY    HA685700   0.708   1.620   2.985 -1.2400 -0.5946  1.3392
 3429THY      O85701   4.425   6.398   5.083  0.5182 -0.0610  0.0721
 3429THY     HO85702   4.426   6.445   4.998 -1.5812 -1.2268 -0.6548
 3429THY    CA185703   4.538   6.331   5.081 -0.5723  0.3613  0.1987
 3429THY    CA285704   4.605   6.283   5.200 -0.3017 -1.2230  0.3299
 3429THY    CP185705   4.545   6.294   5.343 -0.0415 -0.3223 -0.6104
 3429THY    HP185706   4.450   6.349   5.348 -0.1058 -0.5392  1.2370
 3429THY    CP285707   4.516   6.157   5.406  0.1412 -0.7841 -0.6155
 3429THY    HP285708   4.609   6.099   5.413  0.5362 -0.4044 -2.2190
 3429THY    HP385709   4.475   6.174   5.506  0.0679  1.6706 -1.0052
 3429THY    HP485710   4.439   6.098   5.355  0.4476 -0.8171 -1.0479
 3429THY    CP385711   4.640   6.371   5.436  0.5998  0.1480  0.1194
 3429THY    HP585712   4.727   6.309   5.460 -1.6804 -2.8830  1.1044
 3429THY    HP685713   4.679   6.462   5.388  0.7515 -1.6982 -3.6703
 3429THY    HP785714   4.583   6.382   5.529  0.2446 -2.5254  0.2749
 3429THY    CA385715   4.732   6.216   5.178  0.1490 -0.0162  0.2654
 3429THY    HA385716   4.785   6.174   5.262  0.7423 -1.0606 -0.6123
 3429THY    CA485717   4.779   6.200   5.050 -0.2631 -0.4844 -0.0713
 3429THY    HA485718   4.867   6.137   5.045  0.7796  0.8152  1.1890
 3429THY    CA585719   4.708   6.252   4.934  0.2295 -0.4987 -0.6528
 3429THY    CM185720   4.768   6.263   4.797  0.1983 -1.1052  0.5664
 3429THY    HM185721   4.809   6.363   4.784  0.3749 -1.2713 -0.2202
 3429THY    HM285722   4.860   6.205   4.783  0.7858  0.3407 -2.5289
 3429THY    HM385723   4.697   6.243   4.715  1.3154  2.8098 -1.6330
 3429THY    CA685724   4.593   6.325   4.957 -0.1265  0.3720  0.4732
 3429THY    HA685725   4.546   6.365   4.868 -0.9192  1.3065  1.2981
 3430THY      O85726   5.360   5.834   9.866  0.0764  0.1724  0.1687
 3430THY     HO85727   5.365   5.880   9.780  1.7276  0.0613  0.1832
 3430THY    CA185728   5.479   5.825   9.917 -0.9399 -0.2283  1.3547
 3430THY    CA285729   5.514   5.728  10.003  0.2501  0.0125  0.4655
 3430THY    CP185730   5.424   5.607  10.038  0.4215  0.3511 -0.2456
 3430THY    HP185731   5.321   5.645  10.032 -0.1497 -1.2922 -2.8863
 3430THY    CP285732   5.437   5.487   9.937 -0.1782  0.4562 -0.7105
 3430THY    HP285733   5.384   5.400   9.977  2.1583 -1.0136 -0.6558
 3430THY    HP385734   5.384   5.521   9.847  0.8847 -0.1950 -1.5964
 3430THY    HP485735   5.541   5.457   9.919  1.0935  2.6686  2.1605
 3430THY    CP385736   5.436   5.552  10.187  0.4247 -0.1341  0.2225
 3430THY    HP585737   5.343   5.501  10.216  0.5482 -0.1280  0.6260
 3430THY    HP685738   5.527   5.491  10.185  0.4942 -0.0598 -1.8947
 3430THY    HP785739   5.453   5.637  10.254  1.7739 -1.1863  1.2603
 3430THY    CA385740   5.640   5.727  10.057 -0.2281 -0.0425  0.2079
 3430THY    HA385741   5.662   5.657  10.137 -1.0078 -0.1494  0.3339
 3430THY    CA485742   5.731   5.821  10.014  0.4825  0.2823  0.0999
 3430THY    HA485743   5.829   5.826  10.060 -0.2146 -0.1368  1.7029
 3430THY    CA585744   5.695   5.915   9.917 -0.6035  0.3815 -0.3880
 3430THY    CM185745   5.793   6.027   9.886  0.0630  0.3866  0.1975
 3430THY    HM185746   5.747   6.126   9.895 -1.6893 -0.4622  1.0541
 3430THY    HM285747   5.879   6.027   9.954 -0.3367 -0.4974  0.7300
 3430THY    HM385748   5.835   6.020   9.785 -0.1781 -1.7833  0.1983
 3430THY    CA685749   5.568   5.930   9.876  0.1570  0.2981 -0.3506
 3430THY    HA685750   5.530   6.018   9.826  0.2760  0.5655  0.0187
 3431THY      O85751   5.331   0.748   7.000 -0.0843 -0.2027  0.5405
 3431THY     HO85752   5.237   0.728   6.982  0.2166 -0.2371 -1.2224
 3431THY    CA185753   5.396   0.669   6.919  0.5271  0.0947  0.3304
 3431THY    CA285754   5.536   0.655   6.917  0.4565  0.5155  0.3112
 3431THY    CP185755   5.620   0.740   7.010 -0.5142  0.5821 -0.6228
 3431THY    HP185756   5.573   0.831   7.049  0.1354 -0.2427  2.3303
 3431THY    CP285757   5.656   0.674   7.140 -0.5006  0.2929 -0.7973
 3431THY    HP285758   5.717   0.743   7.198 -2.0638 -0.6765  2.1845
 3431THY    HP385759   5.561   0.656   7.191 -1.0491  0.6032 -1.6761
 3431THY    HP485760   5.709   0.581   7.113  0.0593  0.1626  0.6472
 3431THY    CP385761   5.761   0.774   6.946 -0.2388 -0.3687 -0.3812
 3431THY    HP585762   5.838   0.701   6.974 -0.2983 -0.5334 -0.6431
 3431THY    HP685763   5.755   0.793   6.838  1.4240  0.1502 -0.4125
 3431THY    HP785764   5.792   0.870   6.989 -0.3283 -0.3720 -0.3068
 3431THY    CA385765   5.591   0.572   6.818 -0.0319  0.4517 -0.9427
 3431THY    HA385766   5.698   0.554   6.821 -0.3475 -1.5820  1.6438
 3431THY    CA485767   5.506   0.510   6.724 -0.4515 -0.0980 -0.3396
 3431THY    HA485768   5.558   0.447   6.653  0.8604  0.7658 -0.1855
 3431THY    CA585769   5.371   0.521   6.732 -0.2178 -0.4144 -0.0455
 3431THY    CM185770   5.284   0.455   6.632 -0.2491  0.7615  0.5633
 3431THY    HM185771   5.177   0.478   6.642 -0.6433 -0.5235 -0.4704
 3431THY    HM285772   5.320   0.497   6.537  0.3613  1.6782  1.1765
 3431THY    HM385773   5.308   0.349   6.631  0.6853  0.9339  1.9802
 3431THY    CA685774   5.320   0.595   6.837  0.4142 -0.6698 -0.2751
 3431THY    HA685775   5.213   0.609   6.838  0.4888  0.0029 -0.8943
 3432THY      O85776   0.995   4.186   5.143 -0.0607 -0.2894 -0.6572
 3432THY     HO85777   1.004   4.130   5.064  0.7686  2.0998 -2.3665
 3432THY    CA185778   0.991   4.093   5.243 -0.5552  0.1539 -0.3219
 3432THY    CA285779   0.927   4.120   5.365 -0.9922 -0.4053  0.5909
 3432THY    CP185780   0.880   4.263   5.390 -0.0391  1.1632 -0.0110
 3432THY    HP185781   0.891   4.323   5.299  2.6802  0.7276 -0.0504
 3432THY    CP285782   0.737   4.270   5.453 -0.4841  1.1257 -0.5138
 3432THY    HP285783   0.712   4.377   5.457 -1.7968  0.8284 -0.5712
 3432THY    HP385784   0.663   4.210   5.400  1.6529 -1.5426 -0.7174
 3432THY    HP485785   0.736   4.234   5.557  0.7273  0.2085 -0.7963
 3432THY    CP385786   0.979   4.329   5.485  0.0608 -0.7770  0.0746
 3432THY    HP585787   1.080   4.287   5.472  0.6367  1.2706 -3.4984
 3432THY    HP685788   0.978   4.437   5.466 -1.6183 -0.6999  0.4974
 3432THY    HP785789   0.947   4.320   5.589  1.1250 -2.0624  0.3123
 3432THY    CA385790   0.908   4.014   5.455  0.7174  0.2001 -0.9099
 3432THY    HA385791   0.857   4.025   5.551 -0.8277  0.1847 -1.7057
 3432THY    CA485792   0.941   3.886   5.421 -0.1782  0.3970  0.0209
 3432THY    HA485793   0.922   3.802   5.488  0.7327  1.3247  1.5052
 3432THY    CA585794   1.016   3.865   5.308  0.3573 -0.3665  0.8710
 3432THY    CM185795   1.058   3.730   5.278 -0.7214  0.3387 -0.5535
 3432THY    HM185796   0.976   3.658   5.289 -0.7014  0.2535 -0.9815
 3432THY    HM285797   1.086   3.733   5.173  1.9412  1.7616  0.1095
 3432THY    HM385798   1.143   3.705   5.343 -0.9164  2.6013  0.6923
 3432THY    CA685799   1.035   3.964   5.216 -0.6196  0.7058 -0.2877
 3432THY    HA685800   1.073   3.935   5.119 -1.2992 -0.6064 -0.1927
 3433THY      O85801   0.018   9.770   3.650  0.0815  0.1577  0.4516
 3433THY     HO85802  -0.057   9.712   3.671 -0.1008 -0.1629 -0.9703
 3433THY    CA185803  -0.046   9.885   3.619  0.5314 -0.0686  0.0082
 3433THY    CA285804   0.021  10.002   3.573  0.2530  0.8877 -0.1900
 3433THY    CP185805   0.178   9.999   3.565  1.1772  0.2347 -0.0401
 3433THY    HP185806   0.229   9.907   3.594  0.6686 -0.8632 -2.3553
 3433THY    CP285807   0.224  10.037   3.421 -0.1466  0.4054 -0.3322
 3433THY    HP285808   0.161  10.121   3.387  0.1808  1.4703  1.5663
 3433THY    HP385809   0.330  10.058   3.405  0.1186 -1.8918 -2.2218
 3433THY    HP485810   0.222   9.950   3.354 -1.1254  0.7415 -0.7532
 3433THY    CP385811   0.225  10.118   3.648  0.2524 -0.2266  0.6661
 3433THY    HP585812   0.180  10.105   3.746  0.7588  0.4549  0.9976
 3433THY    HP685813   0.334  10.114   3.663  0.3261  0.8240  0.4525
 3433THY    HP785814   0.202  10.220   3.615  0.4546 -0.6100 -0.7697
 3433THY    CA385815  -0.051  10.124   3.561  0.5607 -0.6756 -0.2077
 3433THY    HA385816   0.005  10.212   3.534  1.2346 -0.1357  2.6773
 3433THY    CA485817  -0.190  10.127   3.580 -0.3654  0.0297 -0.1523
 3433THY    HA485818  -0.241  10.222   3.565  0.1810 -0.1729 -4.1535
 3433THY    CA585819  -0.251  10.008   3.628 -0.4668 -0.3456  0.3849
 3433THY    CM185820  -0.398  10.020   3.649  0.4581  0.3067 -0.5276
 3433THY    HM185821  -0.464  10.064   3.574 -0.4058  0.3870  0.2519
 3433THY    HM285822  -0.439   9.921   3.672  1.9448  0.0161  1.1416
 3433THY    HM385823  -0.413  10.072   3.745  2.5368 -0.3841  0.2450
 3433THY    CA685824  -0.182   9.888   3.635  0.1240 -0.5537 -0.2901
 3433THY    HA685825  -0.238   9.808   3.682 -0.4476  1.5742  2.9242
 3434THY      O85826   6.398   5.534   0.742 -0.1108 -0.3503  0.1874
 3434THY     HO85827   6.402   5.465   0.811 -2.7626 -0.5936  0.2315
 3434THY    CA185828   6.302   5.630   0.771 -0.2821  0.6023  0.6152
 3434THY    CA285829   6.336   5.765   0.761 -0.2497 -0.2438 -0.2071
 3434THY    CP185830   6.453   5.803   0.676  0.2631 -0.4256  0.2698
 3434THY    HP185831   6.497   5.711   0.634  0.4682  0.3223 -1.2370
 3434THY    CP285832   6.418   5.902   0.564 -0.1206 -0.0287  0.2350
 3434THY    HP285833   6.324   5.880   0.513  0.5391 -1.5035 -0.3939
 3434THY    HP385834   6.423   6.006   0.598 -0.9111  0.3297 -0.6890
 3434THY    HP485835   6.498   5.897   0.489  0.2813  1.4819  0.5235
 3434THY    CP385836   6.564   5.869   0.766 -0.8403  0.1497  0.1150
 3434THY    HP585837   6.544   5.968   0.807  2.6531  1.1936 -0.3483
 3434THY    HP685838   6.583   5.804   0.852  1.8646 -1.1272 -1.2881
 3434THY    HP785839   6.657   5.858   0.709  0.4020  0.2139  2.0136
 3434THY    CA385840   6.236   5.861   0.797 -0.6740  0.1264 -0.2955
 3434THY    HA385841   6.248   5.968   0.789 -0.7969  0.1531 -0.1335
 3434THY    CA485842   6.118   5.819   0.860  0.3314 -0.4173  0.1966
 3434THY    HA485843   6.042   5.890   0.894  0.6760 -0.1265  0.3652
 3434THY    CA585844   6.097   5.681   0.873  0.1011  0.1239 -0.9081
 3434THY    CM185845   5.970   5.628   0.939 -0.1470  0.2999  0.8220
 3434THY    HM185846   5.883   5.692   0.920 -0.7521 -0.2372  1.7070
 3434THY    HM285847   5.957   5.535   0.883 -0.9373  0.8439  0.0777
 3434THY    HM385848   5.974   5.621   1.049  0.9619 -2.1915  0.6661
 3434THY    CA685849   6.189   5.584   0.823 -0.1597  0.2701 -0.5178
 3434THY    HA685850   6.179   5.478   0.842  2.5110 -0.1131 -0.9488
 3435THY      O85851   1.993   3.657   0.197  0.0869  0.0774 -0.1294
 3435THY     HO85852   1.941   3.693   0.123 -0.2624  0.0501  0.1018
 3435THY    CA185853   2.077   3.556   0.160  0.5201 -0.0330 -0.2304
 3435THY    CA285854   2.182   3.512   0.243 -0.2876 -0.1215 -0.2058
 3435THY    CP185855   2.204   3.576   0.377 -0.1508  0.0424 -0.2672
 3435THY    HP185856   2.139   3.659   0.406  1.3840  0.7459  1.3557
 3435THY    CP285857   2.193   3.472   0.489 -0.2649  0.5148  0.3442
 3435THY    HP285858   2.092   3.429   0.487 -0.5715  0.9911  2.6180
 3435THY    HP385859   2.261   3.386   0.481 -0.3466  0.4736  0.0670
 3435THY    HP485860   2.198   3.519   0.588  0.1035  0.9325  0.1299
 3435THY    CP385861   2.342   3.631   0.393  0.1801  0.0838  0.0675
 3435THY    HP585862   2.422   3.559   0.370 -0.4046  0.0836 -2.1788
 3435THY    HP685863   2.352   3.701   0.309  0.3804 -0.8445 -0.7159
 3435THY    HP785864   2.342   3.675   0.493 -0.2435  0.5640 -0.1441
 3435THY    CA385865   2.277   3.419   0.193  0.3763 -0.0411  0.6436
 3435THY    HA385866   2.371   3.396   0.242  1.6827 -1.4362 -2.3110
 3435THY    CA485867   2.249   3.364   0.065  0.3356  0.8471  0.1130
 3435THY    HA485868   2.317   3.288   0.029 -2.2362 -1.0092 -1.1671
 3435THY    CA585869   2.139   3.399  -0.010  0.4126  0.0104  0.0588
 3435THY    CM185870   2.111   3.331  -0.136 -0.4669 -0.1463 -0.1459
 3435THY    HM185871   2.182   3.346  -0.218 -0.0551 -0.9120  0.0594
 3435THY    HM285872   2.121   3.223  -0.119  2.2206  0.3550  2.2853
 3435THY    HM385873   2.016   3.355  -0.185 -0.5166 -0.1150 -0.0354
 3435THY    CA685874   2.058   3.500   0.038  0.0969 -0.3310  0.3403
 3435THY    HA685875   1.965   3.525  -0.012  0.4446  1.4614  0.5304
 3436THY      O85876   9.916   9.118   4.136 -0.3682  0.9452  0.3198
 3436THY     HO85877   9.878   9.037   4.173  0.8512 -1.0140 -2.3538
 3436THY    CA185878  10.029   9.135   4.208 -0.4552  0.7469 -0.7857
 3436THY    CA285879  10.112   9.250   4.200 -0.5653  0.0428 -0.4553
 3436THY    CP185880  10.073   9.360   4.101  0.6327 -0.4519  0.4018
 3436THY    HP185881  10.053   9.309   4.006 -1.0896 -1.0105  1.0236
 3436THY    CP285882   9.943   9.444   4.138 -0.0314  0.0153  0.3493
 3436THY    HP285883   9.912   9.525   4.071  1.4013  0.5998  0.3398
 3436THY    HP385884   9.852   9.385   4.146 -1.0300  1.2909 -1.0249
 3436THY    HP485885   9.964   9.491   4.236  1.8190  0.9332 -0.4259
 3436THY    CP385886  10.178   9.468   4.074 -0.3544 -0.1205  0.1709
 3436THY    HP585887  10.275   9.428   4.044 -0.5618 -0.5507  0.0717
 3436THY    HP685888  10.140   9.538   3.999  0.2738 -1.0411 -1.0222
 3436THY    HP785889  10.199   9.519   4.169 -1.9790 -0.0923  0.5451
 3436THY    CA385890  10.233   9.256   4.277  0.7616 -0.0494 -0.2843
 3436THY    HA385891  10.308   9.334   4.263  0.0853  0.3999 -1.5953
 3436THY    CA485892  10.249   9.155   4.374  0.0199 -0.6294 -0.4267
 3436THY    HA485893  10.337   9.154   4.438 -1.1855 -1.0420  1.3083
 3436THY    CA585894  10.162   9.045   4.383 -0.3840  0.4113  0.0535
 3436THY    CM185895  10.182   8.943   4.482 -0.5957 -0.2822 -0.0535
 3436THY    HM185896  10.085   8.896   4.502 -0.3663 -1.1509 -0.8449
 3436THY    HM285897  10.258   8.867   4.458  0.0779  0.3710 -0.0286
 3436THY    HM385898  10.207   8.984   4.580 -0.3855 -1.0172  0.2086
 3436THY    CA685899  10.051   9.030   4.296 -0.1065 -0.0415  0.1663
 3436THY    HA685900   9.985   8.944   4.298  1.0351 -0.9583  0.1082
 3437THY      O85901   6.572   7.036   3.157 -0.1918 -0.0563 -0.0881
 3437THY     HO85902   6.547   7.100   3.227 -1.8533  0.7068 -1.2956
 3437THY    CA185903   6.464   7.035   3.076  0.0117 -0.2128  0.0930
 3437THY    CA285904   6.432   6.923   2.999  0.1757  0.0786  0.3036
 3437THY    CP185905   6.520   6.798   2.978  0.6613  0.7629 -0.2329
 3437THY    HP185906   6.601   6.811   3.050  0.1868 -3.1531  1.2678
 3437THY    CP285907   6.455   6.662   3.014  0.5182 -0.0613 -0.1505
 3437THY    HP285908   6.346   6.664   3.022  0.2378  0.9016 -3.0346
 3437THY    HP385909   6.468   6.586   2.936  2.4029  1.2005 -1.1486
 3437THY    HP485910   6.502   6.617   3.102  1.7253  1.2358 -0.0953
 3437THY    CP385911   6.587   6.782   2.843  0.4296  0.3116 -0.1846
 3437THY    HP585912   6.525   6.717   2.780 -0.2846  1.6645 -0.9231
 3437THY    HP685913   6.581   6.880   2.794  1.8821  0.5708  0.1112
 3437THY    HP785914   6.687   6.739   2.850  0.9761  1.2827 -1.5396
 3437THY    CA385915   6.322   6.926   2.907  0.8136 -0.5209  0.1929
 3437THY    HA385916   6.303   6.852   2.830  0.5792 -0.4788  0.2083
 3437THY    CA485917   6.250   7.049   2.903  1.1669 -0.1782  0.0403
 3437THY    HA485918   6.170   7.065   2.831 -0.3820  2.0045  2.0672
 3437THY    CA585919   6.269   7.153   3.000 -0.3117  0.8583 -0.5458
 3437THY    CM185920   6.181   7.276   3.006  0.5023  0.0188 -0.0907
 3437THY    HM185921   6.087   7.259   2.953  1.2265 -2.0118 -0.8224
 3437THY    HM285922   6.162   7.295   3.113 -0.2819 -2.0187  0.1785
 3437THY    HM385923   6.236   7.363   2.968  0.5296  0.5294  1.0754
 3437THY    CA685924   6.387   7.145   3.078 -0.7091 -0.6280  0.4720
 3437THY    HA685925   6.416   7.235   3.132 -0.3662  0.6148 -1.6844
 3438THY      O85926   8.474   8.728   6.701 -0.0862  0.0632  0.2813
 3438THY     HO85927   8.452   8.677   6.781  2.5687 -0.2700  0.9031
 3438THY    CA185928   8.566   8.661   6.635  0.5074  0.0365  0.1932
 3438THY    CA285929   8.649   8.735   6.548  0.2370 -0.5281 -0.0885
 3438THY    CP185930   8.616   8.885   6.516  0.3450 -0.3877  0.8470
 3438THY    HP185931   8.533   8.929   6.573 -0.2223  2.0378 -1.5797
 3438THY    CP285932   8.728   8.981   6.565  0.4076 -0.8984  1.1381
 3438THY    HP285933   8.825   8.966   6.515  1.0804 -1.3791  2.5275
 3438THY    HP385934   8.690   9.081   6.541 -1.3194 -1.9989 -1.0551
 3438THY    HP485935   8.762   8.971   6.669  0.5306 -1.4043  1.0487
 3438THY    CP385936   8.579   8.906   6.365 -0.6393 -0.4958 -0.1073
 3438THY    HP585937   8.510   8.823   6.342 -2.4857  1.0418 -0.3378
 3438THY    HP685938   8.529   9.002   6.349 -0.6968 -0.2699  1.3135
 3438THY    HP785939   8.670   8.912   6.303 -0.9403  1.1133 -0.4331
 3438THY    CA385940   8.758   8.674   6.485 -0.3828  0.2694 -0.8135
 3438THY    HA385941   8.810   8.737   6.414 -2.6199  1.1289 -1.8066
 3438THY    CA485942   8.787   8.540   6.524  0.0544 -0.1631  0.8715
 3438THY    HA485943   8.874   8.497   6.475 -0.7601 -0.9807  0.1032
 3438THY    CA585944   8.710   8.469   6.615  0.8610  0.0261 -0.0558
 3438THY    CM185945   8.757   8.328   6.654  0.2202  0.1411 -0.1526
 3438THY    HM185946   8.817   8.292   6.570  2.5578 -0.8601  1.8507
 3438THY    HM285947   8.836   8.354   6.724  0.6269 -0.0515 -0.5373
 3438THY    HM385948   8.686   8.253   6.692  1.2731 -0.9065 -0.1977
 3438THY    CA685949   8.596   8.530   6.663  0.5037  0.2934  0.0720
 3438THY    HA685950   8.537   8.471   6.732  0.8839 -0.8439 -0.5527
 3439THY      O85951   9.890   2.271   5.689 -0.3286  0.1292 -0.5432
 3439THY     HO85952   9.844   2.356   5.676 -0.5109  0.5591  2.3377
 3439THY    CA185953   9.815   2.184   5.620  0.3276  0.0218 -0.2322
 3439THY    CA285954   9.864   2.078   5.550  0.5515 -0.2599  0.9677
 3439THY    CP185955  10.010   2.044   5.548  0.5561 -0.8561  0.3946
 3439THY    HP185956  10.062   2.086   5.634  1.5971 -0.6549 -0.3105
 3439THY    CP285957  10.038   1.890   5.567  0.1931  0.9775  0.8643
 3439THY    HP285958  10.144   1.865   5.583  0.0870 -0.8489 -0.9026
 3439THY    HP385959   9.980   1.861   5.655 -1.1445 -2.3780 -0.9394
 3439THY    HP485960  10.002   1.833   5.481  0.6184  2.8207 -0.5894
 3439THY    CP385961  10.074   2.097   5.417  0.0248  0.2120 -0.2538
 3439THY    HP585962  10.031   2.052   5.328  3.3028 -2.5883 -0.6394
 3439THY    HP685963  10.067   2.207   5.417  0.5806  0.2529 -0.1937
 3439THY    HP785964  10.184   2.089   5.420  0.1678  1.4722 -0.9827
 3439THY    CA385965   9.777   2.012   5.460 -0.1803  0.5498 -0.5022
 3439THY    HA385966   9.814   1.924   5.407 -1.6256 -0.7730  0.5885
 3439THY    CA485967   9.636   2.042   5.469 -0.0633  0.2592 -0.4532
 3439THY    HA485968   9.565   1.976   5.422 -0.9265 -0.7071  2.0158
 3439THY    CA585969   9.585   2.138   5.560  0.2030  0.1096 -0.2712
 3439THY    CM185970   9.430   2.166   5.577  0.0036 -0.5796  0.2179
 3439THY    HM185971   9.377   2.185   5.483  2.8179 -0.9872 -1.5925
 3439THY    HM285972   9.379   2.083   5.627 -0.5471  0.7193  1.9063
 3439THY    HM385973   9.418   2.249   5.648 -0.4404  0.0078 -0.5288
 3439THY    CA685974   9.680   2.215   5.627 -0.1038  0.2284 -0.6979
 3439THY    HA685975   9.637   2.296   5.684  0.4368 -0.5890  0.9338
 3440THY      O85976   9.469   6.109   2.208  0.4432 -0.0037  0.3978
 3440THY     HO85977   9.492   6.192   2.162  0.7376 -0.0913  0.3824
 3440THY    CA185978   9.494   6.121   2.339 -0.2882  0.9264 -0.0988
 3440THY    CA285979   9.509   6.006   2.425  0.4893  0.2603 -0.1007
 3440THY    CP185980   9.509   5.861   2.369 -0.2587 -0.2082  0.7443
 3440THY    HP185981   9.434   5.853   2.289  0.7877  1.1845 -0.4457
 3440THY    CP285982   9.651   5.816   2.325 -0.4077  0.6356  0.8343
 3440THY    HP285983   9.717   5.821   2.413  1.5580 -0.4115 -0.5005
 3440THY    HP385984   9.643   5.715   2.283  0.8141  1.1518 -0.7603
 3440THY    HP485985   9.681   5.884   2.245  0.2664 -0.7557 -0.1427
 3440THY    CP385986   9.458   5.761   2.472  0.5112  0.3104  0.1003
 3440THY    HP585987   9.432   5.669   2.420 -2.4861  0.9609  0.2468
 3440THY    HP685988   9.530   5.735   2.551 -0.2863 -2.4990 -0.0223
 3440THY    HP785989   9.372   5.803   2.525 -1.0001 -1.7185 -0.6397
 3440THY    CA385990   9.514   6.028   2.562  1.1513  0.3463 -0.3300
 3440THY    HA385991   9.510   5.944   2.631 -1.7873  0.1998 -0.5352
 3440THY    CA485992   9.512   6.163   2.616  0.0884  0.9287  0.8885
 3440THY    HA485993   9.520   6.185   2.722 -3.2109 -0.3757  1.5253
 3440THY    CA585994   9.504   6.273   2.527 -0.4468  0.4015  0.9649
 3440THY    CM185995   9.514   6.411   2.581 -0.1285  0.3652 -0.5865
 3440THY    HM185996   9.600   6.468   2.542  0.1553 -0.4945 -1.2369
 3440THY    HM285997   9.422   6.471   2.581 -0.2201  0.2251 -0.4257
 3440THY    HM385998   9.548   6.396   2.685  0.7933 -1.3038 -1.0975
 3440THY    CA685999   9.490   6.248   2.387 -0.1961  0.4479  0.8584
 3440THY    HA686000   9.496   6.337   2.324  0.8772  0.7112  1.3153
 3441THY      O86001   6.535   8.403   0.335 -0.0282 -0.3624 -0.0883
 3441THY     HO86002   6.570   8.367   0.252 -1.7187  0.2288 -1.1029
 3441THY    CA186003   6.564   8.315   0.435 -0.2309  0.1902 -0.2722
 3441THY    CA286004   6.519   8.334   0.566  0.3425  0.7210  0.3977
 3441THY    CP186005   6.457   8.466   0.616 -0.0342  0.2753 -0.0646
 3441THY    HP186006   6.484   8.549   0.549 -0.7903  0.7273  0.1818
 3441THY    CP286007   6.302   8.443   0.626  0.6544 -0.5057  0.6641
 3441THY    HP286008   6.264   8.373   0.702 -1.1469 -1.2768 -0.8662
 3441THY    HP386009   6.257   8.539   0.653 -0.8372 -0.8612 -0.4417
 3441THY    HP486010   6.269   8.416   0.525  2.0212 -0.1526  0.1052
 3441THY    CP386011   6.502   8.505   0.753  0.3540 -0.6230 -0.0222
 3441THY    HP586012   6.608   8.530   0.761  0.7276 -2.1458  0.1108
 3441THY    HP686013   6.449   8.596   0.784 -0.3458 -0.6553 -1.1065
 3441THY    HP786014   6.480   8.423   0.823  1.9013  0.3419  1.7122
 3441THY    CA386015   6.544   8.227   0.660 -0.6289  0.2676  0.3390
 3441THY    HA386016   6.516   8.234   0.765 -0.5487  1.1450  0.3051
 3441THY    CA486017   6.604   8.108   0.612  0.0687  0.2856  0.0082
 3441THY    HA486018   6.615   8.025   0.681 -1.8067 -0.6746 -0.7703
 3441THY    CA586019   6.658   8.103   0.484  0.4248 -0.2778 -0.6516
 3441THY    CM186020   6.716   7.971   0.445 -0.2489 -0.3930 -0.3458
 3441THY    HM186021   6.747   7.918   0.536 -2.3491 -1.5762 -0.2421
 3441THY    HM286022   6.638   7.909   0.400 -1.4935  0.0465  1.1228
 3441THY    HM386023   6.801   7.982   0.377 -0.8068  1.1260 -0.8237
 3441THY    CA686024   6.629   8.205   0.392  0.3761 -1.0193 -0.5489
 3441THY    HA686025   6.667   8.200   0.291  1.2671  0.3940 -0.3064
 3442THY      O86026   3.853   5.870   7.948  0.1052 -0.4119 -0.0444
 3442THY     HO86027   3.765   5.858   7.909 -0.0820 -3.3364  1.0571
 3442THY    CA186028   3.918   5.755   7.902 -0.4164 -0.1411 -0.1765
 3442THY    CA286029   3.950   5.649   7.988 -0.6765 -0.0508 -1.5166
 3442THY    CP186030   3.929   5.667   8.145 -0.1649  0.1626  0.1042
 3442THY    HP186031   3.885   5.764   8.172  1.7603  1.2725 -0.5202
 3442THY    CP286032   3.829   5.562   8.199 -0.0574  0.0739  0.3920
 3442THY    HP286033   3.723   5.587   8.187  0.0198 -0.2588 -1.1302
 3442THY    HP386034   3.845   5.475   8.135 -0.2014  0.1447  0.2574
 3442THY    HP486035   3.862   5.521   8.295  0.2870 -1.1771 -0.2432
 3442THY    CP386036   4.061   5.660   8.222  0.7430  0.8484 -0.6063
 3442THY    HP586037   4.139   5.725   8.179  0.5028  1.0892 -0.6794
 3442THY    HP686038   4.042   5.682   8.327 -0.7353 -1.2312 -0.3729
 3442THY    HP786039   4.098   5.557   8.225  0.5313  0.8032  1.0127
 3442THY    CA386040   4.029   5.544   7.930 -0.3220 -0.1189 -0.4025
 3442THY    HA386041   4.077   5.467   7.989 -0.4393  0.1798  0.0903
 3442THY    CA486042   4.057   5.549   7.794 -0.3111 -0.1434 -0.1596
 3442THY    HA486043   4.118   5.468   7.755 -0.2312 -0.2088  0.0968
 3442THY    CA586044   4.010   5.645   7.706 -0.1505 -0.3256  0.1750
 3442THY    CM186045   4.046   5.654   7.569 -0.2963 -0.5637  0.5085
 3442THY    HM186046   4.000   5.572   7.513 -0.7284 -1.5565  2.2560
 3442THY    HM286047   4.009   5.745   7.522 -1.2592 -0.8748  0.6429
 3442THY    HM386048   4.153   5.657   7.545 -0.8548 -1.1799 -2.3926
 3442THY    CA686049   3.948   5.758   7.764 -0.1009  0.4777 -1.0509
 3442THY    HA686050   3.924   5.847   7.707 -1.9914 -0.4855 -1.8478
 3443THY      O86051   2.701   2.046   3.619 -0.1185 -0.4627  0.2791
 3443THY     HO86052   2.658   2.071   3.535  0.7889 -1.1096 -0.4065
 3443THY    CA186053   2.823   2.009   3.580 -0.4433  0.5394  0.5113
 3443THY    CA286054   2.943   2.035   3.651 -0.0127  0.4862  0.7056
 3443THY    CP186055   2.935   2.124   3.776 -0.7448  0.0613 -0.0650
 3443THY    HP186056   2.833   2.155   3.800 -0.0109  2.4507  0.2776
 3443THY    CP286057   2.986   2.055   3.906  0.6270  1.0003  0.3903
 3443THY    HP286058   3.095   2.061   3.906  0.6199  1.1687  1.2103
 3443THY    HP386059   2.945   2.110   3.991 -0.0591  0.0259  0.7104
 3443THY    HP486060   2.956   1.950   3.914  1.5513  0.8454  2.3641
 3443THY    CP386061   3.019   2.255   3.763  0.2425  0.6218 -0.0469
 3443THY    HP586062   3.126   2.233   3.773  0.2032  0.3091 -0.3118
 3443THY    HP686063   2.999   2.303   3.667 -3.4385 -1.1711 -0.3374
 3443THY    HP786064   2.996   2.317   3.851 -0.5391  0.4054 -0.0924
 3443THY    CA386065   3.068   1.986   3.600  0.0183  0.8373 -0.0612
 3443THY    HA386066   3.160   2.003   3.657 -1.0959  2.1100  1.4329
 3443THY    CA486067   3.071   1.911   3.480 -0.0622 -0.3021 -0.0876
 3443THY    HA486068   3.165   1.869   3.446  0.6318  0.3410  0.9849
 3443THY    CA586069   2.954   1.886   3.408 -0.5073 -0.1283 -0.4552
 3443THY    CM186070   2.957   1.801   3.287  0.7903 -0.4161  1.0222
 3443THY    HM186071   3.048   1.741   3.284  1.2308  0.2922  0.0249
 3443THY    HM286072   2.869   1.740   3.264  1.3546 -0.8464 -0.0349
 3443THY    HM386073   2.969   1.868   3.201  0.1875 -2.3137 -0.6200
 3443THY    CA686074   2.836   1.941   3.454 -0.1121 -0.4335  0.7854
 3443THY    HA686075   2.740   1.909   3.414 -1.1457  1.4139  1.6524
 3444THY      O86076   4.140   9.271   5.798 -0.5032 -0.3831 -0.2085
 3444THY     HO86077   4.080   9.325   5.744  0.1466 -0.9843 -1.5975
 3444THY    CA186078   4.100   9.287   5.932  0.3644  0.1238 -0.1084
 3444THY    CA286079   4.163   9.232   6.048  0.6002  0.3413  0.5985
 3444THY    CP186080   4.296   9.156   6.040  0.5277  0.5347  0.4281
 3444THY    HP186081   4.297   9.118   5.937 -0.9697 -1.3941  1.0728
 3444THY    CP286082   4.412   9.249   6.057 -0.1761 -0.2499  0.0145
 3444THY    HP286083   4.408   9.334   5.987 -2.4122  0.4939  0.9423
 3444THY    HP386084   4.409   9.287   6.159  0.8583 -2.4843  0.9335
 3444THY    HP486085   4.500   9.192   6.026  0.8239  0.0473  2.1823
 3444THY    CP386086   4.321   9.030   6.125  0.0697  0.5257  0.4465
 3444THY    HP586087   4.425   8.996   6.120 -0.1243 -0.0326 -3.9095
 3444THY    HP686088   4.289   9.042   6.229 -1.1090  0.7833  0.0786
 3444THY    HP786089   4.264   8.947   6.083  1.7051 -0.6344  0.4326
 3444THY    CA386090   4.109   9.262   6.179  0.2445  0.1515  0.1793
 3444THY    HA386091   4.161   9.223   6.266  0.5193  1.5109  0.6544
 3444THY    CA486092   3.984   9.335   6.197  0.8749 -0.8074 -0.2810
 3444THY    HA486093   3.948   9.364   6.296  1.3096 -1.8936  0.2210
 3444THY    CA586094   3.925   9.388   6.075 -0.0886  0.0213 -0.2406
 3444THY    CM186095   3.801   9.478   6.077 -0.1272  0.2855 -0.7304
 3444THY    HM186096   3.825   9.584   6.063  0.4448  0.2482 -0.0839
 3444THY    HM286097   3.730   9.430   6.008 -0.3107 -0.3329 -0.1181
 3444THY    HM386098   3.765   9.461   6.178  0.1571  0.7613 -0.5449
 3444THY    CA686099   3.983   9.358   5.949 -0.3231  0.3860  0.1834
 3444THY    HA686100   3.953   9.407   5.856  1.1769 -1.0220 -1.0970
 3445THY      O86101   8.018   2.931   4.852 -0.0378  0.3010 -0.1037
 3445THY     HO86102   8.089   2.979   4.897  1.1882  0.2423 -1.9008
 3445THY    CA186103   7.915   3.017   4.858  0.2634 -0.0817  0.0112
 3445THY    CA286104   7.821   3.025   4.756  0.0351 -0.0995 -0.0876
 3445THY    CP186105   7.841   2.950   4.623 -1.3851 -0.1406 -0.6587
 3445THY    HP186106   7.928   2.884   4.628 -1.4586 -0.1802  0.1078
 3445THY    CP286107   7.722   2.865   4.585 -0.4124  0.1004 -0.5500
 3445THY    HP286108   7.733   2.839   4.479 -0.0014  0.4181 -0.5900
 3445THY    HP386109   7.709   2.774   4.644  1.7700 -1.2976 -2.0975
 3445THY    HP486110   7.631   2.925   4.593 -0.3024  0.6397 -2.7276
 3445THY    CP386111   7.888   3.056   4.513  0.0004 -0.0506  0.1806
 3445THY    HP586112   7.994   3.076   4.536  0.1596 -0.1016 -0.4713
 3445THY    HP686113   7.888   3.008   4.414  0.9768 -0.3987  0.3335
 3445THY    HP786114   7.820   3.142   4.516  1.4797  1.1365  1.4980
 3445THY    CA386115   7.712   3.116   4.771  0.6446  0.5171  0.2513
 3445THY    HA386116   7.653   3.156   4.689 -1.6768  0.1660  1.6532
 3445THY    CA486117   7.714   3.209   4.878 -0.4545  0.2153 -1.1304
 3445THY    HA486118   7.636   3.282   4.900 -0.1817 -0.2737  1.8945
 3445THY    CA586119   7.795   3.192   4.982  0.3262  0.3715 -0.6915
 3445THY    CM186120   7.770   3.287   5.103 -0.2346  0.0936  0.5269
 3445THY    HM186121   7.694   3.243   5.169  1.5479  0.8225  3.2267
 3445THY    HM286122   7.858   3.288   5.169 -0.3461 -0.6066  0.6935
 3445THY    HM386123   7.748   3.388   5.066  1.2870  0.2999  0.1270
 3445THY    CA686124   7.899   3.096   4.975  0.4221 -0.2236 -0.2511
 3445THY    HA686125   7.965   3.090   5.062 -0.1418 -1.9724  0.1009
 3446THY      O86126   7.247   5.899   4.065  0.6666  0.4617 -0.5845
 3446THY     HO86127   7.324   5.955   4.085  1.0371  0.2634 -1.4201
 3446THY    CA186128   7.133   5.968   4.028  0.8359 -0.2186 -0.4996
 3446THY    CA286129   7.033   5.914   3.951  0.2141  0.4274  0.4441
 3446THY    CP186130   7.057   5.769   3.907  0.4266  0.4341 -0.2550
 3446THY    HP186131   7.164   5.747   3.905  0.5156  0.8477 -0.1179
 3446THY    CP286132   6.989   5.666   3.992 -0.0182  0.0352  0.1195
 3446THY    HP286133   7.061   5.585   4.010 -0.7026 -0.7551 -0.6327
 3446THY    HP386134   6.983   5.702   4.095 -1.2629 -0.3446  0.1840
 3446THY    HP486135   6.895   5.628   3.952 -0.2630  0.2764  0.4613
 3446THY    CP386136   7.018   5.745   3.754 -0.3603  0.1396 -0.1601
 3446THY    HP586137   7.098   5.800   3.704 -0.5977 -0.9569 -1.8376
 3446THY    HP686138   7.023   5.638   3.732  0.0708 -0.0629  0.8635
 3446THY    HP786139   6.917   5.781   3.728  0.1125  1.0743 -0.7582
 3446THY    CA386140   6.930   5.993   3.902 -0.3552 -0.2918 -0.3005
 3446THY    HA386141   6.850   5.955   3.839 -1.0103  2.8284 -1.5135
 3446THY    CA486142   6.921   6.131   3.933  0.2045  0.3400 -0.8151
 3446THY    HA486143   6.842   6.193   3.892  0.1611  1.2741  0.5967
 3446THY    CA586144   7.025   6.185   4.011  0.6862 -0.3320  0.6767
 3446THY    CM186145   7.015   6.329   4.049  0.6024  0.8088 -0.1223
 3446THY    HM186146   6.948   6.401   4.000  0.7411  1.0776  0.0817
 3446THY    HM286147   7.001   6.333   4.157  0.6808 -1.0973 -0.0002
 3446THY    HM386148   7.112   6.371   4.019 -0.5785  2.6509 -1.6063
 3446THY    CA686149   7.121   6.102   4.059  0.3387 -0.4357  0.4305
 3446THY    HA686150   7.197   6.158   4.112  0.3121 -1.0447  1.1352
 3447THY      O86151   4.429   3.801   1.386 -0.7268 -0.6024  0.0361
 3447THY     HO86152   4.489   3.852   1.328  2.2817 -1.5588  2.0948
 3447THY    CA186153   4.412   3.872   1.497  0.5669 -0.3668 -0.7961
 3447THY    CA286154   4.290   3.938   1.528 -0.2900  0.3305  0.2373
 3447THY    CP186155   4.186   3.955   1.413 -0.7013  0.1938 -0.1067
 3447THY    HP186156   4.212   3.899   1.323 -0.2711  1.4809 -0.8111
 3447THY    CP286157   4.041   3.916   1.464 -0.1241 -0.2406 -0.0230
 3447THY    HP286158   4.009   3.957   1.561  0.5399 -0.7472  0.4195
 3447THY    HP386159   3.971   3.966   1.397  0.5492  1.0188  0.1720
 3447THY    HP486160   4.035   3.807   1.455 -0.8753 -0.0965 -1.4282
 3447THY    CP386161   4.197   4.102   1.365 -0.3486 -0.8947  0.1187
 3447THY    HP586162   4.106   4.126   1.308  0.7763  0.6735 -1.1151
 3447THY    HP686163   4.207   4.163   1.455  1.4512 -0.0204 -0.6206
 3447THY    HP786164   4.289   4.113   1.306  0.8007 -2.7589  1.4549
 3447THY    CA386165   4.268   4.004   1.652 -0.3007  0.5417 -0.2515
 3447THY    HA386166   4.179   4.063   1.671 -0.5304  0.5322 -1.2413
 3447THY    CA486167   4.368   3.991   1.750 -0.1249  1.0433  0.2617
 3447THY    HA486168   4.355   4.032   1.850  0.0366  3.3301 -0.6063
 3447THY    CA586169   4.491   3.929   1.720  0.1280  0.3961  0.1285
 3447THY    CM186170   4.607   3.925   1.823 -0.3638  0.8969 -0.5222
 3447THY    HM186171   4.618   4.016   1.883  0.2028 -0.0363  0.8443
 3447THY    HM286172   4.587   3.848   1.898 -0.6630  0.5895 -0.9100
 3447THY    HM386173   4.706   3.902   1.781 -0.1049  0.6368  0.2140
 3447THY    CA686174   4.507   3.868   1.596  0.5432  0.1881  0.1652
 3447THY    HA686175   4.601   3.826   1.560 -0.0768 -1.3410  0.2256
 3448THY      O86176   3.081   7.042   0.249  0.0229  0.1391  0.3508
 3448THY     HO86177   3.078   6.968   0.186  1.2681  1.0265 -0.8177
 3448THY    CA186178   3.080   6.990   0.373  0.1218 -0.0074  0.1322
 3448THY    CA286179   3.127   7.061   0.483  0.0505 -0.6108  0.2786
 3448THY    CP186180   3.180   7.209   0.468 -0.2798 -0.4668 -0.0909
 3448THY    HP186181   3.204   7.237   0.365 -1.7703  2.1689  0.1911
 3448THY    CP286182   3.079   7.304   0.531 -0.5289 -0.4120 -0.7775
 3448THY    HP286183   3.062   7.291   0.638  1.2050  4.8843  0.4278
 3448THY    HP386184   3.112   7.408   0.517  1.3274 -0.6261  1.4264
 3448THY    HP486185   2.981   7.285   0.485 -1.8396  0.7772  1.3476
 3448THY    CP386186   3.320   7.227   0.530  0.5667 -0.0727 -0.2314
 3448THY    HP586187   3.380   7.146   0.485  0.1636 -1.3656  1.4541
 3448THY    HP686188   3.382   7.312   0.498  2.4490 -1.3500 -0.1515
 3448THY    HP786189   3.333   7.226   0.639  2.8657 -0.1399 -0.4556
 3448THY    CA386190   3.117   7.013   0.616 -0.3922 -0.0497  0.6419
 3448THY    HA386191   3.159   7.063   0.703 -0.7602 -0.4983  1.0795
 3448THY    CA486192   3.081   6.880   0.634  0.3850 -0.1383  0.0849
 3448THY    HA486193   3.087   6.838   0.734 -0.8066  1.7798  1.0114
 3448THY    CA586194   3.042   6.800   0.526 -0.1815  0.7914  0.0279
 3448THY    CM186195   3.017   6.652   0.542  0.5035  0.0445 -0.0817
 3448THY    HM186196   2.948   6.623   0.463 -0.2682  0.2885  0.4885
 3448THY    HM286197   3.105   6.589   0.521  2.4347  2.5509  0.0016
 3448THY    HM386198   2.983   6.630   0.644 -0.4528  1.5784 -0.0427
 3448THY    CA686199   3.032   6.857   0.395  0.3444 -1.2366 -0.2505
 3448THY    HA686200   2.989   6.802   0.312  1.2631  0.3961 -1.8703
 3449THY      O86201   6.792   9.572   9.402 -0.7902  0.1098  0.6059
 3449THY     HO86202   6.720   9.637   9.395 -1.8570 -1.1265 -0.2565
 3449THY    CA186203   6.771   9.495   9.292  0.2572  0.2726 -0.2196
 3449THY    CA286204   6.799   9.354   9.305 -0.0763 -0.1501 -0.2213
 3449THY    CP186205   6.856   9.292   9.432  0.4470 -1.1409 -0.0797
 3449THY    HP186206   6.846   9.357   9.520  4.0926  0.2792 -0.5114
 3449THY    CP286207   6.782   9.165   9.470  0.7928  0.5271  0.0078
 3449THY    HP286208   6.805   9.135   9.572 -1.0086 -0.0784  0.2716
 3449THY    HP386209   6.673   9.175   9.463  0.6428 -0.5328  0.7116
 3449THY    HP486210   6.819   9.088   9.402  0.6378  1.1166 -0.7647
 3449THY    CP386211   7.006   9.259   9.413 -0.6000  0.4663 -0.7579
 3449THY    HP586212   7.053   9.209   9.499  0.7279  0.3478 -1.5264
 3449THY    HP686213   7.032   9.208   9.320 -0.3059  3.0472 -2.1778
 3449THY    HP786214   7.053   9.357   9.407 -0.2452  0.4368  0.9009
 3449THY    CA386215   6.771   9.279   9.188 -0.4745  0.0984  0.2281
 3449THY    HA386216   6.781   9.171   9.194  0.1962  0.0153 -1.6776
 3449THY    CA486217   6.725   9.343   9.071  0.1462  1.0305  0.4714
 3449THY    HA486218   6.716   9.289   8.977  1.8347  2.1734 -0.3834
 3449THY    CA586219   6.716   9.477   9.062  0.2153  0.2680  0.0965
 3449THY    CM186220   6.676   9.546   8.934  0.5590 -0.3490 -0.1028
 3449THY    HM186221   6.701   9.474   8.855 -1.9242 -1.0473 -0.3391
 3449THY    HM286222   6.568   9.566   8.939  0.5311 -0.6816  0.9871
 3449THY    HM386223   6.745   9.629   8.917  1.1284 -0.3906  1.7209
 3449THY    CA686224   6.737   9.555   9.174 -0.0198 -0.2917  0.0882
 3449THY    HA686225   6.721   9.662   9.172  0.0474 -0.2869 -0.5953
 3450THY      O86226   9.620   0.730   2.139  0.1871  0.0486  0.0954
 3450THY     HO86227   9.528   0.699   2.148 -1.0507  3.1842 -0.3746
 3450THY    CA186228   9.672   0.723   2.263 -0.0963  0.1111  1.0618
 3450THY    CA286229   9.811   0.742   2.274  0.7664 -0.6461 -0.7481
 3450THY    CP186230   9.891   0.793   2.150 -0.1951 -0.1891 -0.4536
 3450THY    HP186231   9.819   0.813   2.069  0.1914 -1.0480 -1.0272
 3450THY    CP286232   9.961   0.925   2.178  0.2066  0.0639  0.2105
 3450THY    HP286233  10.017   0.943   2.085 -1.5185 -0.8017 -1.0654
 3450THY    HP386234   9.888   1.005   2.195  0.6387  0.5476 -0.1554
 3450THY    HP486235  10.032   0.922   2.261  0.0196  0.0291  0.3708
 3450THY    CP386236   9.997   0.687   2.109 -0.3280 -0.1492 -0.1784
 3450THY    HP586237  10.100   0.713   2.137 -0.1831 -1.4161  0.5588
 3450THY    HP686238   9.981   0.583   2.139 -0.4539 -0.2240 -0.5024
 3450THY    HP786239   9.995   0.684   2.000 -0.8183  0.0434 -0.1770
 3450THY    CA386240   9.875   0.741   2.397 -0.0957 -0.1073 -0.1764
 3450THY    HA386241   9.983   0.757   2.395 -0.2366  1.3923  1.7183
 3450THY    CA486242   9.796   0.724   2.516 -0.4110 -0.7619  0.4143
 3450THY    HA486243   9.832   0.722   2.618 -1.7830  1.0069  0.9900
 3450THY    CA586244   9.655   0.705   2.494 -0.5095  0.4021  0.3982
 3450THY    CM186245   9.577   0.690   2.613  0.2046 -0.5313  0.1350
 3450THY    HM186246   9.610   0.752   2.697 -1.1011 -0.3565  0.5471
 3450THY    HM286247   9.478   0.734   2.597  1.1412  2.4328  1.7247
 3450THY    HM386248   9.564   0.583   2.636 -0.8484 -0.1204  1.5656
 3450THY    CA686249   9.597   0.708   2.366  0.5561  0.2362  0.3613
 3450THY    HA686250   9.490   0.688   2.364  0.5577  0.1958 -1.8274
 3451THY      O86251   7.751   9.597   5.946 -0.0256 -0.1592  0.5708
 3451THY     HO86252   7.777   9.687   5.921  0.9276 -0.8909 -1.1766
 3451THY    CA186253   7.620   9.586   5.935 -0.4204 -0.1423 -0.4582
 3451THY    CA286254   7.561   9.459   5.964 -0.2648 -0.8737 -0.9068
 3451THY    CP186255   7.643   9.334   5.975 -0.5504 -0.1758  0.4219
 3451THY    HP186256   7.739   9.349   6.026 -0.9137  2.0673  0.5792
 3451THY    CP286257   7.574   9.216   6.041  0.0892  0.1252 -1.0626
 3451THY    HP286258   7.642   9.132   6.059 -0.7848 -0.5248 -0.7168
 3451THY    HP386259   7.536   9.240   6.141  1.5807  1.3412 -0.7525
 3451THY    HP486260   7.488   9.185   5.980 -0.8847  2.0150 -0.7126
 3451THY    CP386261   7.682   9.287   5.834 -1.0337  0.5677  0.9126
 3451THY    HP586262   7.753   9.357   5.788 -1.0092 -1.2560 -2.0652
 3451THY    HP686263   7.738   9.193   5.846 -1.0167  0.5121  0.4106
 3451THY    HP786264   7.600   9.255   5.768  1.9757 -1.0777 -2.3828
 3451THY    CA386265   7.417   9.451   5.963 -0.3471  0.1758 -0.2143
 3451THY    HA386266   7.369   9.355   5.977  0.5267 -0.2343  0.0407
 3451THY    CA486267   7.343   9.568   5.955 -0.4852  0.5112 -0.5923
 3451THY    HA486268   7.235   9.559   5.959 -0.3126 -1.7533  0.0038
 3451THY    CA586269   7.405   9.692   5.941 -0.9934  0.2388 -0.6970
 3451THY    CM186270   7.325   9.815   5.945 -0.2024  0.1532  0.1846
 3451THY    HM186271   7.394   9.899   5.932 -0.3913 -0.0617 -2.8708
 3451THY    HM286272   7.251   9.817   5.864  0.3874  1.9697 -0.3559
 3451THY    HM386273   7.272   9.815   6.041 -2.2221 -0.2919 -0.8765
 3451THY    CA686274   7.545   9.700   5.930 -0.1554  0.0222 -0.0333
 3451THY    HA686275   7.597   9.795   5.919  0.6095 -0.2894  0.7448
 3452THY      O86276   0.488   5.208   4.771  0.0834 -0.9029  0.0668
 3452THY     HO86277   0.528   5.126   4.736  0.3431 -1.0687  0.7376
 3452THY    CA186278   0.590   5.271   4.835 -0.2174  0.0074  0.2741
 3452THY    CA286279   0.588   5.408   4.866 -0.9399  0.8752  0.2295
 3452THY    CP186280   0.471   5.493   4.834  0.9503 -0.7303  0.6043
 3452THY    HP186281   0.384   5.430   4.815  0.6380  0.0222 -0.6080
 3452THY    CP286282   0.441   5.599   4.949  0.6902  0.5824 -0.2429
 3452THY    HP286283   0.332   5.605   4.953  0.5888 -0.4173 -1.2167
 3452THY    HP386284   0.489   5.554   5.037  0.0608 -0.2519 -0.3171
 3452THY    HP486285   0.483   5.700   4.934  1.7742  0.0584 -0.8229
 3452THY    CP386286   0.489   5.578   4.700  0.0304  0.3379 -0.1429
 3452THY    HP586287   0.591   5.618   4.694  1.6010 -3.2404  0.4899
 3452THY    HP686288   0.482   5.512   4.613 -0.5460  0.4033 -0.1536
 3452THY    HP786289   0.410   5.653   4.686 -0.7081 -0.6526 -1.5310
 3452THY    CA386290   0.703   5.461   4.917  0.1281  0.0007 -0.2288
 3452THY    HA386291   0.696   5.566   4.943 -2.0062 -0.3294  0.7212
 3452THY    CA486292   0.821   5.385   4.949 -0.3917 -0.3847 -0.5076
 3452THY    HA486293   0.906   5.434   4.997 -0.5809 -1.5643  1.1285
 3452THY    CA586294   0.812   5.253   4.921  0.2764  0.6245  0.5835
 3452THY    CM186295   0.924   5.165   4.954 -0.1190  0.2906 -0.2445
 3452THY    HM186296   0.991   5.150   4.869  0.3512  0.0015  0.1755
 3452THY    HM286297   0.985   5.205   5.036 -1.7783 -0.4618  1.4359
 3452THY    HM386298   0.888   5.071   4.997 -1.0441  0.3697 -0.8050
 3452THY    CA686299   0.699   5.190   4.864 -0.0120 -0.3971 -0.5273
 3452THY    HA686300   0.704   5.084   4.840 -1.2996 -0.8555  1.0559
 3453THY      O86301   5.178   9.651   7.042  0.1833  0.5028 -0.2364
 3453THY     HO86302   5.234   9.724   7.009  0.1326 -0.6864 -3.3011
 3453THY    CA186303   5.097   9.618   6.937  0.3354 -0.3342 -0.1586
 3453THY    CA286304   4.963   9.587   6.959  0.2033  0.0636  0.1210
 3453THY    CP186305   4.906   9.558   7.100  0.0975  0.1797 -0.2925
 3453THY    HP186306   4.991   9.547   7.168  0.7590 -0.6658 -1.2384
 3453THY    CP286307   4.817   9.671   7.155  0.2443 -0.4442 -0.3770
 3453THY    HP286308   4.882   9.760   7.157  0.1636 -0.3901 -0.1326
 3453THY    HP386309   4.726   9.681   7.095  0.8600  2.2968 -1.0080
 3453THY    HP486310   4.799   9.665   7.263 -0.9824  0.4609 -0.5034
 3453THY    CP386311   4.817   9.434   7.101  0.0874  0.2353 -0.1848
 3453THY    HP586312   4.722   9.461   7.052 -0.0120 -0.9747 -0.6986
 3453THY    HP686313   4.865   9.347   7.054  0.3269  1.1502 -1.7061
 3453THY    HP786314   4.792   9.412   7.205  1.1747  1.1861  0.2950
 3453THY    CA386315   4.871   9.603   6.855  0.2259 -0.2121 -0.0843
 3453THY    HA386316   4.765   9.589   6.873  0.1760  1.2223  0.8565
 3453THY    CA486317   4.912   9.644   6.731  0.0371 -0.2143 -0.0968
 3453THY    HA486318   4.838   9.675   6.658  0.7081  1.6837 -0.0310
 3453THY    CA586319   5.051   9.647   6.705  0.2411 -0.0189 -0.0059
 3453THY    CM186320   5.108   9.681   6.570 -0.6390 -0.3194  0.7617
 3453THY    HM186321   5.198   9.625   6.545 -0.5118  0.0345  0.4172
 3453THY    HM286322   5.030   9.670   6.494 -0.7347  2.1550  0.4138
 3453THY    HM386323   5.139   9.786   6.561  0.9364 -0.7824  0.5558
 3453THY    CA686324   5.144   9.639   6.816  0.1567  0.1350  0.5539
 3453THY    HA686325   5.250   9.640   6.790  0.0089 -1.8653 -0.3249
 3454THY      O86326   1.444   2.893   3.423  0.0824 -0.1462  0.1285
 3454THY     HO86327   1.457   2.797   3.416 -1.4510 -0.5695  2.2222
 3454THY    CA186328   1.568   2.935   3.404 -0.2229 -0.3026  0.3053
 3454THY    CA286329   1.618   3.061   3.370 -0.1092 -0.0422  0.9131
 3454THY    CP186330   1.514   3.176   3.362  0.0456 -0.3235  0.1018
 3454THY    HP186331   1.418   3.149   3.409  0.9823  0.0296  2.3796
 3454THY    CP286332   1.574   3.306   3.409 -0.1751  0.2642  0.7362
 3454THY    HP286333   1.503   3.389   3.416  1.7088  2.0048  0.1188
 3454THY    HP386334   1.618   3.303   3.510 -0.5914 -1.9489  0.8957
 3454THY    HP486335   1.645   3.346   3.336  0.6351 -0.1758  1.2699
 3454THY    CP386336   1.460   3.187   3.213 -0.1726 -0.5395  0.1204
 3454THY    HP586337   1.539   3.162   3.140 -0.2589  0.0516 -0.1807
 3454THY    HP686338   1.376   3.118   3.199 -1.7408  1.2925  0.1323
 3454THY    HP786339   1.433   3.289   3.183 -0.7326 -0.3566  1.2103
 3454THY    CA386340   1.750   3.078   3.325  0.1090  0.1852  0.3388
 3454THY    HA386341   1.795   3.174   3.299  0.2131 -0.1357 -0.7328
 3454THY    CA486342   1.826   2.965   3.322 -0.5895  0.3669  0.0049
 3454THY    HA486343   1.921   2.973   3.270 -1.0784 -0.3938 -1.0402
 3454THY    CA586344   1.788   2.837   3.362 -0.3961 -0.2547  0.1339
 3454THY    CM186345   1.877   2.719   3.343  0.6805 -0.6203  0.4509
 3454THY    HM186346   1.983   2.749   3.338 -0.0472  1.9536 -1.6084
 3454THY    HM286347   1.867   2.642   3.420  2.1191 -1.3619 -0.0674
 3454THY    HM386348   1.846   2.663   3.254 -2.0039  1.9174 -0.3476
 3454THY    CA686349   1.661   2.827   3.418  0.1441  0.2804 -0.3274
 3454THY    HA686350   1.632   2.724   3.440  1.5952 -0.0283  0.2274
 3455THY      O86351   4.496   0.689   5.479  0.2699  0.5491  0.2193
 3455THY     HO86352   4.415   0.737   5.453  0.6736  0.8843 -0.4562
 3455THY    CA186353   4.450   0.573   5.511  0.7105  0.1105 -0.1024
 3455THY    CA286354   4.535   0.468   5.548  0.1458  1.5870  0.3380
 3455THY    CP186355   4.685   0.462   5.527 -0.0588 -0.2825  0.6860
 3455THY    HP186356   4.714   0.541   5.457  0.1894 -1.7091 -0.8886
 3455THY    CP286357   4.765   0.450   5.654  0.3958 -0.0554  0.5440
 3455THY    HP286358   4.723   0.517   5.730 -0.3281  0.5941 -0.4209
 3455THY    HP386359   4.745   0.349   5.693 -1.0566 -0.0202 -0.0883
 3455THY    HP486360   4.870   0.475   5.635  0.4773 -0.2661  0.7092
 3455THY    CP386361   4.727   0.339   5.446 -0.5381 -0.0391 -0.1111
 3455THY    HP586362   4.690   0.342   5.343  1.4000  1.6908 -0.8441
 3455THY    HP686363   4.835   0.343   5.427 -0.4086  1.9550  0.6926
 3455THY    HP786364   4.691   0.244   5.488  2.1460 -1.2181 -0.2896
 3455THY    CA386365   4.473   0.345   5.590 -0.7556 -0.2110  0.0073
 3455THY    HA386366   4.542   0.267   5.620 -0.1715 -0.6743 -2.3654
 3455THY    CA486367   4.332   0.335   5.594 -0.1019 -0.1087 -0.0378
 3455THY    HA486368   4.288   0.239   5.620  1.2576 -0.4347  1.2135
 3455THY    CA586369   4.252   0.450   5.562 -0.4978  0.0519 -0.1326
 3455THY    CM186370   4.113   0.440   5.577  0.5144 -0.1762 -0.0531
 3455THY    HM186371   4.063   0.521   5.522  0.9718 -1.0955 -1.9198
 3455THY    HM286372   4.078   0.350   5.525 -2.0245  0.7731 -0.1447
 3455THY    HM386373   4.071   0.434   5.678 -1.3685  1.1402 -0.6947
 3455THY    CA686374   4.313   0.566   5.524  0.0865 -0.0724 -0.6696
 3455THY    HA686375   4.253   0.650   5.492 -0.2111 -0.4469 -1.1089
 3456THY      O86376   3.783   4.490   4.689  0.1297  0.5967  0.4752
 3456THY     HO86377   3.738   4.404   4.680 -2.5618  1.9396  0.2547
 3456THY    CA186378   3.793   4.525   4.822 -0.8974 -0.3022 -0.5459
 3456THY    CA286379   3.832   4.646   4.873 -0.2687 -0.5385  0.2861
 3456THY    CP186380   3.870   4.756   4.777 -0.6396 -0.6712 -0.7056
 3456THY    HP186381   3.930   4.720   4.692  1.4944  0.8350  0.0604
 3456THY    CP286382   3.749   4.818   4.707 -0.4942 -0.4966  0.5242
 3456THY    HP286383   3.668   4.746   4.691 -0.1780 -0.6239 -0.6200
 3456THY    HP386384   3.718   4.900   4.773 -0.0956  0.0776  0.0130
 3456THY    HP486385   3.783   4.864   4.613  0.5311  1.7100  1.9077
 3456THY    CP386386   3.964   4.868   4.844 -0.5105  0.2241  0.2496
 3456THY    HP586387   4.048   4.832   4.904  0.0046 -0.7568 -1.0447
 3456THY    HP686388   4.000   4.928   4.760  1.5551 -1.5483 -0.2167
 3456THY    HP786389   3.888   4.927   4.898 -1.0528 -1.5209  1.5134
 3456THY    CA386390   3.838   4.668   5.010 -0.4242  0.0307  0.0765
 3456THY    HA386391   3.881   4.755   5.060 -1.8781  0.3263  0.8743
 3456THY    CA486392   3.817   4.565   5.097  0.4325  0.4067  0.4621
 3456THY    HA486393   3.843   4.576   5.202  0.6008  1.3719  0.3283
 3456THY    CA586394   3.763   4.447   5.049 -0.3386 -0.6402 -0.2882
 3456THY    CM186395   3.731   4.328   5.144 -0.8808  0.0042 -0.2483
 3456THY    HM186396   3.714   4.243   5.078 -1.4280 -1.5773  1.8158
 3456THY    HM286397   3.819   4.309   5.207 -2.0141 -0.1291  1.3749
 3456THY    HM386398   3.642   4.346   5.206  0.7529  0.0410  2.2117
 3456THY    CA686399   3.758   4.429   4.914 -0.1754 -0.0242  0.3506
 3456THY    HA686400   3.719   4.335   4.875 -3.1798  1.1709  0.1602
 3457THY      O86401   0.979   7.592   3.959  0.0184 -0.4155  0.2116
 3457THY     HO86402   1.038   7.548   3.895 -1.9125  0.7576 -2.6007
 3457THY    CA186403   0.915   7.489   4.010  0.0093  0.1739  0.9511
 3457THY    CA286404   0.834   7.504   4.130  0.4672 -0.4351 -0.1723
 3457THY    CP186405   0.819   7.639   4.206  0.0999  0.0967  0.0812
 3457THY    HP186406   0.876   7.712   4.148 -1.7200  1.6825  0.1940
 3457THY    CP286407   0.686   7.703   4.201 -0.3154  1.2663  0.1273
 3457THY    HP286408   0.658   7.697   4.095 -0.5277 -3.9037  0.2312
 3457THY    HP386409   0.622   7.656   4.276  1.4609  0.3087  1.1063
 3457THY    HP486410   0.696   7.808   4.233 -2.6921  2.1264 -1.5933
 3457THY    CP386411   0.875   7.635   4.354 -0.0845 -0.1018 -0.1398
 3457THY    HP586412   0.975   7.593   4.363  0.6941  1.9555  1.8945
 3457THY    HP686413   0.889   7.732   4.403 -2.3796  0.0880  0.2560
 3457THY    HP786414   0.818   7.566   4.417  0.4400 -1.2204 -0.8649
 3457THY    CA386415   0.765   7.389   4.186 -0.0761 -0.2064  0.1957
 3457THY    HA386416   0.702   7.406   4.273  1.4016 -0.0641  1.2855
 3457THY    CA486417   0.767   7.270   4.119  0.3008  0.3335  0.1654
 3457THY    HA486418   0.704   7.191   4.159  1.2123  0.2088  1.4286
 3457THY    CA586419   0.846   7.255   4.007  0.1813  1.0581  0.4821
 3457THY    CM186420   0.854   7.115   3.942 -0.4255  0.0563  0.1931
 3457THY    HM186421   0.834   7.028   4.006  0.3275  0.3870  0.8875
 3457THY    HM286422   0.774   7.117   3.866  0.5813  1.5825 -0.8678
 3457THY    HM386423   0.941   7.099   3.878 -1.2124  0.9970 -1.1792
 3457THY    CA686424   0.915   7.365   3.953  0.0663  1.1146  0.2741
 3457THY    HA686425   0.971   7.346   3.862 -1.8656 -2.6920 -0.3586
 3458THY      O86426   6.535   5.629   3.062 -0.0565  0.0472  0.3913
 3458THY     HO86427   6.585   5.557   3.103  3.0025  0.0674 -2.7862
 3458THY    CA186428   6.403   5.622   3.098  0.2759  0.1723 -0.1654
 3458THY    CA286429   6.309   5.708   3.040  0.1697  0.4691 -0.1609
 3458THY    CP186430   6.363   5.809   2.941  0.0354 -0.4293  0.5959
 3458THY    HP186431   6.472   5.819   2.948  0.0958 -0.5700 -0.0355
 3458THY    CP286432   6.333   5.747   2.799 -0.1651 -0.0651  0.0433
 3458THY    HP286433   6.380   5.648   2.796 -1.8748 -0.9912  1.5507
 3458THY    HP386434   6.228   5.735   2.769  1.0689 -2.0146 -4.2133
 3458THY    HP486435   6.398   5.802   2.730  1.3424 -1.1545  0.5500
 3458THY    CP386436   6.300   5.943   2.962  0.2059 -0.3415 -0.5230
 3458THY    HP586437   6.352   6.015   2.898  0.4669 -0.5884 -0.5938
 3458THY    HP686438   6.195   5.941   2.933  0.0534 -1.0991  0.0386
 3458THY    HP786439   6.324   5.968   3.066 -1.8977  0.0249 -0.0950
 3458THY    CA386440   6.172   5.692   3.059  0.2433  0.0340 -0.4289
 3458THY    HA386441   6.096   5.744   3.001 -1.5991 -0.9658  0.9954
 3458THY    CA486442   6.130   5.582   3.151 -0.6980 -0.5875  0.1947
 3458THY    HA486443   6.025   5.575   3.178 -1.0829  1.0460 -0.7674
 3458THY    CA586444   6.227   5.500   3.209 -0.5420 -0.1715 -0.1857
 3458THY    CM186445   6.193   5.373   3.294  0.2140 -0.6731 -0.3395
 3458THY    HM186446   6.193   5.396   3.401 -1.9290 -0.9900 -0.2282
 3458THY    HM286447   6.092   5.332   3.282  0.4918 -1.3603 -0.3856
 3458THY    HM386448   6.273   5.299   3.281  1.1442 -0.0195  1.4467
 3458THY    CA686449   6.366   5.529   3.191  1.1668 -0.1710 -0.5547
 3458THY    HA686450   6.440   5.455   3.218  1.3472 -1.2145 -3.4949
 3459THY      O86451   8.180   6.378   6.168  0.5430  0.4414  0.5949
 3459THY     HO86452   8.215   6.291   6.143 -0.3006 -0.5378  2.6305
 3459THY    CA186453   8.252   6.462   6.098  0.6420 -0.1235 -0.4832
 3459THY    CA286454   8.217   6.590   6.071  0.8216  0.0022 -0.6183
 3459THY    CP186455   8.087   6.655   6.121 -0.4335 -0.2667 -0.0721
 3459THY    HP186456   8.020   6.590   6.179 -0.7581 -0.0076 -0.1557
 3459THY    CP286457   8.116   6.779   6.200  0.7266  0.3327  0.0604
 3459THY    HP286458   8.016   6.821   6.216 -0.3137 -1.6638 -0.7709
 3459THY    HP386459   8.168   6.751   6.292  1.6437 -0.0181 -0.5492
 3459THY    HP486460   8.176   6.847   6.139  0.6067 -0.2750 -0.7602
 3459THY    CP386461   7.994   6.682   6.003 -0.0906  0.3525  0.2863
 3459THY    HP586462   7.898   6.705   6.049 -0.0395 -0.3153  0.7338
 3459THY    HP686463   8.035   6.771   5.953  1.0385  0.4163  1.2811
 3459THY    HP786464   7.983   6.597   5.934  0.5664  1.2729 -0.9998
 3459THY    CA386465   8.298   6.669   5.989 -0.7204 -0.8658  0.9333
 3459THY    HA386466   8.276   6.771   5.957  3.1558 -0.4286 -0.9110
 3459THY    CA486467   8.415   6.616   5.928  0.3531  0.3268 -0.9315
 3459THY    HA486468   8.470   6.680   5.860 -0.7344  1.6215 -0.6423
 3459THY    CA586469   8.452   6.483   5.957  0.2792 -0.6607 -0.0471
 3459THY    CM186470   8.570   6.421   5.893 -1.0364 -0.5328  0.0003
 3459THY    HM186471   8.555   6.317   5.864 -0.2443 -1.1254  1.5929
 3459THY    HM286472   8.609   6.473   5.805 -2.1956  0.1760 -0.1164
 3459THY    HM386473   8.646   6.425   5.972  0.4784  2.4491 -1.4324
 3459THY    CA686474   8.368   6.411   6.044 -0.1221  0.3064  0.3782
 3459THY    HA686475   8.402   6.311   6.071  1.7676  1.0988  1.0666
 3460THY      O86476   7.762   2.919   8.861 -0.0234  0.1812 -0.3895
 3460THY     HO86477   7.791   2.947   8.773 -2.3492 -1.2333 -1.7267
 3460THY    CA186478   7.785   3.015   8.947  0.1551  0.1549 -0.1735
 3460THY    CA286479   7.766   2.989   9.086 -0.4308  0.4234 -0.3582
 3460THY    CP186480   7.733   2.852   9.139 -0.4449 -0.5850 -0.2575
 3460THY    HP186481   7.669   2.807   9.063  2.8461  0.8132 -4.1857
 3460THY    CP286482   7.864   2.767   9.177  1.1584  0.9597  0.9013
 3460THY    HP286483   7.928   2.810   9.255  0.8278 -0.0295  1.7405
 3460THY    HP386484   7.815   2.680   9.221 -1.0124  0.7583 -1.6134
 3460THY    HP486485   7.922   2.737   9.089 -0.9612  0.3452 -0.3670
 3460THY    CP386486   7.649   2.871   9.273  0.6195 -0.5587 -0.1312
 3460THY    HP586487   7.589   2.785   9.306 -4.6895  3.0296  0.8521
 3460THY    HP686488   7.714   2.897   9.357  0.5970 -1.2107  0.0950
 3460THY    HP786489   7.573   2.949   9.261  2.6812  1.4878 -0.5899
 3460THY    CA386490   7.797   3.098   9.169  0.1749  0.5213  0.5144
 3460THY    HA386491   7.780   3.088   9.276 -0.5509 -1.9542  0.2209
 3460THY    CA486492   7.838   3.222   9.112  0.9206 -0.1448 -0.4204
 3460THY    HA486493   7.844   3.310   9.174  1.4543 -1.5033  1.5686
 3460THY    CA586494   7.855   3.238   8.972 -0.1808 -0.4707  0.7721
 3460THY    CM186495   7.879   3.374   8.910  0.1899 -0.2879  0.1406
 3460THY    HM186496   7.931   3.363   8.814 -0.6876 -3.2917 -0.1002
 3460THY    HM286497   7.783   3.423   8.892 -0.3805 -1.5163 -0.3244
 3460THY    HM386498   7.925   3.444   8.981 -0.7336  2.0993 -1.4786
 3460THY    CA686499   7.833   3.131   8.891  0.9218  0.0651 -0.0453
 3460THY    HA686500   7.842   3.146   8.784  0.2410 -0.4024 -0.1718
 3461THY      O86501   6.506   3.820   8.043  0.0677 -0.1086  0.3442
 3461THY     HO86502   6.431   3.777   8.089  0.7260 -0.0363  1.5332
 3461THY    CA186503   6.461   3.884   7.939  0.6092  0.2231  0.0823
 3461THY    CA286504   6.390   4.007   7.951 -0.4153 -0.1988 -0.0739
 3461THY    CP186505   6.372   4.077   8.089  0.0190  0.2530  0.3892
 3461THY    HP186506   6.346   4.000   8.162 -2.2367 -0.5600 -1.1537
 3461THY    CP286507   6.498   4.155   8.135 -0.8768 -0.0536  0.3422
 3461THY    HP286508   6.490   4.263   8.120 -0.2841 -0.1768 -1.0586
 3461THY    HP386509   6.512   4.133   8.242 -0.8223 -4.8567 -0.4281
 3461THY    HP486510   6.592   4.114   8.096 -1.1780  1.1491 -1.8039
 3461THY    CP386511   6.247   4.166   8.103  0.0239 -0.7302 -0.3946
 3461THY    HP586512   6.270   4.258   8.047 -1.5861  0.2155  0.4317
 3461THY    HP686513   6.158   4.111   8.072  0.8473 -1.9574 -0.6714
 3461THY    HP786514   6.224   4.201   8.204 -1.3473 -0.9382 -0.6189
 3461THY    CA386515   6.332   4.060   7.833  0.1626 -0.0120 -0.0749
 3461THY    HA386516   6.276   4.153   7.833  1.4392  0.7827 -0.2139
 3461THY    CA486517   6.336   3.989   7.713  0.2651  0.4648  0.1219
 3461THY    HA486518   6.280   4.017   7.624  0.2620 -0.4556 -0.1822
 3461THY    CA586519   6.404   3.869   7.702  0.8013 -0.6143  0.1708
 3461THY    CM186520   6.424   3.796   7.568 -1.0368 -0.0549  0.0236
 3461THY    HM186521   6.465   3.867   7.495 -1.8802 -0.5357 -0.9474
 3461THY    HM286522   6.505   3.726   7.590 -2.1872 -1.4080  0.0855
 3461THY    HM386523   6.344   3.740   7.519  0.8572 -0.6669 -2.5853
 3461THY    CA686524   6.462   3.814   7.812 -0.5741  0.1757 -0.8167
 3461THY    HA686525   6.511   3.717   7.814  0.3699  0.6295 -1.2304
 3462THY      O86526   3.397   0.263   4.831 -0.1483  0.2908 -0.1692
 3462THY     HO86527   3.361   0.271   4.741 -1.7427  0.0231  0.4044
 3462THY    CA186528   3.391   0.132   4.870 -0.0495 -0.1824 -0.7377
 3462THY    CA286529   3.346   0.097   4.998 -0.1783 -0.0298  0.3346
 3462THY    CP186530   3.307   0.203   5.100 -0.0201 -0.1378 -0.3687
 3462THY    HP186531   3.341   0.302   5.067 -1.7905  0.3266 -0.9380
 3462THY    CP286532   3.152   0.204   5.116 -0.8038 -0.0106 -0.0968
 3462THY    HP286533   3.132   0.278   5.195  0.5218 -0.1293  0.3838
 3462THY    HP386534   3.110   0.229   5.018  2.5957  0.6312 -1.5431
 3462THY    HP486535   3.127   0.104   5.153  0.7101 -0.4717 -0.2517
 3462THY    CP386536   3.369   0.181   5.244 -0.2349 -0.1409 -0.6726
 3462THY    HP586537   3.474   0.161   5.221  0.3123  1.9302 -0.1844
 3462THY    HP686538   3.360   0.270   5.306  0.0021 -1.0045  0.6319
 3462THY    HP786539   3.334   0.097   5.305 -1.9285  1.1600  0.2434
 3462THY    CA386540   3.328  -0.044   5.032  0.2562 -0.6399 -0.2552
 3462THY    HA386541   3.292  -0.075   5.129  1.2660 -0.3261  0.2371
 3462THY    CA486542   3.366  -0.140   4.936 -0.5056 -0.0048 -0.3372
 3462THY    HA486543   3.357  -0.244   4.963  1.8427  0.0884  1.1192
 3462THY    CA586544   3.423  -0.100   4.813 -0.5372 -0.6614 -0.5835
 3462THY    CM186545   3.451  -0.206   4.707 -0.2441 -0.1941  0.0531
 3462THY    HM186546   3.379  -0.224   4.626 -0.6573  0.4869  0.2547
 3462THY    HM286547   3.543  -0.188   4.651 -0.8906 -0.5806 -1.1693
 3462THY    HM386548   3.482  -0.300   4.753 -2.1642 -1.1327 -0.4495
 3462THY    CA686549   3.431   0.036   4.778 -0.4160 -0.5402 -0.0168
 3462THY    HA686550   3.461   0.080   4.683  1.0185 -0.8500  0.2572
 3463THY      O86551   9.387   3.151   6.421  0.2582  0.1500 -0.7088
 3463THY     HO86552   9.330   3.193   6.488 -0.3829  3.3898 -3.0539
 3463THY    CA186553   9.507   3.204   6.455 -0.3834 -0.5571 -0.1497
 3463THY    CA286554   9.621   3.206   6.367  0.2700 -0.1743  0.0583
 3463THY    CP186555   9.602   3.166   6.224 -0.1871  0.2707 -0.1961
 3463THY    HP186556   9.533   3.080   6.218  0.0530  0.1256 -1.1437
 3463THY    CP286557   9.544   3.274   6.139  0.0558 -0.5362  0.5528
 3463THY    HP286558   9.506   3.235   6.044  0.5553  0.3368 -0.0212
 3463THY    HP386559   9.454   3.304   6.194  0.2127  0.1363  0.4539
 3463THY    HP486560   9.608   3.362   6.122 -0.4369 -0.1805  0.5086
 3463THY    CP386561   9.726   3.110   6.153  0.0769  0.3565 -0.6944
 3463THY    HP586562   9.703   3.078   6.051 -0.4002  0.7895 -0.7224
 3463THY    HP686563   9.802   3.189   6.143  1.3381 -0.7289 -0.0048
 3463THY    HP786564   9.768   3.031   6.217 -2.9591 -0.8332 -0.0427
 3463THY    CA386565   9.743   3.241   6.420  0.2444  0.3798  0.1663
 3463THY    HA386566   9.835   3.239   6.361  0.5236 -1.0787  0.5956
 3463THY    CA486567   9.743   3.283   6.554 -0.0775 -0.5039  0.1108
 3463THY    HA486568   9.836   3.318   6.597 -0.6085  0.8935  0.1470
 3463THY    CA586569   9.630   3.278   6.638 -0.7490 -0.4541 -0.7884
 3463THY    CM186570   9.642   3.321   6.788  0.5733 -0.1954 -0.4551
 3463THY    HM186571   9.585   3.413   6.801 -1.0750 -1.3121  0.7834
 3463THY    HM286572   9.579   3.247   6.840  2.8175 -0.9836  1.2725
 3463THY    HM386573   9.742   3.323   6.833 -0.2435 -1.8592  1.6177
 3463THY    CA686574   9.516   3.246   6.585  0.6412  0.7164  0.4777
 3463THY    HA686575   9.428   3.243   6.649 -0.4118  2.2808 -0.8222
 3464THY      O86576   6.921   9.054   5.541  0.6088 -0.4343  0.5385
 3464THY     HO86577   6.995   9.021   5.487  0.3220 -1.8124  0.9607
 3464THY    CA186578   6.846   8.947   5.571  0.0505 -0.6783 -0.4296
 3464THY    CA286579   6.791   8.940   5.702 -0.1954  0.0539 -0.0848
 3464THY    CP186580   6.825   9.031   5.815 -0.3396 -0.5515 -0.9188
 3464THY    HP186581   6.879   9.121   5.780  1.6623 -1.8813 -1.4363
 3464THY    CP286582   6.701   9.082   5.884  0.0082 -0.0994 -0.0957
 3464THY    HP286583   6.635   9.129   5.810 -0.9306 -2.1739 -0.6571
 3464THY    HP386584   6.646   9.008   5.944  1.2778 -0.1785  1.0104
 3464THY    HP486585   6.736   9.152   5.960 -0.3845  0.3242 -0.3022
 3464THY    CP386586   6.925   8.961   5.910 -0.4755  0.1834  0.1205
 3464THY    HP586587   6.867   8.894   5.974 -1.7639  2.0829  1.0496
 3464THY    HP686588   6.998   8.919   5.840  0.9049  2.5441  0.0297
 3464THY    HP786589   6.969   9.040   5.972  0.5167 -0.5806  0.4186
 3464THY    CA386590   6.702   8.834   5.724 -0.1987 -0.2936 -0.0290
 3464THY    HA386591   6.664   8.816   5.824  0.3338 -0.3245  0.1721
 3464THY    CA486592   6.672   8.745   5.623 -0.0011 -0.7987  0.9366
 3464THY    HA486593   6.596   8.668   5.630  1.1997 -1.9936  1.2147
 3464THY    CA586594   6.740   8.757   5.495  0.0524  0.2422  0.3025
 3464THY    CM186595   6.707   8.654   5.390  0.4659 -0.1214  0.2654
 3464THY    HM186596   6.612   8.601   5.407  0.2180 -0.2626 -1.3453
 3464THY    HM286597   6.692   8.700   5.292  0.9801  1.1935  0.7837
 3464THY    HM386598   6.782   8.574   5.384 -0.2535 -0.8546  0.8128
 3464THY    CA686599   6.828   8.859   5.468  0.2649 -0.3966 -0.1845
 3464THY    HA686600   6.865   8.869   5.366 -0.7620 -2.1872 -0.7850
 3465THY      O86601   3.236   4.863   5.608  0.8661  0.2279  0.1587
 3465THY     HO86602   3.257   4.875   5.702  2.2839 -1.4554  0.1216
 3465THY    CA186603   3.138   4.954   5.579 -0.2004  1.3474  0.1635
 3465THY    CA286604   3.093   4.961   5.450  0.0194 -0.3938  0.1463
 3465THY    CP186605   3.150   4.882   5.338  0.3529  0.4617  0.5544
 3465THY    HP186606   3.193   4.785   5.367 -0.2509 -0.7849 -2.3024
 3465THY    CP286607   3.043   4.824   5.241 -0.7057 -0.2471  0.1359
 3465THY    HP286608   2.983   4.901   5.192 -0.7717  0.4551  1.2663
 3465THY    HP386609   3.087   4.770   5.157 -0.8118  1.8519 -1.3615
 3465THY    HP486610   2.970   4.759   5.289 -0.0346 -1.8265 -0.9210
 3465THY    CP386611   3.249   4.967   5.259 -0.3553 -0.8057 -0.9966
 3465THY    HP586612   3.312   4.920   5.183 -0.7030 -1.0426 -1.1415
 3465THY    HP686613   3.198   5.055   5.218  0.9011 -1.4937 -4.3003
 3465THY    HP786614   3.314   5.014   5.334  1.6495  0.6978 -3.4879
 3465THY    CA386615   2.989   5.048   5.428 -0.3062  0.2517  0.3195
 3465THY    HA386616   2.970   5.076   5.325 -1.2355 -0.7507  0.1971
 3465THY    CA486617   2.928   5.119   5.532 -0.1183  0.1463 -0.5685
 3465THY    HA486618   2.850   5.184   5.494  0.6740  1.1350 -0.5419
 3465THY    CA586619   2.965   5.087   5.665  0.4470  0.1633 -0.0277
 3465THY    CM186620   2.886   5.134   5.784  0.6820  0.5836 -0.2248
 3465THY    HM186621   2.779   5.136   5.760  0.3202 -4.9972 -0.4656
 3465THY    HM286622   2.908   5.068   5.869  1.6217  3.3197  1.7888
 3465THY    HM386623   2.917   5.233   5.819  0.4663  0.4056  0.4984
 3465THY    CA686624   3.055   4.987   5.685 -0.5851  0.1051  0.4200
 3465THY    HA686625   3.067   4.953   5.787  3.6358  0.8369  0.3591
 3466THY      O86626   2.191   5.633   8.707  0.0177  0.2660  0.3683
 3466THY     HO86627   2.260   5.644   8.638 -0.1332 -1.4087 -0.0794
 3466THY    CA186628   2.093   5.589   8.629 -0.0105 -0.0512 -0.4061
 3466THY    CA286629   1.964   5.555   8.685  0.5143  0.2923 -0.4091
 3466THY    CP186630   1.938   5.543   8.837  0.3516  0.9531  0.1973
 3466THY    HP186631   2.029   5.562   8.896 -0.4033  2.0644  1.0538
 3466THY    CP286632   1.839   5.644   8.889 -0.5581 -0.3116  0.9485
 3466THY    HP286633   1.868   5.738   8.842  0.5195 -0.7258  0.7452
 3466THY    HP386634   1.741   5.625   8.845 -0.2410 -0.7062  0.4098
 3466THY    HP486635   1.833   5.656   8.998  1.5114  1.7026  0.9319
 3466THY    CP386636   1.899   5.405   8.889 -1.1419 -0.1107 -0.0304
 3466THY    HP586637   1.865   5.421   8.992  2.1389  1.2451  0.9890
 3466THY    HP686638   1.812   5.364   8.838 -0.7372  1.2308 -1.9365
 3466THY    HP786639   1.978   5.329   8.883 -1.6739 -0.6759  0.1026
 3466THY    CA386640   1.857   5.538   8.598  0.3857 -0.5044 -0.4340
 3466THY    HA386641   1.757   5.513   8.631 -0.0104  0.3530 -0.9710
 3466THY    CA486642   1.874   5.552   8.460 -0.0045  0.2594 -0.5001
 3466THY    HA486643   1.788   5.550   8.393 -1.0875  1.6715  0.7658
 3466THY    CA586644   1.999   5.580   8.404  0.1307 -0.4517 -0.6747
 3466THY    CM186645   2.006   5.589   8.260 -0.6622  0.1201 -0.8011
 3466THY    HM186646   2.103   5.593   8.210 -0.7473 -0.1169 -0.9895
 3466THY    HM286647   1.964   5.496   8.218 -0.0146  0.9270 -3.3909
 3466THY    HM386648   1.947   5.667   8.212 -0.8536 -0.7790 -2.0711
 3466THY    CA686649   2.112   5.592   8.486 -0.4830 -0.3183  0.3882
 3466THY    HA686650   2.203   5.624   8.435 -2.1240  0.7336 -2.0449
 3467THY      O86651   5.073   2.453   0.972  0.4000 -0.7685  0.1733
 3467THY     HO86652   5.005   2.386   0.989 -2.8972  1.1896 -3.7301
 3467THY    CA186653   5.174   2.435   1.050 -0.5148 -0.6928 -0.3542
 3467THY    CA286654   5.310   2.478   1.013 -0.0527 -0.3803 -0.0952
 3467THY    CP186655   5.335   2.541   0.871 -0.3262 -0.2864 -0.2803
 3467THY    HP186656   5.235   2.569   0.834 -0.4646 -0.0841  0.2347
 3467THY    CP286657   5.434   2.657   0.881  0.2847 -0.1668  0.1362
 3467THY    HP286658   5.419   2.715   0.972  2.1871  0.9646 -0.2277
 3467THY    HP386659   5.532   2.608   0.877  0.1100 -0.7332  1.8196
 3467THY    HP486660   5.413   2.720   0.794 -0.2395 -0.7134 -0.1392
 3467THY    CP386661   5.389   2.440   0.779  0.5142  0.8380 -0.1788
 3467THY    HP586662   5.490   2.414   0.812  0.6354  0.9518 -0.4606
 3467THY    HP686663   5.329   2.348   0.775  0.8526  0.5453  0.9716
 3467THY    HP786664   5.392   2.484   0.679  1.8220  1.3970  0.0901
 3467THY    CA386665   5.406   2.489   1.116  0.6723  0.1618  0.8778
 3467THY    HA386666   5.504   2.533   1.099 -0.6990  2.9592 -0.3599
 3467THY    CA486667   5.366   2.446   1.250 -0.4006  0.4197  0.3743
 3467THY    HA486668   5.426   2.476   1.335 -2.5649  1.2065  1.7068
 3467THY    CA586669   5.243   2.390   1.279  0.4126 -0.0415  0.0636
 3467THY    CM186670   5.209   2.363   1.429 -0.4423  0.5912  0.4042
 3467THY    HM186671   5.120   2.300   1.429  2.3952 -3.9172 -1.9676
 3467THY    HM286672   5.290   2.312   1.484 -2.7556  0.7255  4.3674
 3467THY    HM386673   5.185   2.461   1.472  1.2559  1.2619 -0.0804
 3467THY    CA686674   5.142   2.392   1.183 -0.2050 -0.6528 -0.4280
 3467THY    HA686675   5.037   2.393   1.210  0.1296 -1.7594  1.0527
 3468THY      O86676   0.075   4.965   9.303  0.2334  0.1810  0.5426
 3468THY     HO86677   0.045   5.057   9.305 -0.6165 -0.0963  1.2144
 3468THY    CA186678  -0.035   4.886   9.329 -0.0154  0.0255 -0.2415
 3468THY    CA286679  -0.030   4.756   9.371 -0.2526 -0.2234 -0.1103
 3468THY    CP186680   0.112   4.689   9.397 -0.4106 -0.0791  0.0504
 3468THY    HP186681   0.183   4.734   9.327 -0.7716  2.4454  1.2201
 3468THY    CP286682   0.166   4.705   9.539  0.5318  0.4950 -0.8094
 3468THY    HP286683   0.203   4.803   9.572 -1.8832  1.0465  0.4833
 3468THY    HP386684   0.086   4.677   9.608  3.4750 -1.7855  1.9701
 3468THY    HP486685   0.236   4.625   9.567  0.5333  1.0181  0.7678
 3468THY    CP386686   0.112   4.533   9.369  0.4890  0.4234 -0.0068
 3468THY    HP586687   0.052   4.483   9.445 -2.6010  2.1525 -1.1355
 3468THY    HP686688   0.072   4.506   9.270  0.1548  1.2359 -0.0999
 3468THY    HP786689   0.214   4.494   9.362  0.3589  0.3164 -2.1619
 3468THY    CA386690  -0.147   4.685   9.387 -0.0122  0.0138  0.6328
 3468THY    HA386691  -0.149   4.581   9.418 -1.3930 -0.5157 -1.0431
 3468THY    CA486692  -0.265   4.750   9.372 -0.9598  0.4850  0.0343
 3468THY    HA486693  -0.345   4.679   9.388  0.1704 -1.5532 -2.6641
 3468THY    CA586694  -0.284   4.883   9.334 -0.8533 -0.4001  0.5688
 3468THY    CM186695  -0.414   4.939   9.297 -0.3560 -0.1246  0.1868
 3468THY    HM186696  -0.420   4.952   9.188  1.7299  1.2971  0.1796
 3468THY    HM286697  -0.502   4.883   9.331 -0.9836 -0.3491 -1.6843
 3468THY    HM386698  -0.430   5.039   9.339  1.3165  0.0677  0.4388
 3468THY    CA686699  -0.160   4.951   9.309 -0.3493 -0.0524  0.3446
 3468THY    HA686700  -0.160   5.053   9.270  0.6370 -0.3634 -0.5360
 3469THY      O86701   7.333   0.386   9.751  0.1715  0.2015  0.1458
 3469THY     HO86702   7.361   0.314   9.692  0.5134  1.0808 -0.8054
 3469THY    CA186703   7.196   0.381   9.750  0.4379 -0.0290  0.3185
 3469THY    CA286704   7.123   0.464   9.837  0.3344  0.4936  0.1570
 3469THY    CP186705   7.195   0.579   9.912 -0.3371  0.2996  0.3521
 3469THY    HP186706   7.297   0.602   9.882 -0.7898  0.3681 -1.2037
 3469THY    CP286707   7.116   0.711   9.878 -0.2355  0.1012 -0.4546
 3469THY    HP286708   7.110   0.711   9.769 -0.5073 -1.8997 -0.4772
 3469THY    HP386709   7.018   0.713   9.927  0.7842 -0.5977  1.7552
 3469THY    HP486710   7.176   0.793   9.921 -1.8465  1.7225 -1.1773
 3469THY    CP386711   7.200   0.550  10.064  0.0175 -0.5651  0.1754
 3469THY    HP586712   7.290   0.493  10.089  0.7652 -0.3616 -1.9132
 3469THY    HP686713   7.199   0.646  10.118  0.3727  0.5587 -1.7271
 3469THY    HP786714   7.117   0.489  10.103  0.0832 -1.7137 -1.3693
 3469THY    CA386715   6.988   0.440   9.845  0.4590 -0.1235 -0.2498
 3469THY    HA386716   6.927   0.508   9.905 -0.9150  1.1153 -2.8671
 3469THY    CA486717   6.919   0.344   9.770 -0.2603  0.6729 -0.3434
 3469THY    HA486718   6.811   0.342   9.776 -0.2561  2.3262  0.9341
 3469THY    CA586719   6.992   0.258   9.679 -0.2296  0.6923 -0.1953
 3469THY    CM186720   6.927   0.135   9.613  0.5067  1.1876  0.1851
 3469THY    HM186721   6.996   0.063   9.567  1.3024  2.9307 -1.4981
 3469THY    HM286722   6.859   0.077   9.676  0.0825  1.6099  0.1176
 3469THY    HM386723   6.861   0.173   9.535 -0.0401 -0.8055 -0.3923
 3469THY    CA686724   7.128   0.279   9.679 -0.2500 -0.8528 -0.1380
 3469THY    HA686725   7.175   0.205   9.615 -0.3287 -2.6839  1.8072
 3470THY      O86726   7.217   0.883   6.123  0.1441 -0.6405 -0.1153
 3470THY     HO86727   7.133   0.869   6.076 -0.5250  0.7523  0.5732
 3470THY    CA186728   7.244   1.012   6.090 -0.7079 -0.1163  0.8412
 3470THY    CA286729   7.346   1.087   6.152  0.3629 -0.1757 -0.0124
 3470THY    CP186730   7.418   1.022   6.275  0.3065 -0.0970  1.3745
 3470THY    HP186731   7.350   0.940   6.299  0.2596 -0.3061  0.5625
 3470THY    CP286732   7.563   0.982   6.243  0.4970  0.4065  0.1282
 3470THY    HP286733   7.610   0.946   6.335  0.4328 -0.6375 -0.2321
 3470THY    HP386734   7.559   0.901   6.169 -0.4779  1.6056 -1.2083
 3470THY    HP486735   7.627   1.068   6.220  0.1476  1.6464  3.2670
 3470THY    CP386736   7.413   1.109   6.402 -0.0099 -0.2743 -0.3798
 3470THY    HP586737   7.311   1.126   6.439 -0.2137 -0.1654 -0.9723
 3470THY    HP686738   7.486   1.072   6.474 -1.3896 -0.2211  1.1087
 3470THY    HP786739   7.450   1.209   6.376 -1.0805  0.9408  2.3413
 3470THY    CA386740   7.365   1.220   6.109  0.0700 -0.8265  0.3279
 3470THY    HA386741   7.436   1.291   6.151 -1.3363  0.5336  0.4767
 3470THY    CA486742   7.284   1.269   6.004  0.6228  0.4891 -0.2521
 3470THY    HA486743   7.310   1.368   5.967  1.0984  0.7716  0.7950
 3470THY    CA586744   7.187   1.193   5.942 -0.3348 -0.2639 -0.6838
 3470THY    CM186745   7.110   1.249   5.828  0.7867  0.0243 -0.3819
 3470THY    HM186746   7.111   1.358   5.839 -1.6320 -0.0838  1.7465
 3470THY    HM286747   7.149   1.220   5.730 -0.6682  3.2958 -2.1005
 3470THY    HM386748   7.007   1.213   5.817  0.4733  0.5339  0.7709
 3470THY    CA686749   7.175   1.063   5.985  0.0435 -0.0966  0.0617
 3470THY    HA686750   7.105   1.000   5.932  0.2987 -0.1231 -0.2412
 3471THY      O86751   8.966   0.722   3.069  0.0086 -0.4781  0.3141
 3471THY     HO86752   9.007   0.782   3.134 -1.2979  0.3368  0.4181
 3471THY    CA186753   8.896   0.812   2.991 -0.5827  0.1685 -0.6021
 3471THY    CA286754   8.826   0.773   2.878  0.6931  0.4253 -0.2495
 3471THY    CP186755   8.821   0.619   2.846 -0.4718 -0.1063 -0.3931
 3471THY    HP186756   8.851   0.559   2.932 -2.4913 -0.7585 -0.0995
 3471THY    CP286757   8.676   0.570   2.811 -0.2384 -0.3812  0.3476
 3471THY    HP286758   8.594   0.614   2.869 -1.0291  1.0222 -1.7167
 3471THY    HP386759   8.659   0.601   2.708  2.0588 -1.9403 -0.5814
 3471THY    HP486760   8.669   0.461   2.817  0.1491 -0.6302 -2.6090
 3471THY    CP386761   8.907   0.581   2.729  0.7937 -0.4973  0.1495
 3471THY    HP586762   8.871   0.643   2.646 -0.4759  1.3350  1.9667
 3471THY    HP686763   9.012   0.607   2.745  1.2703 -0.7408 -2.2443
 3471THY    HP786764   8.889   0.479   2.692 -0.9874 -0.3047  0.3742
 3471THY    CA386765   8.773   0.864   2.789  0.1095 -0.6280 -0.2314
 3471THY    HA386766   8.720   0.840   2.698  0.7816  1.2234 -1.1611
 3471THY    CA486767   8.801   1.001   2.815  0.2781 -0.5204 -0.7603
 3471THY    HA486768   8.777   1.083   2.748  0.2403  0.7255  0.7260
 3471THY    CA586769   8.869   1.037   2.923 -0.3019 -0.0717 -0.1169
 3471THY    CM186770   8.905   1.182   2.945 -0.1908  0.4139  0.2672
 3471THY    HM186771   9.003   1.203   2.900 -0.3340  0.7144  0.0881
 3471THY    HM286772   8.824   1.242   2.901 -0.2261 -0.6342 -1.1852
 3471THY    HM386773   8.906   1.204   3.052  1.6016  0.7782  0.2104
 3471THY    CA686774   8.918   0.946   3.018  0.7440  0.2239  0.0559
 3471THY    HA686775   8.972   0.977   3.107 -3.0156  0.0980  2.5835
 3472THY      O86776   9.438   6.484   5.256 -0.5158 -0.2660  0.7769
 3472THY     HO86777   9.449   6.477   5.352 -0.0026 -0.1272  0.7316
 3472THY    CA186778   9.556   6.507   5.201 -0.3767 -0.6181  0.0144
 3472THY    CA286779   9.581   6.524   5.062 -0.2480  0.6207 -0.2003
 3472THY    CP186780   9.457   6.517   4.966  0.6238 -0.2286  0.7463
 3472THY    HP186781   9.370   6.549   5.024 -0.7341 -0.4601 -1.0771
 3472THY    CP286782   9.458   6.630   4.856  0.3834 -0.7184  0.2199
 3472THY    HP286783   9.358   6.632   4.812  0.7854 -0.6804 -0.7209
 3472THY    HP386784   9.478   6.726   4.905  0.4467 -0.6429  0.0441
 3472THY    HP486785   9.532   6.605   4.779  1.3494  0.9265  0.5584
 3472THY    CP386786   9.445   6.369   4.916 -0.1079  0.2553  0.3485
 3472THY    HP586787   9.439   6.284   4.985 -3.9479  0.8289  0.9315
 3472THY    HP686788   9.361   6.362   4.846  0.0291  2.8902 -0.1799
 3472THY    HP786789   9.532   6.344   4.854 -0.2750  0.2659  0.1078
 3472THY    CA386790   9.710   6.547   5.019 -0.0855 -0.0597 -0.5699
 3472THY    HA386791   9.727   6.554   4.912  0.4750 -1.6168 -0.6094
 3472THY    CA486792   9.816   6.557   5.104  0.4294 -0.3600 -0.3854
 3472THY    HA486793   9.915   6.582   5.065  1.0980 -1.8123  0.3056
 3472THY    CA586794   9.794   6.559   5.243  0.2399  0.5954 -0.5906
 3472THY    CM186795   9.913   6.563   5.334 -0.4690  0.2220  0.8655
 3472THY    HM186796   9.898   6.630   5.419 -0.8269  0.3352  0.7167
 3472THY    HM286797   9.949   6.465   5.369 -2.1423 -0.3208  1.1632
 3472THY    HM386798   9.991   6.620   5.282  0.5685 -1.8259  0.0483
 3472THY    CA686799   9.657   6.532   5.289 -0.7401  0.7129 -0.0796
 3472THY    HA686800   9.647   6.534   5.397 -1.6337 -1.3800 -0.0670
 3473THY      O86801   4.269   0.307   7.887 -0.7050  0.1234  0.3284
 3473THY     HO86802   4.177   0.303   7.854 -0.8239 -3.5303  0.7355
 3473THY    CA186803   4.256   0.338   8.018  0.1035  0.7411  0.7432
 3473THY    CA286804   4.354   0.306   8.109  0.0632  0.8626 -0.2696
 3473THY    CP186805   4.486   0.237   8.064  0.0522 -0.0766 -0.4026
 3473THY    HP186806   4.463   0.190   7.967 -2.1979  0.3241 -0.1123
 3473THY    CP286807   4.599   0.334   8.037  0.0220  0.1454  0.1002
 3473THY    HP286808   4.644   0.383   8.125 -0.9808  3.1636 -0.9334
 3473THY    HP386809   4.673   0.289   7.970  1.1598  2.3653 -0.2264
 3473THY    HP486810   4.559   0.426   7.992 -1.2234 -1.2807 -1.8302
 3473THY    CP386811   4.533   0.127   8.153  0.0790  0.9936  0.1860
 3473THY    HP586812   4.443   0.068   8.169  0.0271  0.9942 -0.0893
 3473THY    HP686813   4.602   0.060   8.100 -0.9563 -0.5136  0.6908
 3473THY    HP786814   4.557   0.158   8.255 -1.5157 -0.8972  1.1976
 3473THY    CA386815   4.332   0.325   8.248 -0.4705  0.2590 -0.5103
 3473THY    HA386816   4.406   0.304   8.325 -0.5994 -0.2579 -0.5213
 3473THY    CA486817   4.211   0.386   8.287 -0.5583  0.2954  0.8420
 3473THY    HA486818   4.191   0.423   8.387 -1.9008  1.7260  0.0833
 3473THY    CA586819   4.110   0.400   8.191 -0.0625  0.4184 -0.0395
 3473THY    CM186820   3.985   0.476   8.225  0.6561 -0.4717  0.1356
 3473THY    HM186821   3.909   0.463   8.147 -0.8669  1.6830  1.1543
 3473THY    HM286822   3.942   0.440   8.319 -0.3196  0.0581 -0.0912
 3473THY    HM386823   3.999   0.584   8.234  1.8871 -0.7095  1.2490
 3473THY    CA686824   4.130   0.378   8.054 -0.5028  0.8979  0.3587
 3473THY    HA686825   4.061   0.385   7.970 -0.5317 -0.0852  0.2815
 3474THY      O86826   6.130   5.339   8.349 -0.7800  0.0897 -0.7060
 3474THY     HO86827   6.069   5.401   8.393  2.0694  1.8739  1.0627
 3474THY    CA186828   6.189   5.414   8.250  0.0838 -0.1643  0.2164
 3474THY    CA286829   6.311   5.374   8.202 -0.3404 -0.2419 -0.8250
 3474THY    CP186830   6.379   5.238   8.255 -0.2014 -0.3889  0.6054
 3474THY    HP186831   6.355   5.223   8.361 -0.3096 -2.3760  0.3355
 3474THY    CP286832   6.339   5.124   8.160  0.2069  0.2611  0.1278
 3474THY    HP286833   6.387   5.033   8.197  0.1149 -0.3021 -1.1068
 3474THY    HP386834   6.230   5.118   8.153  0.1393  0.4850  0.8356
 3474THY    HP486835   6.369   5.140   8.056  1.1562 -1.2703  0.1339
 3474THY    CP386836   6.529   5.256   8.278  0.2675  0.1786  0.9139
 3474THY    HP586837   6.574   5.169   8.328 -1.0256 -1.2663 -0.3373
 3474THY    HP686838   6.567   5.260   8.175 -0.9796 -0.7731  0.3931
 3474THY    HP786839   6.557   5.346   8.332 -0.5072 -0.2322  2.0289
 3474THY    CA386840   6.371   5.454   8.103 -0.6731  0.4826  0.4478
 3474THY    HA386841   6.469   5.429   8.064 -0.5714 -0.2974  1.1799
 3474THY    CA486842   6.311   5.571   8.062  0.8997  0.0233  0.1608
 3474THY    HA486843   6.366   5.627   7.987  1.4358 -1.1099 -0.3209
 3474THY    CA586844   6.181   5.613   8.110 -0.6764 -0.0721  0.0789
 3474THY    CM186845   6.117   5.743   8.057  0.0994 -0.3265  0.5429
 3474THY    HM186846   6.171   5.829   8.098 -0.7717  0.2323  0.5352
 3474THY    HM286847   6.119   5.757   7.948 -0.3714  1.4994  0.7455
 3474THY    HM386848   6.012   5.735   8.088 -0.8480  0.5212 -2.1970
 3474THY    CA686849   6.122   5.532   8.205 -1.3259  0.1304 -0.5343
 3474THY    HA686850   6.026   5.557   8.249 -2.0150  0.9170 -2.3807
 3475THY      O86851   5.486   0.170   8.252 -0.3397 -0.0816 -0.2189
 3475THY     HO86852   5.521   0.146   8.339  2.7923  0.8022 -1.1201
 3475THY    CA186853   5.538   0.291   8.235  0.2264 -0.0072  0.3167
 3475THY    CA286854   5.513   0.354   8.118  0.1004  0.1981  0.3134
 3475THY    CP186855   5.405   0.294   8.012 -0.8274 -0.3549 -0.5510
 3475THY    HP186856   5.404   0.186   7.994  0.2542 -0.2076 -1.5938
 3475THY    CP286857   5.260   0.326   8.061  0.3902 -0.6554  0.6595
 3475THY    HP286858   5.208   0.398   7.997 -1.3835 -1.4638  1.1157
 3475THY    HP386859   5.195   0.238   8.055 -0.0386 -0.4419  1.9374
 3475THY    HP486860   5.254   0.361   8.165  0.3570  0.3660  0.3279
 3475THY    CP386861   5.435   0.344   7.869 -0.2045 -0.6988  0.5144
 3475THY    HP586862   5.424   0.450   7.845 -0.6665 -1.0661 -1.0333
 3475THY    HP686863   5.542   0.337   7.844  0.0659 -2.0016  1.8647
 3475THY    HP786864   5.372   0.291   7.797  0.9304 -1.0927 -0.2319
 3475THY    CA386865   5.564   0.492   8.108  0.0132  0.3086  0.2835
 3475THY    HA386866   5.544   0.549   8.018 -2.3195 -1.1491 -0.2262
 3475THY    CA486867   5.651   0.548   8.205  0.4810  0.0615 -0.1445
 3475THY    HA486868   5.693   0.648   8.212  0.8162 -0.1843  2.1803
 3475THY    CA586869   5.676   0.475   8.317 -0.2878 -0.3343 -0.0699
 3475THY    CM186870   5.773   0.538   8.420 -0.0946  0.2980  0.3040
 3475THY    HM186871   5.725   0.625   8.465  2.1088  2.1181 -0.6995
 3475THY    HM286872   5.791   0.469   8.504 -0.2146 -5.1582 -3.5726
 3475THY    HM386873   5.872   0.556   8.377 -0.7974  2.3023 -0.5801
 3475THY    CA686874   5.628   0.346   8.330  0.4223  0.0496  0.6596
 3475THY    HA686875   5.654   0.303   8.426 -2.3581  1.1629  2.0502
 3476THY      O86876   1.950   0.808   8.091 -0.1877 -0.3671 -0.2347
 3476THY     HO86877   1.947   0.901   8.064  1.9972 -0.0956  0.2686
 3476THY    CA186878   1.837   0.765   8.153 -0.7962  0.0390  0.9838
 3476THY    CA286879   1.826   0.630   8.188 -0.2979  0.2917 -0.0115
 3476THY    CP186880   1.933   0.530   8.144 -0.7152  0.0911  0.1370
 3476THY    HP186881   2.029   0.583   8.139 -0.2964 -0.7097 -0.5761
 3476THY    CP286882   1.949   0.417   8.242  0.2246 -0.2666 -0.5649
 3476THY    HP286883   2.055   0.388   8.243 -0.2260 -2.0376  0.3538
 3476THY    HP386884   1.926   0.447   8.345  1.0946  2.1300 -0.9982
 3476THY    HP486885   1.889   0.330   8.215 -1.4556  0.7249 -0.1410
 3476THY    CP386886   1.902   0.469   8.000 -0.3152  0.1955  0.0465
 3476THY    HP586887   1.821   0.397   7.989  1.2088 -1.6681  0.5327
 3476THY    HP686888   1.894   0.551   7.927  2.7323  0.1037 -0.5159
 3476THY    HP786889   1.988   0.419   7.955 -2.1838 -1.6972 -1.6449
 3476THY    CA386890   1.698   0.582   8.237 -0.3841 -0.5406 -0.5514
 3476THY    HA386891   1.685   0.476   8.257  1.4379 -1.0924 -1.9789
 3476THY    CA486892   1.596   0.676   8.252 -0.0468  0.7616  0.2928
 3476THY    HA486893   1.493   0.645   8.273  0.4795 -0.9631  0.5329
 3476THY    CA586894   1.610   0.808   8.208 -0.1707 -0.1927  0.3458
 3476THY    CM186895   1.488   0.903   8.204 -0.4099  0.5204  0.3166
 3476THY    HM186896   1.506   1.000   8.252 -0.9026  0.2415  1.0681
 3476THY    HM286897   1.448   0.918   8.103 -0.6986 -1.6934  0.0553
 3476THY    HM386898   1.404   0.859   8.258  0.4162 -2.7658 -0.8465
 3476THY    CA686899   1.733   0.849   8.163 -0.1926 -0.0000 -0.0855
 3476THY    HA686900   1.748   0.952   8.133  1.8270 -0.1669  0.2163
 3477THY      O86901   2.064   0.533   3.417  0.3087  0.3287 -0.0284
 3477THY     HO86902   2.159   0.513   3.403  0.1311  0.1821 -1.0715
 3477THY    CA186903   2.034   0.558   3.548 -0.4844  0.0506 -0.3942
 3477THY    CA286904   1.904   0.566   3.593 -0.5769  0.0268 -0.0865
 3477THY    CP186905   1.782   0.549   3.501 -0.1490 -0.4201  0.3242
 3477THY    HP186906   1.791   0.456   3.443  0.1372 -0.2873  0.1543
 3477THY    CP286907   1.654   0.523   3.580  0.0973 -0.2905  0.1893
 3477THY    HP286908   1.672   0.440   3.649 -2.0511  0.4049  1.6893
 3477THY    HP386909   1.616   0.612   3.630  2.0112  0.9046 -0.3511
 3477THY    HP486910   1.573   0.495   3.512  1.8790  0.1872 -2.2950
 3477THY    CP386911   1.764   0.663   3.397 -0.6766  0.0159 -0.6263
 3477THY    HP586912   1.679   0.642   3.330 -1.2536  0.3151  0.0074
 3477THY    HP686913   1.744   0.756   3.452  1.5458 -0.1241  0.5257
 3477THY    HP786914   1.851   0.672   3.331  0.6187 -0.4141  0.9690
 3477THY    CA386915   1.884   0.585   3.732 -0.3548 -0.0741  0.4205
 3477THY    HA386916   1.786   0.573   3.779 -1.4725  1.4841 -1.3482
 3477THY    CA486917   1.989   0.609   3.815  0.4823 -0.3002 -0.0197
 3477THY    HA486918   1.972   0.629   3.920 -1.5488 -1.7875  0.0014
 3477THY    CA586919   2.120   0.613   3.762  0.0302 -0.5811 -0.5432
 3477THY    CM186920   2.246   0.638   3.846  0.2726 -0.1565 -0.1757
 3477THY    HM186921   2.313   0.704   3.789  0.5547 -0.5675 -0.3221
 3477THY    HM286922   2.226   0.685   3.943  0.6454  3.5411 -1.7209
 3477THY    HM386923   2.282   0.537   3.865  0.2995 -0.4104 -1.5049
 3477THY    CA686924   2.147   0.586   3.626  0.0458 -0.2167  0.0321
 3477THY    HA686925   2.243   0.563   3.582  0.0695  2.5089 -1.5680
 3478THY      O86926   1.309   6.712   6.386 -0.4904 -0.5127  0.4413
 3478THY     HO86927   1.257   6.722   6.467 -1.0879  0.1110  0.0018
 3478THY    CA186928   1.226   6.722   6.276  0.5588  0.3986  0.2257
 3478THY    CA286929   1.250   6.667   6.149  0.3643 -0.2232  0.7445
 3478THY    CP186930   1.379   6.600   6.126 -0.5098 -0.0144  0.0992
 3478THY    HP186931   1.431   6.588   6.222 -1.6827 -1.3979  0.5916
 3478THY    CP286932   1.361   6.453   6.086 -0.3490 -0.5301  0.2518
 3478THY    HP286933   1.296   6.450   5.997 -2.6830  0.0083  1.8375
 3478THY    HP386934   1.452   6.412   6.043 -0.9574 -0.3421 -1.3073
 3478THY    HP486935   1.310   6.401   6.167 -1.7707  0.3264 -0.0415
 3478THY    CP386936   1.467   6.683   6.037 -0.1257  0.6753  0.7442
 3478THY    HP586937   1.510   6.770   6.087 -0.4008  0.2790  1.6895
 3478THY    HP686938   1.549   6.622   5.998  0.4848  0.5963  2.1159
 3478THY    HP786939   1.415   6.723   5.948  0.7564  1.3566  0.5260
 3478THY    CA386940   1.157   6.675   6.043 -0.9129 -0.3472 -0.0973
 3478THY    HA386941   1.177   6.621   5.951  1.4917 -1.2335  0.8822
 3478THY    CA486942   1.036   6.753   6.058  0.0220  0.8335 -0.1308
 3478THY    HA486943   0.966   6.768   5.975 -1.6586 -2.8818  0.4282
 3478THY    CA586944   1.013   6.813   6.184  0.6856  0.6185  0.1521
 3478THY    CM186945   0.896   6.902   6.202  0.6246  0.2600 -0.3741
 3478THY    HM186946   0.927   7.006   6.187  2.0567 -0.1470 -0.3795
 3478THY    HM286947   0.818   6.883   6.128  1.0993  1.5166 -1.2355
 3478THY    HM386948   0.845   6.896   6.299 -0.2870 -0.5171 -0.8913
 3478THY    CA686949   1.106   6.798   6.291 -0.2061  0.3550  0.2340
 3478THY    HA686950   1.093   6.858   6.380 -0.6640 -1.4925  1.4841
 3479THY      O86951   3.736   0.610   1.049 -0.0574 -0.1394 -0.1906
 3479THY     HO86952   3.646   0.614   1.013  0.3982 -1.3602 -1.5705
 3479THY    CA186953   3.745   0.720   1.119 -0.0033 -0.6209  0.0057
 3479THY    CA286954   3.870   0.775   1.155  0.1363 -0.1285  0.0934
 3479THY    CP186955   3.997   0.713   1.108 -0.4449 -0.6861 -0.3874
 3479THY    HP186956   3.976   0.619   1.057 -1.9467  0.1243 -1.3438
 3479THY    CP286957   4.065   0.820   1.017 -0.1068 -0.1566  0.3037
 3479THY    HP286958   4.108   0.907   1.070  0.4740  0.6549 -1.4063
 3479THY    HP386959   4.150   0.771   0.968  2.0427  0.2870  3.3336
 3479THY    HP486960   4.004   0.849   0.931 -1.0039  1.4134  1.4163
 3479THY    CP386961   4.090   0.677   1.230 -0.7351 -1.1398  0.1130
 3479THY    HP586962   4.048   0.602   1.298 -0.5685 -0.8934  0.4919
 3479THY    HP686963   4.181   0.637   1.184 -0.3271  1.1004 -1.1820
 3479THY    HP786964   4.118   0.769   1.282  0.6027 -0.1587 -2.1810
 3479THY    CA386965   3.866   0.898   1.230  0.6810 -0.3249  0.3178
 3479THY    HA386966   3.952   0.948   1.275  0.0362 -0.9564  2.3769
 3479THY    CA486967   3.743   0.967   1.249 -0.2161  0.1639 -0.2778
 3479THY    HA486968   3.745   1.070   1.284  0.3495 -0.8256  2.8787
 3479THY    CA586969   3.624   0.908   1.211  0.5249  0.2093 -0.1631
 3479THY    CM186970   3.492   0.976   1.241 -0.1693 -0.1025 -0.8304
 3479THY    HM186971   3.420   0.998   1.161 -1.5797 -0.0194  0.4325
 3479THY    HM286972   3.438   0.929   1.323  1.5962  1.9334  1.6373
 3479THY    HM386973   3.509   1.077   1.281  1.4947 -0.8307  0.3751
 3479THY    CA686974   3.623   0.782   1.143  0.1354 -0.1534 -0.1215
 3479THY    HA686975   3.534   0.725   1.120 -0.0119 -0.8161  1.9433
 3480THY      O86976   6.380   0.122   5.143 -0.5199 -0.1124  0.4748
 3480THY     HO86977   6.448   0.145   5.078  0.7673 -0.3153  1.7074
 3480THY    CA186978   6.362   0.230   5.230 -0.5068 -0.8618 -0.5993
 3480THY    CA286979   6.275   0.235   5.342  0.2697  0.1912  0.8423
 3480THY    CP186980   6.180   0.112   5.358 -0.8036 -0.5984 -0.9156
 3480THY    HP186981   6.165   0.058   5.264  0.0354 -0.5680 -1.0731
 3480THY    CP286982   6.222   0.015   5.472 -0.3058 -0.0402  0.0825
 3480THY    HP286983   6.192   0.053   5.571 -1.5035  0.9207 -0.6153
 3480THY    HP386984   6.162  -0.076   5.456 -2.0644  0.9467  0.7087
 3480THY    HP486985   6.331   0.016   5.470 -0.2988  0.3584  0.4242
 3480THY    CP386986   6.045   0.176   5.402 -0.6017  0.5105  0.0295
 3480THY    HP586987   6.006   0.251   5.332 -1.1036  1.6220  1.4334
 3480THY    HP686988   5.974   0.095   5.420  0.2750 -0.1774  0.4785
 3480THY    HP786989   6.048   0.222   5.501 -1.5095  0.5460  0.0426
 3480THY    CA386990   6.292   0.337   5.434  0.1924 -0.0883 -0.1233
 3480THY    HA386991   6.229   0.347   5.522  0.6846  0.5419  0.1690
 3480THY    CA486992   6.382   0.442   5.414 -0.5521 -0.6918  1.0081
 3480THY    HA486993   6.383   0.527   5.482  2.5144  0.5301 -0.3670
 3480THY    CA586994   6.463   0.444   5.295  0.3112  0.6370  0.2629
 3480THY    CM186995   6.555   0.554   5.262  0.1136  0.2007  0.2206
 3480THY    HM186996   6.558   0.576   5.154  0.9576 -1.0317 -0.0208
 3480THY    HM286997   6.542   0.640   5.328 -1.9443 -0.3168  0.5566
 3480THY    HM386998   6.652   0.520   5.299 -0.7099 -1.6212  0.8303
 3480THY    CA686999   6.456   0.333   5.210  0.4884 -0.1634  0.3163
 3480THY    HA687000   6.526   0.322   5.127  1.4994 -0.3668  1.1692
 3481THY      O87001   1.410   8.956   7.442 -0.5233 -0.1804 -0.0840
 3481THY     HO87002   1.453   8.962   7.529  1.1716  2.5187 -1.0017
 3481THY    CA187003   1.304   8.875   7.446 -0.3070  0.1073 -0.7134
 3481THY    CA287004   1.197   8.892   7.359 -0.3359 -0.0847  0.0488
 3481THY    CP187005   1.198   9.016   7.266  0.3611 -0.1510  0.5374
 3481THY    HP187006   1.304   9.029   7.239  0.4814 -0.7515  0.7246
 3481THY    CP287007   1.130   9.001   7.121 -0.5033 -0.2646  0.1724
 3481THY    HP287008   1.112   9.104   7.088 -1.5846 -0.5577 -0.2024
 3481THY    HP387009   1.201   8.961   7.048 -0.5501  2.0853 -1.2653
 3481THY    HP487010   1.039   8.940   7.132 -0.7135  0.3450  2.2240
 3481THY    CP387011   1.132   9.136   7.333  0.8347 -0.3796 -0.8026
 3481THY    HP587012   1.181   9.155   7.430 -0.7820 -0.8384  0.1444
 3481THY    HP687013   1.117   9.225   7.271  0.6210 -0.7654 -1.3016
 3481THY    HP787014   1.032   9.104   7.366  0.7774  0.0428 -0.5536
 3481THY    CA387015   1.079   8.816   7.375 -0.0143 -0.0123 -0.1405
 3481THY    HA387016   0.992   8.834   7.312 -0.4804 -2.0134 -0.1453
 3481THY    CA487017   1.081   8.714   7.470 -0.7969 -0.1978 -0.0827
 3481THY    HA487018   1.005   8.636   7.475 -0.0787 -0.8728  0.6899
 3481THY    CA587019   1.183   8.696   7.558 -0.0730 -0.0828 -1.3308
 3481THY    CM187020   1.171   8.583   7.666  0.1041  0.0924  0.0726
 3481THY    HM187021   1.069   8.573   7.704  0.4505 -0.5699  0.8510
 3481THY    HM287022   1.203   8.482   7.637 -1.5250 -0.7521  1.0319
 3481THY    HM387023   1.230   8.614   7.753 -0.1742  1.0020 -0.0474
 3481THY    CA687024   1.295   8.779   7.545  0.5257 -0.3971 -0.2344
 3481THY    HA687025   1.384   8.776   7.607  1.8321  1.0514 -1.9795
 3482THY      O87026   0.881   4.567   1.799  0.0412 -0.6241 -0.3123
 3482THY     HO87027   0.872   4.664   1.801 -2.8954 -0.8151 -0.2507
 3482THY    CA187028   0.986   4.524   1.730  0.4885  0.4049  0.3849
 3482THY    CA287029   1.015   4.580   1.604  0.7652 -0.6477  0.2046
 3482THY    CP187030   0.926   4.697   1.552 -0.1453 -0.0966  0.6696
 3482THY    HP187031   0.893   4.766   1.631  0.1421  0.1531  0.5776
 3482THY    CP287032   1.006   4.786   1.444 -0.0099  0.4934  0.4503
 3482THY    HP287033   0.961   4.882   1.416  1.5807  0.3768 -3.1584
 3482THY    HP387034   1.093   4.810   1.506  0.7666 -0.2891 -0.2891
 3482THY    HP487035   1.036   4.732   1.353 -0.6463  1.6593 -0.4755
 3482THY    CP387036   0.788   4.652   1.491 -0.6033  0.4016  0.4697
 3482THY    HP587037   0.726   4.738   1.461 -0.2775  1.1643  1.8990
 3482THY    HP687038   0.806   4.580   1.411  1.0401 -1.2936  2.2495
 3482THY    HP787039   0.735   4.603   1.574 -1.3837  1.6330  0.7388
 3482THY    CA387040   1.124   4.533   1.522  0.4858 -0.2184 -0.1774
 3482THY    HA387041   1.154   4.574   1.426  1.3427  0.7481  0.4891
 3482THY    CA487042   1.210   4.431   1.572  0.0103 -1.0908 -0.8257
 3482THY    HA487043   1.292   4.394   1.511  0.4342 -0.6270 -0.5473
 3482THY    CA587044   1.184   4.377   1.705  0.3127 -0.0427  0.0393
 3482THY    CM187045   1.264   4.257   1.761  0.4385 -1.0583  1.0072
 3482THY    HM187046   1.240   4.172   1.696 -0.3851  0.1150 -0.2530
 3482THY    HM287047   1.372   4.275   1.762  0.1678  0.8990 -0.7128
 3482THY    HM387048   1.234   4.240   1.865  1.3949 -1.3499  1.2522
 3482THY    CA687049   1.071   4.420   1.773  0.7004  0.4587  0.0646
 3482THY    HA687050   1.039   4.365   1.861 -1.4402  0.2075 -0.8050
 3483THY      O87051   4.629   4.771   7.251  0.2706 -0.1141 -0.1369
 3483THY     HO87052   4.669   4.709   7.187 -1.9668  0.4143 -2.1564
 3483THY    CA187053   4.492   4.759   7.250 -0.0932  0.1089  0.0195
 3483THY    CA287054   4.411   4.843   7.329 -0.0176 -0.4200  0.1232
 3483THY    CP187055   4.478   4.933   7.434  0.6658 -0.0438 -0.9636
 3483THY    HP187056   4.584   4.951   7.414  0.8706 -0.7837 -0.5775
 3483THY    CP287057   4.404   5.070   7.454 -0.4411 -1.0156 -0.0129
 3483THY    HP287058   4.462   5.128   7.526 -0.7375  1.3481 -1.5717
 3483THY    HP387059   4.385   5.132   7.365 -1.3031 -0.3057  0.6513
 3483THY    HP487060   4.312   5.058   7.512 -0.6755  1.9298  0.3445
 3483THY    CP387061   4.476   4.861   7.573 -0.2513 -0.2206 -0.0481
 3483THY    HP587062   4.373   4.848   7.608 -1.9707  1.6336 -3.7448
 3483THY    HP687063   4.532   4.767   7.568  1.1650  0.6437 -3.0255
 3483THY    HP787064   4.532   4.915   7.649  0.6007 -2.1342  0.7505
 3483THY    CA387065   4.275   4.855   7.299 -0.4001 -0.4017  0.5318
 3483THY    HA387066   4.217   4.924   7.358 -2.6008 -2.4609  0.8980
 3483THY    CA487067   4.217   4.780   7.199  0.5190 -0.5639  0.3774
 3483THY    HA487068   4.110   4.788   7.181  0.5900  1.3041  0.5634
 3483THY    CA587069   4.292   4.690   7.125 -0.0200 -0.3785  0.0436
 3483THY    CM187070   4.232   4.620   7.009 -0.0255 -0.1944 -0.0683
 3483THY    HM187071   4.165   4.539   7.042 -1.8537  0.1495 -2.6201
 3483THY    HM287072   4.172   4.698   6.962  0.5132  0.3216  0.0996
 3483THY    HM387073   4.312   4.576   6.948  1.8909  1.7172  0.9416
 3483THY    CA687074   4.430   4.690   7.146 -0.1927 -0.6835 -0.1883
 3483THY    HA687075   4.493   4.631   7.081 -0.7531 -2.1946  0.6035
 3484THY      O87076   9.492   7.592   8.986 -0.3259  0.5129  0.0072
 3484THY     HO87077   9.443   7.654   9.044 -1.6808  1.8881 -2.4408
 3484THY    CA187078   9.618   7.599   9.032  0.0589 -0.3208 -0.0028
 3484THY    CA287079   9.718   7.501   9.000  0.2134  0.0025  0.5375
 3484THY    CP187080   9.707   7.408   8.878 -0.6766 -1.0861 -0.0364
 3484THY    HP187081   9.629   7.454   8.816  1.1308 -0.2290 -1.7927
 3484THY    CP287082   9.831   7.388   8.782  0.1352 -0.0949  0.5858
 3484THY    HP287083   9.888   7.304   8.823  1.2492  0.2697 -0.1731
 3484THY    HP387084   9.807   7.357   8.680  1.0159  0.0055  0.3381
 3484THY    HP487085   9.883   7.484   8.782 -1.2986  0.7508 -1.2479
 3484THY    CP387086   9.662   7.263   8.912 -0.1049  0.4292  0.1910
 3484THY    HP587087   9.646   7.204   8.821  1.3004  0.1928  0.0744
 3484THY    HP687088   9.732   7.209   8.977 -1.3502  0.7346  1.8513
 3484THY    HP787089   9.569   7.281   8.968 -0.9097 -0.2280 -0.8834
 3484THY    CA387090   9.833   7.497   9.076  0.1513  0.4022  0.2169
 3484THY    HA387091   9.912   7.431   9.039 -0.0655  1.0829 -1.5670
 3484THY    CA487092   9.848   7.577   9.185  0.7809  0.0829 -0.0436
 3484THY    HA487093   9.938   7.558   9.243 -0.1252 -0.4712  1.2154
 3484THY    CA587094   9.749   7.665   9.228  0.5214 -0.5250  0.2031
 3484THY    CM187095   9.786   7.755   9.339  0.2670 -0.1043 -0.4724
 3484THY    HM187096   9.854   7.707   9.409  0.1008 -2.5972 -1.8937
 3484THY    HM287097   9.825   7.851   9.303 -1.1096  1.7704  2.6126
 3484THY    HM387098   9.697   7.785   9.396  1.2299  0.9052  0.5550
 3484THY    CA687099   9.634   7.678   9.147 -0.3891 -0.3086 -0.5756
 3484THY    HA687100   9.558   7.750   9.175  0.5864  1.2549 -1.7470
 3485THY      O87101   3.187   9.945   0.347 -0.0999  0.1504  0.1086
 3485THY     HO87102   3.129  10.019   0.319 -0.2525 -0.6986 -1.9587
 3485THY    CA187103   3.304   9.993   0.387 -0.5593  0.3179  0.3266
 3485THY    CA287104   3.421   9.932   0.338 -1.0985 -0.0098 -0.1040
 3485THY    CP187105   3.422   9.819   0.233  0.3036  0.5690  0.5428
 3485THY    HP187106   3.325   9.769   0.235  1.5964 -2.1013  1.6774
 3485THY    CP287107   3.475   9.868   0.096  0.0158 -0.6059  0.2107
 3485THY    HP287108   3.407   9.943   0.053 -1.9770 -2.4818 -0.0697
 3485THY    HP387109   3.576   9.911   0.091  0.4118 -1.6485 -2.7815
 3485THY    HP487110   3.479   9.784   0.025  0.1326 -0.8380  0.4894
 3485THY    CP387111   3.509   9.696   0.276  0.0636 -0.0468 -0.2318
 3485THY    HP587112   3.614   9.725   0.269 -0.0401  0.1498 -1.1273
 3485THY    HP687113   3.484   9.674   0.381  2.8544 -0.1925  0.4805
 3485THY    HP787114   3.471   9.610   0.219  1.5244 -1.2569  0.5558
 3485THY    CA387115   3.546   9.975   0.393 -0.5174 -0.1111  0.3183
 3485THY    HA387116   3.636   9.922   0.362 -0.7856  0.4049 -1.4211
 3485THY    CA487117   3.550  10.085   0.473 -0.5769  0.0395 -0.2963
 3485THY    HA487118   3.647  10.119   0.508 -0.4723 -1.1767  0.6691
 3485THY    CA587119   3.435  10.166   0.503 -0.0363  0.7594 -0.1986
 3485THY    CM187120   3.439  10.288   0.589 -0.5926 -0.4798  0.2365
 3485THY    HM187121   3.452  10.379   0.529  0.8291 -0.0837  1.0873
 3485THY    HM287122   3.351  10.317   0.648  0.9238  1.1886  1.8456
 3485THY    HM387123   3.526  10.287   0.657  0.6154 -1.4491 -1.2812
 3485THY    CA687124   3.314  10.105   0.469 -0.0966 -0.6996 -0.1454
 3485THY    HA687125   3.221  10.150   0.505  1.1537 -0.0304  2.5740
 3486THY      O87126   4.779   3.556   9.071  0.4293  0.7446 -0.2072
 3486THY     HO87127   4.706   3.562   9.007 -0.3327  2.8953  0.7466
 3486THY    CA187128   4.736   3.488   9.178 -0.1735 -0.2124  0.0769
 3486THY    CA287129   4.809   3.491   9.301 -0.2452  0.3366  0.1220
 3486THY    CP187130   4.932   3.582   9.327  0.7004 -0.5835  0.1531
 3486THY    HP187131   4.945   3.647   9.240  0.4147  1.1227  1.3292
 3486THY    CP287132   4.935   3.680   9.442 -0.9585  0.1286 -0.0811
 3486THY    HP287133   4.835   3.725   9.446 -2.2489 -2.4430 -0.8682
 3486THY    HP387134   4.971   3.630   9.533  2.6243  0.3215 -1.2360
 3486THY    HP487135   5.003   3.762   9.417 -0.5064 -0.5185 -1.0138
 3486THY    CP387136   5.059   3.494   9.330  0.1060 -0.4611 -0.1318
 3486THY    HP587137   5.138   3.553   9.284  2.0097 -0.9373  2.3255
 3486THY    HP687138   5.074   3.459   9.433 -0.1203 -1.6698 -0.4834
 3486THY    HP787139   5.049   3.409   9.261  1.0289 -3.0975  2.7853
 3486THY    CA387140   4.758   3.416   9.408 -0.4158  0.3731  0.0336
 3486THY    HA387141   4.818   3.421   9.498  0.7809  2.6877 -0.8191
 3486THY    CA487142   4.649   3.332   9.384 -0.3604  0.3514 -0.0928
 3486THY    HA487143   4.622   3.261   9.462  1.3765  0.1754  0.4103
 3486THY    CA587144   4.584   3.331   9.270  0.3213 -0.0006 -0.7533
 3486THY    CM187145   4.463   3.249   9.258  0.7863 -0.3703  0.4520
 3486THY    HM187146   4.474   3.152   9.307  1.0458 -0.1927  0.7518
 3486THY    HM287147   4.366   3.295   9.283 -0.3011 -1.0947 -2.0559
 3486THY    HM387148   4.447   3.223   9.153 -0.9013 -1.1322  0.8601
 3486THY    CA687149   4.624   3.413   9.163  0.1511  0.6613 -0.5073
 3486THY    HA687150   4.564   3.432   9.075 -2.6633  0.3514  1.2399
 3487THY      O87151   3.431   5.432   8.046 -0.0144  0.1263  0.4140
 3487THY     HO87152   3.434   5.357   7.983 -0.3141  1.3779 -1.1644
 3487THY    CA187153   3.350   5.527   7.990  0.3175  0.3524 -0.2755
 3487THY    CA287154   3.298   5.621   8.078  0.1714 -0.2119 -0.2267
 3487THY    CP187155   3.327   5.633   8.231  0.8140  0.3763 -0.5735
 3487THY    HP187156   3.425   5.590   8.258  0.9411  0.0484 -1.5198
 3487THY    CP287157   3.342   5.778   8.266 -0.1432  0.6665 -0.3584
 3487THY    HP287158   3.255   5.844   8.259 -1.3977 -0.7662  0.9904
 3487THY    HP387159   3.379   5.795   8.368  1.1075 -0.5358 -0.5887
 3487THY    HP487160   3.418   5.817   8.197  0.1219 -0.3270 -0.6434
 3487THY    CP387161   3.208   5.567   8.303 -0.7509  0.4748  0.0162
 3487THY    HP587162   3.111   5.603   8.266  0.2648  3.2017 -0.2433
 3487THY    HP687163   3.227   5.460   8.294  1.2227  0.7010  1.0628
 3487THY    HP787164   3.214   5.594   8.409  3.1321  0.1527 -0.0044
 3487THY    CA387165   3.219   5.722   8.014  0.6530 -0.4737 -0.5682
 3487THY    HA387166   3.171   5.804   8.066 -0.6267 -0.6525 -1.4346
 3487THY    CA487167   3.200   5.726   7.874 -0.1427 -0.1231 -0.0182
 3487THY    HA487168   3.132   5.790   7.821 -1.3158 -0.3317  1.1715
 3487THY    CA587169   3.253   5.622   7.802 -0.0937 -0.2507  0.7525
 3487THY    CM187170   3.242   5.607   7.655  0.4277  0.1175  0.4260
 3487THY    HM187171   3.335   5.579   7.605 -0.3188 -0.1896 -0.8444
 3487THY    HM287172   3.156   5.548   7.622 -0.9072  2.7272 -1.1588
 3487THY    HM387173   3.211   5.702   7.609  1.3604  0.4664  0.4924
 3487THY    CA687174   3.335   5.529   7.858  0.0047 -0.2943 -0.3026
 3487THY    HA687175   3.376   5.446   7.802  1.0735  0.0957 -0.1416
 3488THY      O87176   5.120   8.499   3.714 -0.1291 -0.3022 -0.4650
 3488THY     HO87177   5.045   8.452   3.754  0.8018  0.1919  2.0489
 3488THY    CA187178   5.167   8.576   3.816 -0.6871  0.5835 -0.2367
 3488THY    CA287179   5.293   8.624   3.821 -0.3074 -0.9485  0.0536
 3488THY    CP187180   5.386   8.583   3.705 -0.0086 -0.0818 -0.1565
 3488THY    HP187181   5.329   8.544   3.620 -0.1001 -0.2590 -0.0147
 3488THY    CP287182   5.447   8.714   3.649 -0.4879  0.1203  0.2683
 3488THY    HP287183   5.379   8.798   3.631  1.5200  1.2499 -2.7673
 3488THY    HP387184   5.538   8.749   3.700 -0.1334  1.2163 -1.0725
 3488THY    HP487185   5.471   8.688   3.546  1.9324  0.4859  0.6762
 3488THY    CP387186   5.493   8.480   3.761 -0.4930  0.1813 -0.2490
 3488THY    HP587187   5.443   8.393   3.805 -1.0848 -0.2846 -1.7770
 3488THY    HP687188   5.546   8.436   3.676  0.1606 -1.5829  1.0212
 3488THY    HP787189   5.570   8.516   3.830  1.1464 -1.7595 -1.0025
 3488THY    CA387190   5.340   8.708   3.923 -0.6345 -0.0155  0.2741
 3488THY    HA387191   5.444   8.739   3.916 -0.6747 -0.1174 -1.1389
 3488THY    CA487192   5.241   8.750   4.009  0.6389 -0.1529  0.7045
 3488THY    HA487193   5.272   8.829   4.077  1.9278  0.5613 -0.6559
 3488THY    CA587194   5.112   8.701   4.008  0.0140 -0.2321 -0.7492
 3488THY    CM187195   5.014   8.742   4.105  0.1088 -0.2778  0.2706
 3488THY    HM187196   5.001   8.651   4.164  2.0917 -1.6679 -1.3122
 3488THY    HM287197   5.062   8.819   4.166 -0.8776  1.0813 -0.5982
 3488THY    HM387198   4.918   8.790   4.082  0.6133  1.4790  1.6718
 3488THY    CA687199   5.076   8.608   3.909 -0.2742  0.2267 -0.3525
 3488THY    HA687200   4.978   8.562   3.905  0.3816 -1.1895 -3.0499
 3489THY      O87201   0.380   8.648   3.705 -0.2707 -0.0638 -0.8095
 3489THY     HO87202   0.454   8.585   3.696  0.1820  0.4045 -0.4141
 3489THY    CA187203   0.371   8.676   3.839  0.8740  0.3121 -0.0476
 3489THY    CA287204   0.300   8.784   3.898  0.5640  0.7392 -0.0329
 3489THY    CP187205   0.236   8.883   3.810 -1.1568  0.2756 -0.6078
 3489THY    HP187206   0.214   8.844   3.709  0.3010  0.0564 -0.8675
 3489THY    CP287207   0.095   8.940   3.856 -0.2945  0.0831 -0.2252
 3489THY    HP287208   0.055   9.005   3.778 -0.6820  2.7730  2.0571
 3489THY    HP387209   0.023   8.861   3.878  1.0133 -0.2877  3.6434
 3489THY    HP487210   0.109   9.003   3.945 -0.9058 -2.1846  1.5587
 3489THY    CP387211   0.333   9.011   3.803  0.7155  0.0770  0.0148
 3489THY    HP587212   0.293   9.088   3.736 -0.0284 -0.7717 -0.5458
 3489THY    HP687213   0.336   9.047   3.906 -1.5818 -3.0868  1.3310
 3489THY    HP787214   0.433   8.983   3.766  0.4840 -2.6772  1.2807
 3489THY    CA387215   0.306   8.808   4.037 -0.4898 -0.2221  0.0433
 3489THY    HA387216   0.256   8.893   4.083 -1.7093 -1.0335  0.2570
 3489THY    CA487217   0.390   8.718   4.111  0.3318  0.1004 -0.8053
 3489THY    HA487218   0.403   8.745   4.215 -0.4200  0.7850 -0.8773
 3489THY    CA587219   0.454   8.606   4.051 -0.2265 -0.6679  0.4572
 3489THY    CM187220   0.535   8.518   4.141 -0.3153 -0.2035  0.9838
 3489THY    HM187221   0.468   8.444   4.185 -0.8228 -0.7772 -0.6673
 3489THY    HM287222   0.602   8.449   4.087 -1.5198 -0.1485 -0.6650
 3489THY    HM387223   0.582   8.583   4.216 -1.1320  2.4709 -0.6785
 3489THY    CA687224   0.440   8.588   3.923  0.0305  0.3286  1.1171
 3489THY    HA687225   0.469   8.493   3.878 -0.7702  0.5605  0.0804
 3490THY      O87226   0.327   2.979   0.825 -0.2640 -0.4876  0.0899
 3490THY     HO87227   0.378   2.900   0.798  0.1836  0.1099 -0.8894
 3490THY    CA187228   0.199   2.936   0.836 -0.0517 -0.0566 -0.1995
 3490THY    CA287229   0.119   2.980   0.947 -0.6674  0.4182 -0.3152
 3490THY    CP187230   0.184   3.081   1.044  0.9595 -0.2660 -0.0949
 3490THY    HP187231   0.291   3.096   1.023  0.5330  0.5582 -1.9481
 3490THY    CP287232   0.119   3.216   1.019 -0.0868  0.3365 -0.1368
 3490THY    HP287233   0.178   3.291   1.073 -1.6699  1.0040  0.7367
 3490THY    HP387234   0.118   3.255   0.916  0.0055  2.3287  0.5848
 3490THY    HP487235   0.020   3.223   1.066  0.1772  1.8477  0.2503
 3490THY    CP387236   0.156   3.045   1.191  0.1870  0.1413 -0.1443
 3490THY    HP587237   0.051   3.061   1.220  1.1109  1.1396  3.1289
 3490THY    HP687238   0.178   2.942   1.222  0.6319  0.6178  1.1896
 3490THY    HP787239   0.213   3.112   1.256  1.2533 -0.8659 -0.0109
 3490THY    CA387240  -0.016   2.933   0.948 -0.0138 -0.0596  0.3659
 3490THY    HA387241  -0.087   2.974   1.018  0.0121  2.4153 -0.9408
 3490THY    CA487242  -0.069   2.847   0.847  0.2363  0.4194 -0.9062
 3490THY    HA487243  -0.169   2.805   0.847  1.3470 -2.4784 -0.8288
 3490THY    CA587244   0.018   2.797   0.750  0.4091 -0.2445  0.2765
 3490THY    CM187245  -0.036   2.707   0.642 -0.4622  0.7398 -0.3526
 3490THY    HM187246  -0.144   2.707   0.624 -0.5023  0.1339 -0.1481
 3490THY    HM287247   0.001   2.742   0.545  1.0200 -0.7057 -0.3674
 3490THY    HM387248  -0.001   2.603   0.650  1.5171  1.3815 -0.1748
 3490THY    CA687249   0.148   2.850   0.734  0.1708  0.2768 -0.6803
 3490THY    HA687250   0.207   2.828   0.645  1.9278  1.0963  0.2141
 3491THY      O87251   8.190   9.250   2.270  0.2583 -0.3589  0.1825
 3491THY     HO87252   8.168   9.166   2.227  0.4493 -0.2860 -0.0585
 3491THY    CA187253   8.094   9.345   2.243  0.4489  0.0082  0.3744
 3491THY    CA287254   8.040   9.424   2.345  0.2512 -0.2101  0.1897
 3491THY    CP187255   8.082   9.407   2.488  0.5580 -0.2888 -0.1807
 3491THY    HP187256   8.156   9.328   2.503  0.7461  0.2837  2.3568
 3491THY    CP287257   8.132   9.537   2.542 -0.0038  0.7935  0.4963
 3491THY    HP287258   8.057   9.617   2.552 -1.4938 -0.4909  0.0696
 3491THY    HP387259   8.180   9.506   2.635 -0.7652  0.2644  0.7263
 3491THY    HP487260   8.213   9.562   2.472 -0.8221 -0.3466 -0.9287
 3491THY    CP387261   7.975   9.348   2.582  0.2628 -0.6361 -0.6692
 3491THY    HP587262   8.028   9.324   2.675  1.5175 -1.2918 -1.5277
 3491THY    HP687263   7.896   9.421   2.603 -0.7402 -1.7217 -0.5098
 3491THY    HP787264   7.929   9.256   2.542  0.2176 -0.4009 -1.1610
 3491THY    CA387265   7.932   9.505   2.306 -0.2400 -0.0546 -1.2053
 3491THY    HA387266   7.888   9.574   2.378  0.7974  2.4699 -2.8350
 3491THY    CA487267   7.878   9.522   2.176 -0.4238  0.3433  0.6188
 3491THY    HA487268   7.788   9.580   2.156 -1.3094 -1.7833 -2.2322
 3491THY    CA587269   7.936   9.436   2.084  0.0477  0.1946 -0.3025
 3491THY    CM187270   7.883   9.439   1.944 -0.2130 -0.2159 -0.4793
 3491THY    HM187271   7.877   9.339   1.899  0.7344 -1.6895  2.4611
 3491THY    HM287272   7.778   9.471   1.939  0.0655  0.8770  0.2729
 3491THY    HM387273   7.949   9.499   1.879  0.9707 -0.3732  0.5454
 3491THY    CA687274   8.039   9.349   2.115 -0.2795 -0.5548 -0.2383
 3491THY    HA687275   8.075   9.284   2.036 -2.4270  0.2788 -1.9836
 3492THY      O87276   5.757   6.201   6.916 -0.0677  0.3124  0.4100
 3492THY     HO87277   5.787   6.256   6.841  2.4352  0.0988  1.1434
 3492THY    CA187278   5.871   6.148   6.972 -0.0985 -0.0010  0.3299
 3492THY    CA287279   5.855   6.032   7.055 -0.6257  0.3713  0.2877
 3492THY    CP187280   5.721   5.972   7.095  0.2643 -0.0794  0.1592
 3492THY    HP187281   5.627   6.016   7.059 -0.5616  0.0099  2.3136
 3492THY    CP287282   5.702   5.832   7.039 -0.0129  0.6923  0.3847
 3492THY    HP287283   5.772   5.755   7.072  0.2094  0.4853 -0.5590
 3492THY    HP387284   5.601   5.787   7.046  0.3732 -0.1398  0.8562
 3492THY    HP487285   5.715   5.839   6.931 -1.2585  1.4432  0.2582
 3492THY    CP387286   5.701   5.977   7.253  0.4758  0.0703  0.0985
 3492THY    HP587287   5.755   5.901   7.311  0.6346 -0.8108 -1.1592
 3492THY    HP687288   5.729   6.077   7.289  2.5886  0.1224 -1.4741
 3492THY    HP787289   5.594   5.982   7.277  0.4973 -0.6695  0.3704
 3492THY    CA387290   5.973   5.976   7.117  0.0968  0.7209  0.3729
 3492THY    HA387291   5.959   5.884   7.172 -0.6590 -0.0706 -1.0882
 3492THY    CA487292   6.100   6.035   7.094 -0.7904 -0.7797 -0.8743
 3492THY    HA487293   6.186   5.991   7.144 -1.2076 -0.3583  0.2457
 3492THY    CA587294   6.114   6.152   7.007  0.4484  0.5522 -0.1688
 3492THY    CM187295   6.246   6.228   6.988 -0.1376  0.9556  0.5343
 3492THY    HM187296   6.248   6.310   7.061 -0.9594  1.1021  0.4017
 3492THY    HM287297   6.324   6.152   7.001 -0.3017  0.6783 -0.0720
 3492THY    HM387298   6.249   6.266   6.886 -0.1142  0.9942  0.5496
 3492THY    CA687299   5.994   6.205   6.945 -0.2271  0.4913 -0.0879
 3492THY    HA687300   6.000   6.292   6.879 -0.5266 -0.0166 -0.7975
 3493THY      O87301   3.769   6.893   0.758  0.9871 -0.1070 -0.2123
 3493THY     HO87302   3.863   6.913   0.743  0.5717  2.3581  0.0513
 3493THY    CA187303   3.753   6.756   0.775  0.0351 -0.5066  0.2545
 3493THY    CA287304   3.639   6.702   0.831 -0.4583  0.0532 -0.0116
 3493THY    CP187305   3.539   6.793   0.904  0.4067  0.0967  0.3356
 3493THY    HP187306   3.561   6.897   0.879  0.4663 -0.2909 -1.3444
 3493THY    CP287307   3.393   6.775   0.869  0.2824  1.0350 -0.2437
 3493THY    HP287308   3.356   6.686   0.922 -3.5724  1.9565 -1.0849
 3493THY    HP387309   3.326   6.858   0.894 -3.0004 -1.3955 -0.1817
 3493THY    HP487310   3.382   6.741   0.765  1.7371 -0.9945  0.2066
 3493THY    CP387311   3.548   6.775   1.058  0.0084  0.0100  0.4786
 3493THY    HP587312   3.521   6.673   1.087  0.9461 -0.0572  1.1478
 3493THY    HP687313   3.649   6.806   1.086 -0.3547  0.0252  1.8058
 3493THY    HP787314   3.481   6.846   1.108 -3.4057 -1.5469 -1.4772
 3493THY    CA387315   3.614   6.563   0.833  0.6207  0.1596 -0.7707
 3493THY    HA387316   3.519   6.518   0.860  0.4427 -1.3809 -3.5742
 3493THY    CA487317   3.710   6.482   0.770  0.0699 -0.3149 -0.8290
 3493THY    HA487318   3.689   6.376   0.760  0.6707 -0.5792  0.5195
 3493THY    CA587319   3.825   6.541   0.711 -0.0034 -0.2817 -0.1347
 3493THY    CM187320   3.925   6.455   0.637  0.4196 -0.5018 -0.1396
 3493THY    HM187321   4.021   6.454   0.690  0.1101  1.1441  0.5131
 3493THY    HM287322   3.884   6.354   0.638  0.6890 -0.6159  1.2824
 3493THY    HM387323   3.925   6.491   0.534 -1.5415 -0.0789 -0.0268
 3493THY    CA687324   3.853   6.682   0.716  0.9314  0.2990 -0.5965
 3493THY    HA687325   3.940   6.733   0.677  0.0026  1.2781 -1.4314
 3494THY      O87326   1.510   0.249   1.391  0.5676 -0.0582  0.0832
 3494THY     HO87327   1.446   0.177   1.396 -0.2509  0.2444 -3.2802
 3494THY    CA187328   1.610   0.227   1.480 -0.4097  0.1951 -0.0565
 3494THY    CA287329   1.718   0.319   1.487 -0.0000 -0.4145 -0.3122
 3494THY    CP187330   1.724   0.445   1.394 -0.0732 -0.1706 -0.4912
 3494THY    HP187331   1.619   0.466   1.371 -0.4515 -0.5814  0.8046
 3494THY    CP287332   1.783   0.568   1.471  0.1227  0.6417 -0.1042
 3494THY    HP287333   1.738   0.583   1.570 -0.0101 -1.3534  0.1653
 3494THY    HP387334   1.892   0.567   1.478  0.2628  3.0031 -0.8679
 3494THY    HP487335   1.784   0.658   1.408  1.8618  0.9868  0.3542
 3494THY    CP387336   1.807   0.418   1.271  0.1630  0.2053 -0.5837
 3494THY    HP587337   1.796   0.504   1.204  1.3295  1.8828  1.2333
 3494THY    HP687338   1.911   0.407   1.304 -0.2785  1.0355  1.2248
 3494THY    HP787339   1.781   0.328   1.214 -0.3464  0.6561 -1.0748
 3494THY    CA387340   1.821   0.296   1.580 -0.3401 -0.0665 -0.0413
 3494THY    HA387341   1.901   0.369   1.583  1.0447 -1.1984 -3.6503
 3494THY    CA487342   1.806   0.193   1.673 -0.3122  0.1399 -0.2996
 3494THY    HA487343   1.883   0.186   1.750  1.1858 -0.4236 -1.7978
 3494THY    CA587344   1.701   0.109   1.669 -0.0370 -0.1052  0.4356
 3494THY    CM187345   1.689  -0.001   1.770 -0.4341  0.5318  0.0892
 3494THY    HM187346   1.767  -0.076   1.753  0.6884  1.9325 -1.1730
 3494THY    HM287347   1.690   0.042   1.871 -1.1017 -0.0898  0.3658
 3494THY    HM387348   1.596  -0.055   1.750 -0.1840 -0.0515  0.4783
 3494THY    CA687349   1.600   0.118   1.572 -0.3221  0.0842  0.5864
 3494THY    HA687350   1.525   0.039   1.574  1.1340 -1.3777  0.0641
 3495THY      O87351   9.414   5.563   0.909  0.4550 -0.1458  0.2930
 3495THY     HO87352   9.508   5.569   0.885  0.5766 -1.6802  0.2379
 3495THY    CA187353   9.380   5.438   0.866  0.1740 -0.6651 -0.0382
 3495THY    CA287354   9.266   5.411   0.789  0.0247  0.3855  0.7972
 3495THY    CP187355   9.164   5.522   0.755  0.8248  0.4381  0.4436
 3495THY    HP187356   9.224   5.613   0.747  0.6503  0.5145 -0.0371
 3495THY    CP287357   9.079   5.518   0.626 -0.9464  0.3117 -0.9635
 3495THY    HP287358   9.007   5.435   0.635  0.6715 -1.0830 -0.3913
 3495THY    HP387359   9.029   5.613   0.604 -1.1801 -0.2307 -2.9574
 3495THY    HP487360   9.152   5.506   0.545 -0.8962 -1.6536 -0.6841
 3495THY    CP387361   9.071   5.546   0.873  0.1247  0.2099 -0.6342
 3495THY    HP587362   8.992   5.619   0.851  0.4957  0.9002  0.2754
 3495THY    HP687363   9.020   5.452   0.898  1.4737 -1.3013 -3.1745
 3495THY    HP787364   9.132   5.576   0.958 -2.3479 -1.5655  1.9461
 3495THY    CA387365   9.254   5.280   0.731  0.4073 -0.4027 -0.9306
 3495THY    HA387366   9.167   5.260   0.669 -1.5093  0.7711  1.1934
 3495THY    CA487367   9.356   5.186   0.756  0.2127 -0.0793  0.3333
 3495THY    HA487368   9.357   5.084   0.719  2.5413 -0.5049  1.4377
 3495THY    CA587369   9.469   5.222   0.834 -0.3778  0.4050  0.6181
 3495THY    CM187370   9.585   5.133   0.849 -0.1755 -0.4586 -0.0168
 3495THY    HM187371   9.617   5.131   0.954 -1.5589 -1.5241  0.4156
 3495THY    HM287372   9.563   5.030   0.819 -2.0964  0.4734 -2.0266
 3495THY    HM387373   9.671   5.163   0.788 -0.5244 -2.8509 -1.8573
 3495THY    CA687374   9.479   5.349   0.884  0.1359  0.5370 -0.2475
 3495THY    HA687375   9.575   5.375   0.929  0.2256 -0.7276  0.3320
 3496THY      O87376   2.035   0.020   5.350  0.5150 -0.2274  0.3466
 3496THY     HO87377   1.986   0.102   5.336  0.7115  0.2546  2.1878
 3496THY    CA187378   2.029  -0.057   5.234 -0.0436 -0.4195 -0.1191
 3496THY    CA287379   2.107  -0.167   5.205 -0.5369 -0.7752 -0.0653
 3496THY    CP187380   2.211  -0.219   5.308  0.5595  0.3229 -0.6643
 3496THY    HP187381   2.206  -0.147   5.391  3.0465  0.4398 -0.5556
 3496THY    CP287382   2.163  -0.359   5.355 -0.0050  0.4913  0.0408
 3496THY    HP287383   2.227  -0.385   5.441 -0.8890  0.5612  0.7299
 3496THY    HP387384   2.063  -0.364   5.399 -0.1630 -1.1590 -0.4386
 3496THY    HP487385   2.172  -0.435   5.276  0.8854 -0.9295  1.4473
 3496THY    CP387386   2.354  -0.220   5.262  0.1206  0.1690 -0.2935
 3496THY    HP587387   2.371  -0.122   5.215  0.0893 -0.2305 -1.1638
 3496THY    HP687388   2.421  -0.265   5.335 -0.5492 -1.7316 -0.7939
 3496THY    HP787389   2.361  -0.294   5.182  0.5915  0.5692 -0.6314
 3496THY    CA387390   2.081  -0.247   5.093  0.5976 -1.0589  0.0662
 3496THY    HA387391   2.143  -0.334   5.075  0.6225 -0.8300 -1.0545
 3496THY    CA487392   1.984  -0.206   4.998  0.3209 -0.3745  1.1376
 3496THY    HA487393   1.968  -0.268   4.911 -0.6506 -0.3045  1.2634
 3496THY    CA587394   1.906  -0.091   5.022  0.5077 -0.0964 -0.3227
 3496THY    CM187395   1.797  -0.045   4.925 -0.4572  0.2743  0.3857
 3496THY    HM187396   1.833  -0.065   4.823  0.4251 -0.9688  0.9158
 3496THY    HM287397   1.707  -0.107   4.937  0.7644 -2.2278 -2.0521
 3496THY    HM387398   1.782   0.062   4.939 -0.7288  0.2970 -0.0451
 3496THY    CA687399   1.925  -0.019   5.147 -0.5130 -0.5854 -0.1575
 3496THY    HA687400   1.877   0.075   5.172  2.8157  1.1139  0.4134
 3497THY      O87401   4.283   7.339   2.762  0.2534  0.0691 -0.6170
 3497THY     HO87402   4.235   7.256   2.749 -1.2119  0.6715  0.6748
 3497THY    CA187403   4.351   7.369   2.645 -0.5985 -0.1147  0.5404
 3497THY    CA287404   4.452   7.468   2.645  0.3829  0.6917  0.3845
 3497THY    CP187405   4.501   7.531   2.775  0.4407 -0.1489  0.0258
 3497THY    HP187406   4.423   7.506   2.849  0.8482 -1.0831  0.1526
 3497THY    CP287407   4.634   7.450   2.827 -0.0463  0.5515 -0.5957
 3497THY    HP287408   4.711   7.455   2.749  0.6530  0.2345  0.0656
 3497THY    HP387409   4.676   7.500   2.915 -2.9795 -0.3010  1.4184
 3497THY    HP487410   4.613   7.344   2.842 -1.3500  0.9105  0.2022
 3497THY    CP387411   4.526   7.686   2.773 -0.0565  0.6915  0.4049
 3497THY    HP587412   4.561   7.718   2.872  1.2989 -0.1314  0.2136
 3497THY    HP687413   4.590   7.721   2.691 -0.3840  0.7025  0.1491
 3497THY    HP787414   4.428   7.735   2.763  0.2777  1.3778  0.4851
 3497THY    CA387415   4.507   7.495   2.516 -0.4113  0.4033 -0.5154
 3497THY    HA387416   4.597   7.556   2.509 -0.8907  0.9104 -2.8095
 3497THY    CA487417   4.467   7.425   2.404 -0.6057 -0.6528 -0.5917
 3497THY    HA487418   4.527   7.446   2.316  0.3359  1.9622  0.5703
 3497THY    CA587419   4.381   7.316   2.410 -0.7932 -0.5590  0.0118
 3497THY    CM187420   4.350   7.238   2.285  0.5380  0.3990  0.0583
 3497THY    HM187421   4.276   7.291   2.225  0.7068  0.0683 -0.4454
 3497THY    HM287422   4.435   7.211   2.220  0.7085 -2.1435  1.2302
 3497THY    HM387423   4.306   7.140   2.306  1.0896 -0.6591 -3.2027
 3497THY    CA687424   4.308   7.297   2.531 -0.4017 -0.4651  0.8649
 3497THY    HA687425   4.224   7.229   2.541 -1.8050  1.2471  1.0855
 3498THY      O87426   8.989   1.911   2.777 -0.1940  0.6315  0.4394
 3498THY     HO87427   8.892   1.913   2.779 -0.2432 -1.2354  1.8948
 3498THY    CA187428   9.030   1.985   2.666 -0.4271 -0.5784 -0.7879
 3498THY    CA287429   9.171   2.009   2.633 -0.5440 -0.0070  0.2483
 3498THY    CP187430   9.284   1.940   2.710  0.2478  0.2040 -0.3738
 3498THY    HP187431   9.253   1.936   2.815  2.0049  1.1240  0.2301
 3498THY    CP287432   9.303   1.799   2.664  0.6665 -0.8661 -0.0853
 3498THY    HP287433   9.231   1.734   2.715 -0.9994  1.2431  0.4022
 3498THY    HP387434   9.293   1.799   2.555  1.8548  2.3305 -0.3084
 3498THY    HP487435   9.403   1.761   2.686  0.7872 -0.3561  0.2459
 3498THY    CP387436   9.411   2.023   2.715 -0.5421 -0.0181 -1.0337
 3498THY    HP587437   9.479   1.966   2.780 -0.1573  0.3652 -1.1001
 3498THY    HP687438   9.445   2.045   2.614 -0.5315 -0.8934 -1.2314
 3498THY    HP787439   9.397   2.119   2.766 -1.3512  0.3284 -1.8763
 3498THY    CA387440   9.194   2.091   2.522 -0.4528  0.5317 -0.0950
 3498THY    HA387441   9.297   2.109   2.492 -0.0341  0.9317  1.4889
 3498THY    CA487442   9.089   2.145   2.451  0.0139  0.7877  0.7132
 3498THY    HA487443   9.116   2.212   2.370 -4.5623 -0.2812 -2.0453
 3498THY    CA587444   8.962   2.119   2.482  0.0750  0.0509 -0.2148
 3498THY    CM187445   8.853   2.186   2.403 -0.5267  0.0662  0.6524
 3498THY    HM187446   8.857   2.296   2.402 -1.0771  0.0966  1.1934
 3498THY    HM287447   8.869   2.156   2.299 -0.3942 -2.6225  1.3831
 3498THY    HM387448   8.754   2.151   2.435 -0.0649 -2.9290 -0.8730
 3498THY    CA687449   8.933   2.045   2.591 -0.6916 -0.8820 -0.2926
 3498THY    HA687450   8.828   2.031   2.613 -2.0963  2.3561 -3.7448
 3499THY      O87451   7.041   8.041   1.546  0.1408  0.1668  0.6578
 3499THY     HO87452   6.949   8.060   1.520  0.6320  1.0930 -0.4524
 3499THY    CA187453   7.034   8.001   1.681 -0.2529 -0.5093  1.8385
 3499THY    CA287454   7.137   8.039   1.774  0.4442 -0.1199  0.2881
 3499THY    CP187455   7.265   8.104   1.725  0.3834  0.4569  0.3190
 3499THY    HP187456   7.239   8.176   1.646  0.6359  0.4073  0.1902
 3499THY    CP287457   7.334   8.192   1.820  0.5615 -1.0295  0.1022
 3499THY    HP287458   7.395   8.142   1.896  3.2712  2.6488  0.5990
 3499THY    HP387459   7.402   8.262   1.771 -1.1683  1.2714  0.8315
 3499THY    HP487460   7.258   8.251   1.872  0.4261 -0.8842 -0.2578
 3499THY    CP387461   7.353   7.997   1.661 -0.3818  0.5130  0.3065
 3499THY    HP587462   7.436   8.048   1.610 -1.0738 -0.1477 -1.6009
 3499THY    HP687463   7.401   7.928   1.731 -0.3643 -1.7928 -1.8385
 3499THY    HP787464   7.293   7.936   1.591  1.7222 -1.0605 -0.2339
 3499THY    CA387465   7.124   7.994   1.902 -0.1563 -0.2387 -0.5763
 3499THY    HA387466   7.205   8.013   1.971  0.9377 -0.9012 -1.6523
 3499THY    CA487467   7.011   7.919   1.940  0.9322 -0.0686 -0.8492
 3499THY    HA487468   7.017   7.882   2.042 -0.0989  1.7965 -0.0622
 3499THY    CA587469   6.907   7.893   1.850 -0.0185  0.1555  0.4565
 3499THY    CM187470   6.783   7.816   1.885 -0.2507  0.0240 -0.8750
 3499THY    HM187471   6.734   7.856   1.974 -2.0063  0.9141 -2.1673
 3499THY    HM287472   6.714   7.810   1.800 -0.5592  1.9051 -0.8070
 3499THY    HM387473   6.808   7.711   1.902  0.6385  0.3184 -0.3041
 3499THY    CA687474   6.923   7.934   1.721  0.2570  0.8515  0.2924
 3499THY    HA687475   6.847   7.909   1.648  1.4160 -0.7812 -0.4041
 3500THY      O87476   9.855   5.228   3.453  0.1182 -0.3311  0.4504
 3500THY     HO87477   9.926   5.250   3.390 -0.5098  0.5060  0.0242
 3500THY    CA187478   9.913   5.132   3.531 -0.3773 -0.5035 -0.1223
 3500THY    CA287479   9.852   5.089   3.653 -0.2488  1.1145  0.1150
 3500THY    CP187480   9.734   5.164   3.712 -0.7327  0.3334  0.2691
 3500THY    HP187481   9.679   5.205   3.627  1.1271  0.6806 -0.8222
 3500THY    CP287482   9.645   5.069   3.799  0.5793 -0.1538  0.0891
 3500THY    HP287483   9.619   4.973   3.752 -0.2699 -0.1744  0.5823
 3500THY    HP387484   9.698   5.048   3.893  2.7528  0.7264 -0.8780
 3500THY    HP487485   9.546   5.109   3.824  0.0448 -0.5939 -1.2520
 3500THY    CP387486   9.778   5.288   3.799  0.1424  0.3084 -0.4420
 3500THY    HP587487   9.699   5.363   3.805  2.4150  2.7919  1.1918
 3500THY    HP687488   9.805   5.258   3.901  0.3046 -0.6226 -0.7448
 3500THY    HP787489   9.865   5.341   3.757  0.6997 -0.0663  0.2210
 3500THY    CA387490   9.921   4.986   3.725  0.0602  0.7607 -0.2733
 3500THY    HA387491   9.881   4.946   3.818 -1.5734  0.6310 -0.9909
 3500THY    CA487492  10.034   4.920   3.672  0.5815 -0.2701  0.2895
 3500THY    HA487493  10.071   4.834   3.726 -0.0992  0.6961  2.3763
 3500THY    CA587494  10.093   4.970   3.556  1.0677  0.9528 -0.1725
 3500THY    CM187495  10.210   4.900   3.496  0.3761  0.1269 -0.0541
 3500THY    HM187496  10.224   4.942   3.396 -1.0952  3.5926  1.0274
 3500THY    HM287497  10.303   4.922   3.550  1.2512 -3.1145 -0.0530
 3500THY    HM387498  10.201   4.791   3.496  2.5504 -0.0955 -1.4663
 3500THY    CA687499  10.033   5.075   3.483  0.6036 -0.1805 -0.9521
 3500THY    HA687500  10.075   5.107   3.388 -1.4856  3.4973 -0.7917
 3501THY      O87501   8.292   2.862   3.529 -0.3042  0.2726 -0.1840
 3501THY     HO87502   8.284   2.791   3.462 -3.7562  1.0934 -0.8319
 3501THY    CA187503   8.422   2.912   3.529  0.3900 -0.6893 -0.1362
 3501THY    CA287504   8.468   3.021   3.608 -0.0737 -0.5139  0.4816
 3501THY    CP187505   8.368   3.083   3.707 -0.7595 -0.6191  0.6346
 3501THY    HP187506   8.270   3.033   3.707 -1.5930  0.8970 -0.7348
 3501THY    CP287507   8.427   3.083   3.852  0.2454 -0.5205  0.4017
 3501THY    HP287508   8.516   3.146   3.861  0.2497 -0.7123  1.9199
 3501THY    HP387509   8.349   3.116   3.922 -1.4386 -1.7124 -0.8320
 3501THY    HP487510   8.457   2.980   3.877  2.5653  0.1159  0.4920
 3501THY    CP387511   8.349   3.229   3.668  0.7039  0.3832 -0.2335
 3501THY    HP587512   8.313   3.242   3.565 -0.4629  0.0251  0.1119
 3501THY    HP687513   8.272   3.280   3.727  0.0104  1.3939 -1.9318
 3501THY    HP787514   8.436   3.293   3.688  0.2581  1.0524 -0.3846
 3501THY    CA387515   8.591   3.072   3.589 -0.2842  0.1510 -0.0773
 3501THY    HA387516   8.625   3.158   3.647  1.1731  0.6578 -1.6292
 3501THY    CA487517   8.672   3.019   3.489 -0.5930  0.2842  0.1623
 3501THY    HA487518   8.767   3.067   3.468 -0.3343  0.8296  2.3225
 3501THY    CA587519   8.631   2.912   3.408  0.6812 -0.2245 -0.1320
 3501THY    CM187520   8.721   2.888   3.292  0.1303 -0.0481 -0.4703
 3501THY    HM187521   8.671   2.831   3.213  3.7508  0.5390 -3.4589
 3501THY    HM287522   8.772   2.978   3.257  0.7571 -0.0419  0.4080
 3501THY    HM387523   8.808   2.828   3.321  1.5289  1.5322 -1.2241
 3501THY    CA687524   8.504   2.860   3.428  0.8352 -0.5288  0.0419
 3501THY    HA687525   8.466   2.780   3.366 -1.2397  0.7027 -0.3700
 3502THY      O87526   9.318   1.338   4.226  0.0721 -0.0661 -0.3693
 3502THY     HO87527   9.260   1.325   4.303  1.0950 -1.6760  0.1739
 3502THY    CA187528   9.263   1.265   4.121 -0.4000  0.2162  0.0371
 3502THY    CA287529   9.282   1.295   3.989 -0.7987  0.0134  0.6177
 3502THY    CP187530   9.381   1.404   3.940  0.2621  0.4250  0.3376
 3502THY    HP187531   9.476   1.380   3.988 -0.3642  0.1393  1.4750
 3502THY    CP287532   9.425   1.389   3.792  0.3707 -0.5692 -1.1224
 3502THY    HP287533   9.527   1.429   3.787  1.0177 -1.6172  1.6655
 3502THY    HP387534   9.443   1.286   3.762  1.6803 -0.3735 -1.0659
 3502THY    HP487535   9.358   1.439   3.722 -0.0773  0.9040  0.2719
 3502THY    CP387536   9.337   1.549   3.972  0.1066  0.4840 -0.2632
 3502THY    HP587537   9.422   1.613   3.948  0.5516 -0.3322 -0.9186
 3502THY    HP687538   9.251   1.573   3.908 -0.7535 -1.3583  0.1247
 3502THY    HP787539   9.294   1.559   4.072  0.7652  3.3550 -0.2009
 3502THY    CA387540   9.207   1.221   3.894 -0.4476  0.5873  0.7386
 3502THY    HA387541   9.223   1.232   3.787  4.5634 -1.6387  0.9539
 3502THY    CA487542   9.105   1.129   3.936  0.5724  0.2325 -0.2945
 3502THY    HA487543   9.049   1.070   3.864 -1.0759  1.1547  0.1651
 3502THY    CA587544   9.102   1.090   4.073  0.1989  0.1241 -0.4170
 3502THY    CM187545   9.028   0.969   4.121 -0.0854 -0.8091 -0.1356
 3502THY    HM187546   9.042   0.876   4.064  1.9598  1.4583 -3.6817
 3502THY    HM287547   9.069   0.944   4.220 -0.6949  1.1615  0.6687
 3502THY    HM387548   8.920   0.981   4.139  0.0296 -0.0032  0.0518
 3502THY    CA687549   9.177   1.165   4.166 -0.0599  0.1549  0.2520
 3502THY    HA687550   9.168   1.149   4.273 -1.9715  1.7549  0.3857
 3503THY      O87551   5.732   4.803   8.274  0.3274 -0.1511  0.2126
 3503THY     HO87552   5.687   4.742   8.213  0.2646 -2.4350  2.3805
 3503THY    CA187553   5.864   4.783   8.271  0.1704  0.3491  1.4951
 3503THY    CA287554   5.953   4.884   8.301 -0.1484 -0.2482  0.2210
 3503THY    CP187555   5.898   5.008   8.365 -0.0846  0.4198 -0.0766
 3503THY    HP187556   5.792   5.002   8.392  0.1375 -3.4370  0.4680
 3503THY    CP287557   5.968   5.050   8.497 -0.9211 -0.6548 -0.0304
 3503THY    HP287558   5.921   4.999   8.582 -2.5270  2.2038  0.9601
 3503THY    HP387559   6.077   5.049   8.501 -0.8301  2.5910  1.1251
 3503THY    HP487560   5.944   5.154   8.523 -1.7612 -1.6021  3.5235
 3503THY    CP387561   5.903   5.118   8.260  0.5661 -0.2323  0.2867
 3503THY    HP587562   5.859   5.209   8.303 -0.4681 -1.3669  1.7223
 3503THY    HP687563   6.007   5.143   8.235  1.0148  0.0627  2.2687
 3503THY    HP787564   5.846   5.088   8.171  0.5471  1.8757 -0.4673
 3503THY    CA387565   6.096   4.864   8.280  0.2635 -0.1184  0.3298
 3503THY    HA387566   6.165   4.941   8.314 -1.6718  1.1565  1.5837
 3503THY    CA487567   6.135   4.741   8.220 -0.2176 -1.2910 -0.0442
 3503THY    HA487568   6.242   4.721   8.214 -0.1183 -0.9071  0.3673
 3503THY    CA587569   6.044   4.639   8.203 -0.8991  0.2305  0.7455
 3503THY    CM187570   6.100   4.506   8.155  0.6075 -0.0178  0.9362
 3503THY    HM187571   6.025   4.446   8.103 -1.4121  1.5050  1.9455
 3503THY    HM287572   6.178   4.537   8.084 -0.0871 -0.4767 -0.0439
 3503THY    HM387573   6.149   4.456   8.239 -1.3075 -2.0060  0.9508
 3503THY    CA687574   5.907   4.665   8.208  0.2787  0.2388  0.0442
 3503THY    HA687575   5.836   4.587   8.183  0.4959  0.6276 -1.9086
 3504THY      O87576   2.935   8.299   3.491  0.4231 -0.8447 -0.0620
 3504THY     HO87577   2.934   8.374   3.430 -0.5223  0.6770  1.7115
 3504THY    CA187578   2.812   8.252   3.506  0.2965  0.0279 -0.2369
 3504THY    CA287579   2.785   8.146   3.590  1.0693  0.2560  0.1167
 3504THY    CP187580   2.888   8.059   3.656  0.8367 -0.4905 -0.3543
 3504THY    HP187581   2.961   8.049   3.574 -0.2268  0.8164 -1.5250
 3504THY    CP287582   2.962   8.132   3.771  0.1177  0.3316  0.5944
 3504THY    HP287583   2.981   8.237   3.744  1.4155  0.0188  0.2856
 3504THY    HP387584   2.903   8.140   3.864 -0.9774  0.9349 -0.1342
 3504THY    HP487585   3.061   8.096   3.799  1.0825  1.3371 -1.4038
 3504THY    CP387586   2.861   7.928   3.719 -0.2631  0.0010  0.0455
 3504THY    HP587587   2.804   7.931   3.812  0.6708  0.4738  0.6220
 3504THY    HP687588   2.803   7.874   3.643 -0.1056 -0.7706  0.4620
 3504THY    HP787589   2.958   7.876   3.728  0.3152  0.9103 -0.8030
 3504THY    CA387590   2.649   8.112   3.609  0.5312 -0.3062  0.2221
 3504THY    HA387591   2.613   8.036   3.678 -0.8285  0.1935  0.1029
 3504THY    CA487592   2.551   8.185   3.541 -0.4123  0.6951  0.3248
 3504THY    HA487593   2.450   8.147   3.541 -0.4091  0.6732 -0.3791
 3504THY    CA587594   2.582   8.291   3.458  0.2623  0.3042  0.1743
 3504THY    CM187595   2.483   8.346   3.369 -0.6817  0.2115 -0.2089
 3504THY    HM187596   2.387   8.342   3.421  0.0166  1.8931  1.3358
 3504THY    HM287597   2.518   8.446   3.342  0.1783 -0.0781 -0.2106
 3504THY    HM387598   2.485   8.286   3.277 -0.1831  0.7518 -0.5573
 3504THY    CA687599   2.712   8.322   3.439  0.3940 -0.7871 -0.3559
 3504THY    HA687600   2.738   8.403   3.371 -0.7937  0.2045  0.3189
 3505THY      O87601   7.630   1.168   4.736 -0.4578 -0.4570 -0.4936
 3505THY     HO87602   7.579   1.244   4.771 -0.5798 -1.2063  1.0227
 3505THY    CA187603   7.551   1.114   4.642 -0.0709  0.9354 -0.0742
 3505THY    CA287604   7.592   0.996   4.576 -0.2974  0.0209  0.6062
 3505THY    CP187605   7.731   0.944   4.584  0.2375  0.4575 -0.1154
 3505THY    HP187606   7.789   0.991   4.664  0.0228  0.5310 -0.0002
 3505THY    CP287607   7.748   0.796   4.636  0.5015 -0.0025  0.0727
 3505THY    HP287608   7.855   0.778   4.631  0.7139  0.7142  1.3359
 3505THY    HP387609   7.701   0.777   4.734 -0.8508  0.5246 -0.4514
 3505THY    HP487610   7.699   0.724   4.570  1.0518  0.3276 -0.7062
 3505THY    CP387611   7.811   0.973   4.451  0.4508 -0.1193  0.9855
 3505THY    HP587612   7.853   1.075   4.457  0.3059 -0.0800  1.3334
 3505THY    HP687613   7.900   0.910   4.438  1.0775  0.6423  1.4229
 3505THY    HP787614   7.749   0.967   4.361  0.5488  1.8239  0.7368
 3505THY    CA387615   7.501   0.920   4.496 -0.4360  0.5155 -0.4711
 3505THY    HA387616   7.526   0.825   4.450 -1.7611 -1.7073  3.0068
 3505THY    CA487617   7.377   0.974   4.471 -0.2581  0.4977 -0.0113
 3505THY    HA487618   7.307   0.926   4.403 -1.8166  2.5440  0.0831
 3505THY    CA587619   7.336   1.091   4.535  0.4583 -0.2989  0.6065
 3505THY    CM187620   7.198   1.134   4.513  0.1030  0.1254  0.1022
 3505THY    HM187621   7.154   1.128   4.614 -2.6657 -1.1562 -1.0634
 3505THY    HM287622   7.194   1.236   4.475  0.7031  0.3456  0.6147
 3505THY    HM387623   7.137   1.071   4.446 -0.3851  0.9499 -0.2404
 3505THY    CA687624   7.425   1.161   4.620 -0.1772 -0.0429 -0.5431
 3505THY    HA687625   7.388   1.255   4.659  2.0747  1.0891 -0.9847
 3506THY      O87626   1.610   0.099   3.055  0.1487 -0.3881  0.1153
 3506THY     HO87627   1.529   0.066   3.097 -0.2687  0.7867  0.2755
 3506THY    CA187628   1.719   0.080   3.136  0.0141  0.2650 -0.1154
 3506THY    CA287629   1.839   0.155   3.137  0.9543  0.4449 -0.4469
 3506THY    CP187630   1.850   0.277   3.049 -0.7315  0.2187  0.1382
 3506THY    HP187631   1.759   0.294   2.991 -1.4354 -0.3027  1.0511
 3506THY    CP287632   1.873   0.398   3.145  0.2545  0.0559 -0.0926
 3506THY    HP287633   1.899   0.492   3.096  0.5680  0.1860  0.3119
 3506THY    HP387634   1.778   0.425   3.192  0.5068  1.5849 -0.4116
 3506THY    HP487635   1.947   0.384   3.225 -1.4967 -0.6450  1.4934
 3506THY    CP387636   1.970   0.274   2.950 -0.5644 -0.2693 -0.0979
 3506THY    HP587637   1.989   0.367   2.896 -0.4327 -0.7925 -0.9702
 3506THY    HP687638   2.060   0.255   3.009 -0.2483  0.9675 -0.1603
 3506THY    HP787639   1.967   0.188   2.882 -0.7145  0.2109 -0.7086
 3506THY    CA387640   1.946   0.118   3.226  0.0395  0.1963 -0.8414
 3506THY    HA387641   2.034   0.179   3.209 -1.5609  2.9636  0.1366
 3506THY    CA487642   1.931   0.013   3.312  0.5261  0.2513 -0.0298
 3506THY    HA487643   2.017  -0.032   3.362 -0.9418 -2.5080  0.1897
 3506THY    CA587644   1.816  -0.065   3.301  0.6770  0.1189 -0.1062
 3506THY    CM187645   1.815  -0.202   3.357 -0.5577  0.1871 -0.4532
 3506THY    HM187646   1.800  -0.273   3.274 -1.0711 -0.5795  0.2781
 3506THY    HM287647   1.907  -0.218   3.415 -0.6843 -0.2895 -0.3777
 3506THY    HM387648   1.731  -0.206   3.428 -1.9131  1.0841 -1.9347
 3506THY    CA687649   1.714  -0.032   3.215 -0.6618 -0.4247 -0.2629
 3506THY    HA687650   1.622  -0.090   3.212 -1.7914  1.3493 -1.5454
 3507THY      O87651   9.030   1.129   8.572 -0.4412  0.1280 -0.0641
 3507THY     HO87652   9.098   1.145   8.505  0.6819 -1.0029  0.7643
 3507THY    CA187653   8.975   1.250   8.605  0.0219  0.2480 -0.3325
 3507THY    CA287654   8.879   1.262   8.704 -0.1212 -0.6543 -0.0783
 3507THY    CP187655   8.813   1.147   8.770  0.0162  0.5968  0.1473
 3507THY    HP187656   8.838   1.062   8.705  0.1776  2.0061 -1.7114
 3507THY    CP287657   8.865   1.114   8.912  0.4676 -0.1359  0.6764
 3507THY    HP287658   8.841   1.196   8.980 -0.1473 -0.2876  0.6519
 3507THY    HP387659   8.825   1.021   8.955  1.6992 -0.6511  0.7457
 3507THY    HP487660   8.972   1.090   8.911  0.1207 -1.8674  0.9370
 3507THY    CP387661   8.660   1.158   8.769  0.1408  0.6650  0.1975
 3507THY    HP587662   8.620   1.062   8.735  1.9011  0.4531 -1.4531
 3507THY    HP687663   8.615   1.186   8.865  1.1104 -0.5852  1.0573
 3507THY    HP787664   8.624   1.228   8.693 -0.6997  0.0170 -0.0081
 3507THY    CA387665   8.840   1.392   8.738  0.5277  0.9269  0.9224
 3507THY    HA387666   8.759   1.402   8.810 -0.4468 -0.2604  0.0152
 3507THY    CA487667   8.893   1.501   8.669 -0.2816 -0.0089 -0.0742
 3507THY    HA487668   8.850   1.599   8.689  2.4194  1.2435 -0.0795
 3507THY    CA587669   8.990   1.483   8.570 -0.4930  0.4693 -0.1844
 3507THY    CM187670   9.036   1.604   8.494 -0.1792 -0.4162  0.3815
 3507THY    HM187671   9.131   1.640   8.537 -0.4520 -0.4566  1.0332
 3507THY    HM287672   9.048   1.599   8.385 -1.3411  0.7133  0.1726
 3507THY    HM387673   8.969   1.690   8.501  0.6628  0.2576  0.4360
 3507THY    CA687674   9.034   1.358   8.541  0.2207  0.2764 -0.4810
 3507THY    HA687675   9.097   1.347   8.453 -0.3740 -2.5051 -0.6414
 3508THY      O87676   1.292   9.647   6.361 -0.2688  0.3027  0.1063
 3508THY     HO87677   1.225   9.595   6.314  0.7556 -0.3866 -0.6333
 3508THY    CA187678   1.327   9.748   6.273 -0.1071 -0.5195 -0.4500
 3508THY    CA287679   1.425   9.843   6.305 -0.1710  0.9993  0.0229
 3508THY    CP187680   1.488   9.839   6.442 -0.2349  0.0387  0.3982
 3508THY    HP187681   1.419   9.786   6.509 -1.3575  1.0370  0.0743
 3508THY    CP287682   1.628   9.779   6.437  0.0687 -0.4700  0.9120
 3508THY    HP287683   1.706   9.846   6.398  0.0520 -0.7372  0.4138
 3508THY    HP387684   1.663   9.758   6.539  0.7487 -1.7578  0.4390
 3508THY    HP487685   1.619   9.676   6.400  1.0594 -1.3871  3.0386
 3508THY    CP387686   1.513   9.985   6.504 -0.3328 -0.1135 -0.3052
 3508THY    HP587687   1.421  10.045   6.510 -0.4078 -0.2261 -0.3313
 3508THY    HP687688   1.567   9.975   6.599 -1.3721 -0.4165  0.2765
 3508THY    HP787689   1.583  10.045   6.445  0.0067 -0.0951  0.1121
 3508THY    CA387690   1.465   9.934   6.207  0.5368  0.5522  0.2814
 3508THY    HA387691   1.538  10.012   6.229  0.5836  0.3493  0.8691
 3508THY    CA487692   1.406   9.924   6.081  0.6477  0.0827  0.7137
 3508THY    HA487693   1.447   9.992   6.007 -0.2880  0.7628  0.8081
 3508THY    CA587694   1.297   9.843   6.054  0.2421  0.1681  1.0211
 3508THY    CM187695   1.239   9.843   5.912  0.0137  0.1559 -0.3947
 3508THY    HM187696   1.254   9.922   5.837  0.4150 -0.5440 -1.0591
 3508THY    HM287697   1.247   9.744   5.866 -0.9255 -0.7140  1.2257
 3508THY    HM387698   1.131   9.844   5.931 -0.8214  1.5369 -4.2029
 3508THY    CA687699   1.261   9.749   6.153  0.3556 -0.3722 -0.1478
 3508THY    HA687700   1.191   9.673   6.122 -0.0712 -0.1324  0.2209
 3509THY      O87701   3.284   7.586   6.573  0.3247  0.3027 -0.4470
 3509THY     HO87702   3.340   7.613   6.648  1.1542 -0.0401 -0.9234
 3509THY    CA187703   3.291   7.671   6.471  0.3415  0.1633  0.3457
 3509THY    CA287704   3.202   7.661   6.361 -0.1944 -0.3943 -0.3972
 3509THY    CP187705   3.093   7.549   6.357 -0.4063  0.2793 -0.5775
 3509THY    HP187706   3.124   7.458   6.409 -1.3367 -0.1525 -0.7615
 3509THY    CP287707   2.979   7.601   6.437 -0.1886  0.1275 -0.1658
 3509THY    HP287708   3.022   7.644   6.528  0.9508 -0.4684 -0.4025
 3509THY    HP387709   2.920   7.676   6.385 -0.0744 -1.3708 -2.5951
 3509THY    HP487710   2.908   7.520   6.457 -0.7247  0.8007  0.6977
 3509THY    CP387711   3.056   7.487   6.221  0.2546 -0.0624 -0.2962
 3509THY    HP587712   2.965   7.426   6.225 -0.1609  0.5890  0.4810
 3509THY    HP687713   3.034   7.557   6.140 -1.1935  1.3582  1.2362
 3509THY    HP787714   3.141   7.429   6.185 -0.2572 -1.0374  0.0300
 3509THY    CA387715   3.221   7.751   6.258 -0.0320 -0.2753  0.2190
 3509THY    HA387716   3.143   7.755   6.182 -0.1249 -0.8871  0.2729
 3509THY    CA487717   3.329   7.837   6.256 -0.5865 -0.8915 -0.2639
 3509THY    HA487718   3.349   7.910   6.177  1.5357 -1.9899 -0.8284
 3509THY    CA587719   3.419   7.843   6.365  0.7676 -0.4727  0.1867
 3509THY    CM187720   3.530   7.939   6.373 -0.1052  0.0740  0.3252
 3509THY    HM187721   3.624   7.883   6.379 -0.8410 -1.1405  1.0084
 3509THY    HM287722   3.551   8.004   6.288  5.5838 -2.0892 -0.3839
 3509THY    HM387723   3.520   7.998   6.465 -3.4702  1.4397 -0.7479
 3509THY    CA687724   3.397   7.757   6.473 -0.4247 -0.5806 -0.6961
 3509THY    HA687725   3.466   7.753   6.557  0.2150 -0.2141 -1.1912
 3510THY      O87726   3.674   9.569   0.977  0.4433  0.1159 -0.0072
 3510THY     HO87727   3.588   9.572   0.933  0.7151  0.5315 -0.5174
 3510THY    CA187728   3.660   9.645   1.087  0.1679 -0.5697  0.0438
 3510THY    CA287729   3.762   9.644   1.180  0.0643 -0.6703  0.2034
 3510THY    CP187730   3.886   9.564   1.159 -0.1423  0.1450 -0.6535
 3510THY    HP187731   3.893   9.529   1.055 -0.3055 -0.2580 -0.5323
 3510THY    CP287732   4.019   9.638   1.188 -0.1295  0.2545  0.0644
 3510THY    HP287733   4.104   9.590   1.138  0.1440 -1.3917  1.9880
 3510THY    HP387734   4.013   9.735   1.137  1.4837 -0.4883 -1.6781
 3510THY    HP487735   4.045   9.644   1.294 -0.3449 -0.1280  0.1406
 3510THY    CP387736   3.873   9.442   1.256 -0.4821 -0.4222  0.5013
 3510THY    HP587737   3.856   9.480   1.357  0.4922 -0.8441  0.8381
 3510THY    HP687738   3.793   9.374   1.224 -1.0211  0.7122 -0.6478
 3510THY    HP787739   3.972   9.396   1.254 -0.1354  0.2184  2.0071
 3510THY    CA387740   3.753   9.738   1.281 -0.3066 -0.2773  0.3644
 3510THY    HA387741   3.832   9.742   1.356 -0.7682 -2.9182  1.0752
 3510THY    CA487742   3.635   9.808   1.303  0.0478  0.2459 -0.1833
 3510THY    HA487743   3.630   9.868   1.393 -0.9865 -0.5865  0.3264
 3510THY    CA587744   3.521   9.794   1.220 -0.4870  1.0495  0.1754
 3510THY    CM187745   3.393   9.859   1.252 -0.7811  0.3285 -0.2419
 3510THY    HM187746   3.393   9.934   1.332  4.0741 -0.0548  0.4199
 3510THY    HM287747   3.361   9.907   1.159 -1.9031  0.7699  0.3473
 3510THY    HM387748   3.319   9.784   1.281  0.9680 -0.3880  2.8584
 3510THY    CA687749   3.539   9.717   1.100  0.6898 -0.1155  1.1088
 3510THY    HA687750   3.462   9.711   1.024  1.5625  0.4378  0.1586
 3511THY      O87751   8.962   3.372   7.301  0.2037 -0.3821  0.5574
 3511THY     HO87752   9.041   3.425   7.319  0.2098 -1.0941  2.9663
 3511THY    CA187753   8.858   3.456   7.322  0.4910 -0.6879 -0.3250
 3511THY    CA287754   8.735   3.412   7.366  0.5836  0.3950 -0.1419
 3511THY    CP187755   8.709   3.259   7.397  0.5628 -0.6482 -0.1405
 3511THY    HP187756   8.772   3.196   7.334 -0.1196 -0.0168 -1.4841
 3511THY    CP287757   8.749   3.242   7.545 -0.1674  0.4743  0.2946
 3511THY    HP287758   8.719   3.320   7.615  1.5365  0.0968  1.5177
 3511THY    HP387759   8.711   3.146   7.580 -1.0180 -0.9607 -3.9449
 3511THY    HP487760   8.858   3.231   7.544 -0.1158  0.7796  1.5906
 3511THY    CP387761   8.562   3.221   7.374  1.0337 -0.5436 -0.5830
 3511THY    HP587762   8.503   3.271   7.451  2.0097 -0.3669  0.0625
 3511THY    HP687763   8.524   3.258   7.278 -1.7028  2.1070  1.3668
 3511THY    HP787764   8.551   3.112   7.384 -0.0870 -0.5558 -1.6646
 3511THY    CA387765   8.636   3.508   7.400 -0.8103  0.3113  0.1606
 3511THY    HA387766   8.533   3.478   7.420 -0.7011 -1.2019 -1.2682
 3511THY    CA487767   8.663   3.645   7.382 -0.0913  0.3233  0.1049
 3511THY    HA487768   8.576   3.708   7.398 -0.8593 -0.7968  0.4989
 3511THY    CA587769   8.784   3.689   7.331  0.4815 -0.4412  0.0125
 3511THY    CM187770   8.810   3.833   7.303 -0.5354 -0.5972  0.6974
 3511THY    HM187771   8.882   3.874   7.375 -0.7181 -0.8632  1.0388
 3511THY    HM287772   8.850   3.834   7.202 -1.8878 -1.2542  0.1293
 3511THY    HM387773   8.722   3.899   7.307 -0.7577 -0.6871 -1.6875
 3511THY    CA687774   8.880   3.596   7.304 -0.4322  0.6262  0.1663
 3511THY    HA687775   8.979   3.626   7.272  0.5573  1.2247  3.3619
 3512THY      O87776   8.631   1.770   0.528  0.4305 -0.2183 -0.4000
 3512THY     HO87777   8.562   1.838   0.535  0.5321 -0.1385 -0.1503
 3512THY    CA187778   8.582   1.666   0.462  0.1568 -0.2311  0.4097
 3512THY    CA287779   8.656   1.545   0.441  0.0107  0.1381 -0.3428
 3512THY    CP187780   8.783   1.539   0.522  0.1887 -0.4527  0.0569
 3512THY    HP187781   8.831   1.637   0.512  0.2675 -0.5166 -0.1937
 3512THY    CP287782   8.769   1.497   0.663 -0.2038 -0.4469 -0.4274
 3512THY    HP287783   8.693   1.550   0.722 -1.3499  0.2324 -2.3946
 3512THY    HP387784   8.726   1.396   0.667 -2.3680  0.4575  1.2664
 3512THY    HP487785   8.864   1.503   0.716 -0.4171 -0.0627 -0.0820
 3512THY    CP387786   8.884   1.454   0.451  0.1251  0.0629  0.6350
 3512THY    HP587787   8.897   1.485   0.347 -1.2608 -0.1726  0.3673
 3512THY    HP687788   8.981   1.437   0.498  1.3078 -1.1425 -2.0231
 3512THY    HP787789   8.852   1.350   0.450 -2.1856  0.7223  0.3763
 3512THY    CA387790   8.590   1.448   0.361 -0.5397  0.2677  0.9010
 3512THY    HA387791   8.628   1.347   0.349 -2.7151 -0.6580  1.2584
 3512THY    CA487792   8.463   1.484   0.300 -0.6903  0.1696 -0.3769
 3512THY    HA487793   8.419   1.406   0.238  2.1336 -1.4779 -0.5234
 3512THY    CA587794   8.398   1.608   0.321 -0.5757  0.6395  0.0432
 3512THY    CM187795   8.258   1.641   0.267  0.5436 -0.9552  0.0149
 3512THY    HM187796   8.174   1.593   0.318  1.2882 -3.2677 -0.8308
 3512THY    HM287797   8.247   1.750   0.259 -1.0470 -0.7472  3.3395
 3512THY    HM387798   8.249   1.601   0.165  0.9469  0.4659 -0.6132
 3512THY    CA687799   8.457   1.696   0.410 -0.4696  0.1660  0.9303
 3512THY    HA687800   8.404   1.786   0.439 -2.7470 -0.4061 -1.1336
 3513THY      O87801   7.592   3.530   4.614  0.8331  1.1347 -0.7875
 3513THY     HO87802   7.540   3.453   4.586  1.7268  0.4215 -0.5477
 3513THY    CA187803   7.514   3.616   4.678  0.4998 -0.2977 -0.6975
 3513THY    CA287804   7.550   3.732   4.756  0.5733  0.7683  1.0488
 3513THY    CP187805   7.702   3.757   4.760 -0.0738  0.6855  0.4557
 3513THY    HP187806   7.756   3.727   4.669 -1.5787 -0.0212 -0.2289
 3513THY    CP287807   7.723   3.908   4.784 -0.6260  0.0303 -0.4435
 3513THY    HP287808   7.696   3.922   4.889 -1.7966 -1.3295 -0.5386
 3513THY    HP387809   7.824   3.945   4.765  0.0748  0.1232  2.8809
 3513THY    HP487810   7.661   3.967   4.715 -0.1391  1.1677  0.0688
 3513THY    CP387811   7.778   3.684   4.870  0.2844  0.2653  0.3765
 3513THY    HP587812   7.750   3.578   4.877 -1.6249  0.7344  0.5006
 3513THY    HP687813   7.886   3.684   4.850 -0.0753  0.3589 -1.8037
 3513THY    HP787814   7.759   3.732   4.966  0.2984  1.2445 -0.0981
 3513THY    CA387815   7.451   3.796   4.833  0.7719 -0.1828  0.8731
 3513THY    HA387816   7.475   3.873   4.906 -0.6719 -0.4408  1.6591
 3513THY    CA487817   7.318   3.756   4.808  0.7263  0.0214 -0.2146
 3513THY    HA487818   7.242   3.802   4.871  0.7834 -1.0638  0.6771
 3513THY    CA587819   7.281   3.649   4.728 -0.4430 -0.5587 -0.5975
 3513THY    CM187820   7.136   3.607   4.711  0.0532 -0.5456 -0.9773
 3513THY    HM187821   7.107   3.541   4.794  0.1480  0.0291 -0.4796
 3513THY    HM287822   7.068   3.687   4.742  0.0892 -1.2674  1.1954
 3513THY    HM387823   7.112   3.561   4.615  2.1706  1.2200 -2.4625
 3513THY    CA687824   7.381   3.578   4.668 -0.3685  1.0160  0.1937
 3513THY    HA687825   7.349   3.501   4.598  0.5530 -0.2816  1.1589
 3514THY      O87826   4.617   6.910   7.699 -0.0867  0.0319 -0.3742
 3514THY     HO87827   4.616   6.832   7.641  0.4325 -2.0439  2.1809
 3514THY    CA187828   4.508   6.980   7.669 -0.0786 -0.1301  0.0258
 3514THY    CA287829   4.500   7.125   7.684 -0.2075 -0.3925  0.6573
 3514THY    CP187830   4.611   7.186   7.759  0.2005 -0.9048  0.8541
 3514THY    HP187831   4.708   7.145   7.731  0.5081  1.5669 -2.2875
 3514THY    CP287832   4.626   7.338   7.712  0.0034 -0.3521  0.4281
 3514THY    HP287833   4.723   7.388   7.716  1.4326 -2.9139 -0.3784
 3514THY    HP387834   4.604   7.337   7.604  0.8177  2.4906  0.1364
 3514THY    HP487835   4.562   7.409   7.766  1.1355  2.0015 -1.1280
 3514THY    CP387836   4.584   7.177   7.910 -0.2155  0.4263 -0.6181
 3514THY    HP587837   4.614   7.079   7.948  0.3752  0.6265 -0.5619
 3514THY    HP687838   4.655   7.238   7.968  0.0337  0.7557 -1.2527
 3514THY    HP787839   4.479   7.199   7.935 -0.6157 -0.6591 -1.3032
 3514THY    CA387840   4.378   7.192   7.636 -0.4973 -0.0895 -0.6364
 3514THY    HA387841   4.363   7.298   7.649  0.1071  0.2898 -2.6226
 3514THY    CA487842   4.283   7.117   7.569  0.3126  0.1736  0.2944
 3514THY    HA487843   4.192   7.167   7.536  0.7760  0.2846 -0.8862
 3514THY    CA587844   4.292   6.982   7.559  0.3733 -0.7948  0.2114
 3514THY    CM187845   4.189   6.910   7.480  0.1398 -0.2014  0.3426
 3514THY    HM187846   4.118   6.982   7.437 -0.6538  0.7457  3.0675
 3514THY    HM287847   4.236   6.847   7.403 -1.4191 -0.3553 -0.5281
 3514THY    HM387848   4.128   6.851   7.549 -0.4716  0.5098  0.4298
 3514THY    CA687849   4.400   6.910   7.611 -0.2147 -0.2568 -0.1310
 3514THY    HA687850   4.408   6.803   7.595  0.7691 -0.1613 -0.3664
 3515THY      O87851   4.753   4.573   7.091 -0.9156  0.5689 -0.1220
 3515THY     HO87852   4.815   4.618   7.032 -1.3495  1.6682  0.2290
 3515THY    CA187853   4.807   4.449   7.116 -0.5372  0.3672 -0.0739
 3515THY    CA287854   4.738   4.347   7.167 -0.2619 -0.3229  0.4090
 3515THY    CP187855   4.597   4.365   7.219 -0.3484  0.3685 -0.6485
 3515THY    HP187856   4.569   4.471   7.225  0.3431  0.4740  3.0374
 3515THY    CP287857   4.495   4.282   7.134 -0.0460 -0.7883  0.4354
 3515THY    HP287858   4.516   4.177   7.156 -1.7201 -1.3150 -0.3641
 3515THY    HP387859   4.388   4.287   7.156 -0.3821 -3.5392 -0.2597
 3515THY    HP487860   4.513   4.301   7.027 -0.1867 -0.9168  0.3887
 3515THY    CP387861   4.603   4.321   7.369 -0.2973 -0.3310 -0.5229
 3515THY    HP587862   4.498   4.329   7.401  0.1034  3.3108  0.3327
 3515THY    HP687863   4.634   4.216   7.377 -1.9454 -0.7384  1.4069
 3515THY    HP787864   4.669   4.382   7.431 -0.7967  0.1400 -0.4448
 3515THY    CA387865   4.800   4.218   7.163 -0.8889 -0.1506  0.7006
 3515THY    HA387866   4.746   4.128   7.190 -1.1873 -0.8979 -2.0348
 3515THY    CA487867   4.930   4.205   7.102  0.3905  0.0751  0.3528
 3515THY    HA487868   4.976   4.108   7.089  1.1344  0.4945 -0.1815
 3515THY    CA587869   4.998   4.314   7.053  0.0856 -0.4087  0.0830
 3515THY    CM187870   5.142   4.307   7.012 -0.5927  0.4216 -0.2564
 3515THY    HM187871   5.166   4.370   6.926  0.1821 -0.2060 -0.5068
 3515THY    HM287872   5.202   4.337   7.099 -0.1125  2.0160 -1.1060
 3515THY    HM387873   5.170   4.206   6.981 -1.3546  0.7944 -2.3242
 3515THY    CA687874   4.937   4.442   7.065 -0.2106 -0.5469 -0.6531
 3515THY    HA687875   4.991   4.534   7.043  1.0259 -0.7365  1.3342
 3516THY      O87876   2.411   8.075   9.864  0.5651  0.2012  0.1080
 3516THY     HO87877   2.323   8.115   9.860  0.1106 -0.6017  1.4452
 3516THY    CA187878   2.401   7.947   9.862 -0.1356  1.0317  0.1544
 3516THY    CA287879   2.474   7.865   9.954 -0.0344  0.2568 -0.5847
 3516THY    CP187880   2.539   7.907  10.086  0.0097 -0.5679  0.5876
 3516THY    HP187881   2.503   8.008  10.106 -0.1001  0.0087 -2.1305
 3516THY    CP287882   2.499   7.823  10.210 -0.0192 -0.1794  0.4040
 3516THY    HP287883   2.569   7.842  10.292 -0.5511 -0.6811  0.9834
 3516THY    HP387884   2.399   7.851  10.246 -0.0168  1.9386 -1.0623
 3516THY    HP487885   2.506   7.714  10.197  0.2478  0.0794 -2.2892
 3516THY    CP387886   2.693   7.914  10.093  0.0370  0.2998  0.6082
 3516THY    HP587887   2.748   7.821  10.112  0.7992  1.1380  2.8435
 3516THY    HP687888   2.725   7.962  10.000 -2.0098 -1.0417 -0.8748
 3516THY    HP787889   2.713   7.978  10.180  0.5480  1.3719 -0.2694
 3516THY    CA387890   2.488   7.734   9.908 -0.1045  0.4547  0.3220
 3516THY    HA387891   2.536   7.659   9.971 -0.4788 -0.7454 -0.7896
 3516THY    CA487892   2.424   7.683   9.792 -0.6972 -0.6425 -0.3670
 3516THY    HA487893   2.432   7.576   9.778 -1.0341 -0.5752 -1.1370
 3516THY    CA587894   2.338   7.768   9.713 -0.2790  0.3115 -0.0509
 3516THY    CM187895   2.272   7.713   9.590 -0.2223  0.4841 -0.9170
 3516THY    HM187896   2.350   7.669   9.528  0.4672  0.0962  0.2028
 3516THY    HM287897   2.207   7.633   9.627  1.1441 -0.4878 -0.5667
 3516THY    HM387898   2.228   7.780   9.514  0.3296 -0.3680 -2.0179
 3516THY    CA687899   2.339   7.898   9.745  0.3198  0.5137  0.2037
 3516THY    HA687900   2.307   7.977   9.678  1.6557  2.7872  2.1015
 3517THY      O87901   2.337   7.238   4.583  0.1630  0.4436  0.0136
 3517THY     HO87902   2.430   7.257   4.561  0.5082  0.7457  1.6334
 3517THY    CA187903   2.299   7.131   4.516 -0.5754 -0.2196  0.3958
 3517THY    CA287904   2.164   7.112   4.482  0.8890 -0.0113 -0.4290
 3517THY    CP187905   2.053   7.203   4.532 -0.0603 -0.1566  0.2973
 3517THY    HP187906   2.103   7.281   4.591  0.6346 -0.0538 -0.4188
 3517THY    CP287907   1.981   7.270   4.413 -0.6286 -0.1285  0.7263
 3517THY    HP287908   2.066   7.295   4.347  1.7316 -2.0310  2.8121
 3517THY    HP387909   1.925   7.200   4.350 -0.7455 -0.5784  1.3240
 3517THY    HP487910   1.916   7.354   4.438  2.1755  2.6079 -0.5436
 3517THY    CP387911   1.941   7.131   4.616 -0.3124  0.7100  1.0111
 3517THY    HP587912   1.878   7.219   4.632 -2.1546  0.5121 -3.5857
 3517THY    HP687913   1.872   7.065   4.563  2.7808 -1.1144 -1.0573
 3517THY    HP787914   1.968   7.080   4.709 -1.7322 -3.9725 -0.8594
 3517THY    CA387915   2.128   6.996   4.402 -0.5411 -0.2492  0.1601
 3517THY    HA387916   2.025   6.976   4.374 -1.1571  2.9446 -0.1755
 3517THY    CA487917   2.233   6.905   4.362  0.2013 -0.0846 -0.2487
 3517THY    HA487918   2.210   6.822   4.296  1.4467  0.6856 -1.7330
 3517THY    CA587919   2.366   6.928   4.397 -0.3339  0.0933 -0.6155
 3517THY    CM187920   2.473   6.835   4.363 -0.3209 -0.1369  0.3481
 3517THY    HM187921   2.534   6.880   4.284  0.1692 -0.1824  0.6942
 3517THY    HM287922   2.527   6.818   4.457  1.1079  3.9410  0.4392
 3517THY    HM387923   2.434   6.745   4.313  3.3205 -0.5604 -2.1061
 3517THY    CA687924   2.399   7.050   4.465 -0.3971 -0.2168 -0.4391
 3517THY    HA687925   2.501   7.073   4.492 -1.1183  0.0496  2.3819
 3518THY      O87926   7.700   4.013   6.907 -0.2181  0.8134 -0.0855
 3518THY     HO87927   7.646   4.036   6.985 -0.3746  0.4977 -0.0962
 3518THY    CA187928   7.829   4.035   6.942 -0.1981  0.0228 -0.2021
 3518THY    CA287929   7.942   3.998   6.860 -0.0547 -0.4936 -0.2220
 3518THY    CP187930   7.925   3.928   6.729 -0.0246  0.1492 -0.3714
 3518THY    HP187931   7.820   3.904   6.712  0.1152 -1.9481  1.3037
 3518THY    CP287932   7.991   3.999   6.613 -0.1723  0.4448 -0.1216
 3518THY    HP287933   7.986   4.109   6.617 -0.9100  0.4358 -0.5151
 3518THY    HP387934   8.097   3.975   6.617 -0.1801  0.3097 -0.6662
 3518THY    HP487935   7.939   3.965   6.523 -0.5121  1.1147 -0.1918
 3518THY    CP387936   8.001   3.791   6.741 -0.7894  0.0826  0.4299
 3518THY    HP587937   7.958   3.713   6.804 -0.3572 -2.5844 -2.3295
 3518THY    HP687938   8.005   3.741   6.643 -0.5130  0.1330  0.4159
 3518THY    HP787939   8.107   3.810   6.760 -0.5031  1.3705 -1.9694
 3518THY    CA387940   8.065   4.056   6.897 -0.0386 -0.6956  0.5483
 3518THY    HA387941   8.147   4.059   6.826 -0.5014  0.1609  0.0375
 3518THY    CA487942   8.071   4.135   7.013  0.0237 -0.5340 -0.0173
 3518THY    HA487943   8.169   4.177   7.033  0.4328 -1.9222  1.0372
 3518THY    CA587944   7.961   4.164   7.097 -0.5824  0.0360  0.0128
 3518THY    CM187945   7.972   4.259   7.216  0.2351 -0.2163  0.4043
 3518THY    HM187946   7.910   4.226   7.300 -0.4733 -0.1143 -0.0758
 3518THY    HM287947   8.076   4.274   7.249 -0.1651 -0.6701  1.9514
 3518THY    HM387948   7.936   4.356   7.182  1.3740 -0.4960 -1.7688
 3518THY    CA687949   7.838   4.105   7.059 -0.0184 -0.2766 -0.3945
 3518THY    HA687950   7.749   4.129   7.117 -0.5825 -0.4909 -1.1414
 3519THY      O87951   1.268   2.503   2.335 -0.2619  0.2112  0.5557
 3519THY     HO87952   1.364   2.511   2.343  0.0397 -2.9230  1.1487
 3519THY    CA187953   1.237   2.469   2.201  0.4748  0.4755 -0.3384
 3519THY    CA287954   1.117   2.398   2.161 -0.5169  0.2776  0.0891
 3519THY    CP187955   1.018   2.336   2.261 -0.3264 -0.4324 -0.3301
 3519THY    HP187956   1.064   2.354   2.359  0.4969 -0.2422 -0.7463
 3519THY    CP287957   0.885   2.413   2.268 -0.1439  0.0277 -0.0150
 3519THY    HP287958   0.837   2.405   2.170 -1.1400  2.1214  0.2429
 3519THY    HP387959   0.812   2.374   2.340  2.2029  0.7257  2.9482
 3519THY    HP487960   0.886   2.517   2.301 -2.1426  0.3086 -0.6633
 3519THY    CP387961   1.003   2.180   2.243 -0.1698  0.2433 -0.1388
 3519THY    HP587962   0.943   2.160   2.153 -0.0403  0.0691 -0.1873
 3519THY    HP687963   1.101   2.130   2.239 -0.0126  0.5116  0.2634
 3519THY    HP787964   0.963   2.137   2.335  2.1820  2.2261  1.9856
 3519THY    CA387965   1.097   2.380   2.020 -0.7211 -0.3954  0.2414
 3519THY    HA387966   1.002   2.346   1.979 -0.8062  0.6278 -0.4386
 3519THY    CA487967   1.185   2.440   1.926  0.6495 -0.2897 -0.0826
 3519THY    HA487968   1.172   2.441   1.819  2.0193  0.3361 -0.2605
 3519THY    CA587969   1.289   2.515   1.963  0.0946 -0.3482 -0.0446
 3519THY    CM187970   1.375   2.583   1.857 -1.0774  0.0930 -0.0776
 3519THY    HM187971   1.311   2.611   1.773  0.8488  0.4566 -1.4954
 3519THY    HM287972   1.434   2.670   1.889  0.1947 -0.5331 -0.6521
 3519THY    HM387973   1.452   2.512   1.825 -0.7482 -0.1579  1.2109
 3519THY    CA687974   1.312   2.532   2.103  0.3667 -0.6934  0.0161
 3519THY    HA687975   1.383   2.612   2.120 -1.7277  1.5565 -1.1675
 3520THY      O87976   3.006   8.563   8.139  0.1086 -0.8196  0.4269
 3520THY     HO87977   2.985   8.651   8.103  0.4478 -0.3117  1.4355
 3520THY    CA187978   3.054   8.585   8.262  0.4862  0.2712 -0.5914
 3520THY    CA287979   3.150   8.500   8.315 -0.2905 -0.2495  0.2813
 3520THY    CP187980   3.216   8.403   8.218 -0.0153  0.0362 -0.0935
 3520THY    HP187981   3.143   8.356   8.152 -0.3917  2.0972 -1.2225
 3520THY    CP287982   3.313   8.483   8.138 -0.0163  0.3742  0.5238
 3520THY    HP287983   3.382   8.429   8.072  0.5440  3.1428 -1.2820
 3520THY    HP387984   3.257   8.552   8.075 -1.1230 -1.4771 -0.5982
 3520THY    HP487985   3.385   8.539   8.199  2.1281  0.4401 -1.9052
 3520THY    CP387986   3.287   8.283   8.292  0.6301  0.5684 -0.5142
 3520THY    HP587987   3.363   8.320   8.361  0.5874  0.0841 -0.2061
 3520THY    HP687988   3.209   8.243   8.357 -1.2095  1.2382 -2.1973
 3520THY    HP787989   3.328   8.209   8.222 -0.9450  0.2416 -1.1590
 3520THY    CA387990   3.190   8.525   8.449  0.1863 -0.9122 -0.7353
 3520THY    HA387991   3.267   8.461   8.489 -0.3032 -1.1450 -0.1469
 3520THY    CA487992   3.116   8.623   8.530  0.2036 -0.5191  0.2561
 3520THY    HA487993   3.139   8.633   8.636  1.9455  0.1455 -0.1446
 3520THY    CA587994   3.015   8.698   8.475  0.2279  0.2781 -1.0285
 3520THY    CM187995   2.920   8.770   8.570 -0.3392 -0.2371  0.8511
 3520THY    HM187996   2.985   8.795   8.655  0.6476  1.0854 -0.2395
 3520THY    HM287997   2.877   8.861   8.526 -0.7903 -0.9901 -0.2824
 3520THY    HM387998   2.839   8.706   8.605 -1.7811  1.3460  0.4979
 3520THY    CA687999   2.987   8.689   8.338 -0.2505  0.4211  0.5419
 3520THY    HA688000   2.910   8.743   8.284 -0.8256  0.1365  1.0727
 3521THY      O88001   8.349   0.532   9.622  0.0944  0.0535  0.4309
 3521THY     HO88002   8.291   0.507   9.548  1.7421 -2.5089 -0.1547
 3521THY    CA188003   8.423   0.419   9.641 -0.0699 -0.4048 -0.6509
 3521THY    CA288004   8.548   0.430   9.711 -0.3352  0.8784 -0.1102
 3521THY    CP188005   8.616   0.568   9.714  0.1865  0.3111  0.8506
 3521THY    HP188006   8.562   0.630   9.641  0.5569  1.0578  1.2043
 3521THY    CP288007   8.590   0.630   9.846 -0.3449  0.3382  0.3823
 3521THY    HP288008   8.630   0.732   9.845  1.8334 -0.4521  0.7261
 3521THY    HP388009   8.484   0.633   9.872 -0.3337  0.4437  0.4153
 3521THY    HP488010   8.642   0.575   9.926  0.8192 -0.2193 -0.7188
 3521THY    CP388011   8.765   0.572   9.680 -0.3756  0.0668  0.9741
 3521THY    HP588012   8.790   0.508   9.594 -3.0133  0.6844 -0.3744
 3521THY    HP688013   8.797   0.673   9.652  1.9603 -0.4957  1.3996
 3521THY    HP788014   8.825   0.537   9.765  0.8360  1.4350  0.7188
 3521THY    CA388015   8.626   0.310   9.732 -0.1325 -0.1099 -0.3553
 3521THY    HA388016   8.731   0.308   9.761 -0.2890 -1.3504  0.1782
 3521THY    CA488017   8.568   0.194   9.696 -0.4112 -0.6035 -0.0396
 3521THY    HA488018   8.634   0.108   9.706  0.2508 -0.1232 -0.1761
 3521THY    CA588019   8.440   0.187   9.650 -0.3070 -0.2422  0.2061
 3521THY    CM188020   8.366   0.055   9.622 -0.0849 -0.5535 -0.1115
 3521THY    HM188021   8.439  -0.025   9.605  0.2369 -0.7893  2.0053
 3521THY    HM288022   8.323   0.028   9.719  0.7164 -1.2798  0.0483
 3521THY    HM388023   8.293   0.052   9.540  0.8588 -1.0667 -0.9503
 3521THY    CA688024   8.371   0.299   9.611  0.1456 -0.2663  0.9755
 3521THY    HA688025   8.272   0.287   9.569  0.1578  0.8398  0.5995
 3522THY      O88026   4.718   3.382   3.134 -0.2468  0.0135 -0.5974
 3522THY     HO88027   4.720   3.479   3.141 -2.5416  0.0029  2.7464
 3522THY    CA188028   4.594   3.347   3.092  0.3250  0.1510  0.0188
 3522THY    CA288029   4.549   3.217   3.093 -0.0570 -0.0095  0.0192
 3522THY    CP188030   4.631   3.097   3.141  0.1902 -0.0572 -0.1941
 3522THY    HP188031   4.729   3.138   3.168  0.5253 -1.3490  0.6682
 3522THY    CP288032   4.571   3.042   3.273  0.0818  0.1210  0.6519
 3522THY    HP288033   4.623   2.952   3.310 -0.2813 -0.3029  0.1460
 3522THY    HP388034   4.573   3.122   3.347 -0.3395  1.0061 -0.2749
 3522THY    HP488035   4.469   3.014   3.245  0.4911 -0.5916 -0.1758
 3522THY    CP388036   4.648   2.985   3.042  0.1340 -0.5500 -0.2436
 3522THY    HP588037   4.731   2.928   3.085 -0.7192 -1.2251  0.5348
 3522THY    HP688038   4.558   2.922   3.042 -1.3348  1.3862  2.0490
 3522THY    HP788039   4.654   3.012   2.936 -1.4027 -1.5934 -0.6316
 3522THY    CA388040   4.419   3.194   3.043  0.7254  1.0207  0.3264
 3522THY    HA388041   4.375   3.095   3.042 -0.4470  1.5202 -0.7264
 3522THY    CA488042   4.338   3.299   2.991 -0.4638 -0.5917  0.1896
 3522THY    HA488043   4.237   3.278   2.958  0.2081 -3.6114 -0.2708
 3522THY    CA588044   4.386   3.425   3.001 -0.2339 -0.6736 -0.9210
 3522THY    CM188045   4.301   3.545   2.983  0.0783 -0.4673 -0.8435
 3522THY    HM188046   4.200   3.512   2.954  0.2149 -2.1032  0.4364
 3522THY    HM288047   4.305   3.614   3.068 -0.1000 -1.8876  0.3513
 3522THY    HM388048   4.347   3.603   2.902 -0.6101  0.5760 -0.5143
 3522THY    CA688049   4.517   3.449   3.053 -0.0403  1.1955  0.1968
 3522THY    HA688050   4.552   3.551   3.042  0.5573  0.8534 -1.3572
 3523THY      O88051   9.184   7.678   2.654  0.1146  0.0217  0.3218
 3523THY     HO88052   9.219   7.755   2.700 -1.5148  1.8913 -1.3476
 3523THY    CA188053   9.123   7.727   2.541 -0.4798 -0.1841  0.1496
 3523THY    CA288054   9.089   7.635   2.433  0.4735 -0.0152 -0.5275
 3523THY    CP188055   9.102   7.486   2.452 -0.5714  0.4004  0.0890
 3523THY    HP188056   9.117   7.464   2.558  2.1174  0.8882 -0.1147
 3523THY    CP288057   8.986   7.410   2.405  0.0573  0.5959  0.0488
 3523THY    HP288058   8.904   7.459   2.459 -0.2906 -0.1064  0.1674
 3523THY    HP388059   8.974   7.396   2.297  1.9285  0.9616 -0.2389
 3523THY    HP488060   8.988   7.309   2.446  0.7494  0.5111 -0.1777
 3523THY    CP388061   9.227   7.430   2.376  0.2611 -0.2828  0.5258
 3523THY    HP588062   9.253   7.332   2.418 -0.5102 -0.7489 -0.0491
 3523THY    HP688063   9.187   7.406   2.277 -3.3180  0.4971  1.6443
 3523THY    HP788064   9.322   7.485   2.376  0.7146 -1.0311 -0.4169
 3523THY    CA388065   9.025   7.689   2.322  0.3830  0.5966  0.7549
 3523THY    HA388066   8.985   7.626   2.243  0.6912  0.6087  0.5895
 3523THY    CA488067   8.998   7.827   2.316  0.0345 -0.0494 -0.0324
 3523THY    HA488068   8.934   7.861   2.235 -2.8491 -0.4997  1.9252
 3523THY    CA588069   9.031   7.918   2.423  0.3514  0.5706  0.0946
 3523THY    CM188070   8.964   8.049   2.428  0.3886 -0.0059  0.4146
 3523THY    HM188071   8.867   8.037   2.478 -0.2609 -1.0149 -1.0288
 3523THY    HM288072   9.029   8.126   2.471  0.2180  1.2274 -1.4267
 3523THY    HM388073   8.950   8.090   2.328 -3.3812  0.8831  1.1609
 3523THY    CA688074   9.097   7.866   2.539  0.0433 -0.3648 -0.1645
 3523THY    HA688075   9.125   7.921   2.628 -1.0715  0.5223 -0.3342
 3524THY      O88076   8.605   5.362   3.316 -0.5028 -0.3840 -0.0135
 3524THY     HO88077   8.528   5.310   3.289  1.1347 -1.2686 -3.5433
 3524THY    CA188078   8.609   5.464   3.224  0.2433 -0.5044  0.5711
 3524THY    CA288079   8.716   5.548   3.216 -0.4074 -0.6421 -0.6234
 3524THY    CP188080   8.829   5.531   3.319  0.2052  0.3527 -0.1886
 3524THY    HP188081   8.841   5.428   3.354  1.8699  0.0740 -1.4641
 3524THY    CP288082   8.956   5.581   3.259 -0.0443 -0.3255 -0.0407
 3524THY    HP288083   9.034   5.548   3.328  0.2917  0.4095 -0.0601
 3524THY    HP388084   8.978   5.538   3.160 -0.6018  0.2729 -0.4313
 3524THY    HP488085   8.970   5.690   3.255  0.8907 -0.3780  1.1107
 3524THY    CP388086   8.815   5.615   3.446  0.2318  0.4694  0.4917
 3524THY    HP588087   8.882   5.585   3.527  0.0357 -2.1671 -0.2422
 3524THY    HP688088   8.830   5.722   3.427  1.9108  0.2191  0.2150
 3524THY    HP788089   8.713   5.608   3.484  0.4440  3.0585  1.7440
 3524THY    CA388090   8.714   5.661   3.126 -0.7786 -0.1719 -0.2198
 3524THY    HA388091   8.801   5.727   3.130  0.1176 -1.3814  2.7272
 3524THY    CA488092   8.611   5.673   3.033  0.2319  0.3075  0.1379
 3524THY    HA488093   8.617   5.750   2.958  2.2119 -1.1690 -1.3274
 3524THY    CA588094   8.504   5.586   3.040  0.0653  0.9095 -0.6229
 3524THY    CM188095   8.379   5.599   2.958 -0.3096 -0.4346  0.2330
 3524THY    HM188096   8.288   5.565   3.010 -0.2269 -1.4575 -0.2748
 3524THY    HM288097   8.367   5.702   2.922 -0.0676 -0.7156 -0.6768
 3524THY    HM388098   8.390   5.522   2.881  2.4330 -0.1584  0.2687
 3524THY    CA688099   8.505   5.483   3.136  0.2395  0.7141  0.1368
 3524THY    HA688100   8.421   5.415   3.145  1.7351 -0.8789  3.3316
 3525THY      O88101   1.578   5.377   5.081 -0.1444 -0.2507  0.3903
 3525THY     HO88102   1.657   5.333   5.117  1.7004  1.2885 -1.5674
 3525THY    CA188103   1.470   5.347   5.150 -0.5508 -0.2009  0.6469
 3525THY    CA288104   1.345   5.389   5.099 -0.2278  0.5082 -0.0542
 3525THY    CP188105   1.337   5.462   4.967  0.0262  0.4826  0.1344
 3525THY    HP188106   1.407   5.426   4.890 -1.0111  0.7629 -0.9704
 3525THY    CP288107   1.200   5.446   4.891 -0.1047 -0.2302  0.1846
 3525THY    HP288108   1.122   5.517   4.920 -0.9478 -0.9704 -0.2332
 3525THY    HP388109   1.217   5.471   4.786  0.7287  0.7637  0.5399
 3525THY    HP488110   1.170   5.341   4.898 -2.2475  0.2238 -1.2756
 3525THY    CP388111   1.371   5.612   4.974  0.3290  0.9022  0.0826
 3525THY    HP588112   1.369   5.652   4.872  2.0099  2.2861  0.5544
 3525THY    HP688113   1.302   5.655   5.047  1.2223  0.9794  0.9072
 3525THY    HP788114   1.474   5.637   5.001  1.4029 -2.5105 -0.3498
 3525THY    CA388115   1.231   5.360   5.171 -0.6698 -0.5486 -0.8994
 3525THY    HA388116   1.132   5.390   5.138 -0.9191  1.5510  1.5259
 3525THY    CA488117   1.239   5.300   5.296 -0.2819 -0.1972 -0.1677
 3525THY    HA488118   1.150   5.290   5.358 -0.4753  1.6540 -0.1045
 3525THY    CA588119   1.361   5.248   5.339  0.3442 -0.3478 -0.4797
 3525THY    CM188120   1.370   5.168   5.470  0.6610 -0.3401 -0.0779
 3525THY    HM188121   1.314   5.213   5.553 -0.5893 -0.8900 -0.6083
 3525THY    HM288122   1.332   5.066   5.458 -2.4780  0.3986  2.3550
 3525THY    HM388123   1.476   5.163   5.498  0.9995 -0.9906 -1.3861
 3525THY    CA688124   1.481   5.276   5.263  0.5703  0.0016  0.1891
 3525THY    HA688125   1.581   5.249   5.298 -0.2752 -0.1983  2.6298
 3526THY      O88126   6.646   2.191   6.246 -0.2080 -0.3191 -0.3527
 3526THY     HO88127   6.643   2.268   6.186  0.2059 -0.8261 -1.0512
 3526THY    CA188128   6.553   2.101   6.219  0.7806  0.0676 -0.6859
 3526THY    CA288129   6.540   1.982   6.288 -0.5147  0.0471 -0.1156
 3526THY    CP188130   6.630   1.951   6.405 -0.3791 -0.7082 -0.2826
 3526THY    HP188131   6.699   2.036   6.414  0.4129 -1.3043 -0.7152
 3526THY    CP288132   6.558   1.936   6.545 -0.6824 -0.4185 -0.5057
 3526THY    HP288133   6.634   1.919   6.622  0.0966  1.6576 -0.7510
 3526THY    HP388134   6.498   2.027   6.554  0.8063  0.4158  1.8351
 3526THY    HP488135   6.499   1.843   6.537 -1.1173 -0.0242 -2.6048
 3526THY    CP388136   6.715   1.824   6.390 -0.7511  0.2543  1.1068
 3526THY    HP588137   6.762   1.817   6.291  1.0438  0.3120  1.9095
 3526THY    HP688138   6.791   1.822   6.470 -2.5712 -0.8671  2.9106
 3526THY    HP788139   6.653   1.734   6.400  0.2460 -0.2670  3.1242
 3526THY    CA388140   6.443   1.885   6.249 -0.8323  0.3390  0.1286
 3526THY    HA388141   6.440   1.790   6.301 -1.2882 -0.2621 -0.9750
 3526THY    CA488142   6.355   1.921   6.143 -0.0589  0.0747  0.1733
 3526THY    HA488143   6.271   1.856   6.121 -0.7291  0.8559  0.4198
 3526THY    CA588144   6.371   2.038   6.069 -0.5092 -0.0504 -0.0142
 3526THY    CM188145   6.275   2.067   5.960  0.0685  0.8200 -0.2235
 3526THY    HM188146   6.205   2.138   6.005  1.2843  0.9657  1.5218
 3526THY    HM288147   6.328   2.112   5.875  1.5441  3.0375  1.7281
 3526THY    HM388148   6.232   1.971   5.931 -0.1724  1.5402 -2.4282
 3526THY    CA688149   6.473   2.121   6.105 -0.0883  0.2944 -0.4873
 3526THY    HA688150   6.495   2.208   6.044 -1.6656 -1.1923 -3.4467
 3527THY      O88151   8.957   5.921   5.090 -0.0223  0.2833  0.0927
 3527THY     HO88152   9.051   5.940   5.109 -0.1753 -0.0600  1.2756
 3527THY    CA188153   8.933   5.793   5.109 -0.0478  0.5833 -0.7843
 3527THY    CA288154   8.800   5.747   5.118  0.5572  0.7049 -0.4985
 3527THY    CP188155   8.685   5.855   5.123  0.2627  0.6056  0.8425
 3527THY    HP188156   8.702   5.954   5.079 -1.8787  0.5928 -0.1491
 3527THY    CP288157   8.556   5.807   5.052 -0.6565  0.3604  0.3270
 3527THY    HP288158   8.510   5.724   5.107 -0.1787  0.2590  0.5802
 3527THY    HP388159   8.487   5.892   5.059 -1.5318 -0.1397 -1.5518
 3527THY    HP488160   8.564   5.798   4.943 -1.7544  0.1762  0.2468
 3527THY    CP388161   8.652   5.896   5.267 -0.2922 -0.1051 -0.5413
 3527THY    HP588162   8.723   5.961   5.320 -2.2837  0.2966  1.7976
 3527THY    HP688163   8.563   5.958   5.266  0.6137  1.2953  0.9282
 3527THY    HP788164   8.634   5.809   5.332 -3.8703  0.1327 -1.0260
 3527THY    CA388165   8.778   5.607   5.125  0.6630 -0.1395 -0.2752
 3527THY    HA388166   8.679   5.566   5.142  0.7845  0.0900  1.1403
 3527THY    CA488167   8.882   5.519   5.132  0.2442 -0.1263  0.0126
 3527THY    HA488168   8.864   5.412   5.143 -1.8591  0.3373  1.8286
 3527THY    CA588169   9.013   5.568   5.120 -0.3435  0.3744  0.3614
 3527THY    CM188170   9.128   5.465   5.119 -0.2781  0.1388  0.5406
 3527THY    HM188171   9.088   5.368   5.089  1.2499 -0.1352 -0.8126
 3527THY    HM288172   9.203   5.487   5.041 -1.0082 -1.2208 -0.5825
 3527THY    HM388173   9.181   5.462   5.215  0.7531  2.2209  0.1008
 3527THY    CA688174   9.043   5.705   5.104  0.6015 -0.5464 -0.5523
 3527THY    HA688175   9.142   5.735   5.071  0.1991 -1.0736 -2.3318
 3528THY      O88176   2.264   7.542   6.284 -0.0527  0.5995 -0.0546
 3528THY     HO88177   2.172   7.550   6.316  0.0860 -2.3324  1.4715
 3528THY    CA188178   2.276   7.409   6.253 -0.2282  0.1128 -0.0143
 3528THY    CA288179   2.398   7.346   6.241  0.2853 -0.3359  0.8945
 3528THY    CP188180   2.529   7.425   6.275 -0.2104 -0.2913 -0.4782
 3528THY    HP188181   2.512   7.529   6.307 -0.1286 -0.8063  1.3483
 3528THY    CP288182   2.598   7.358   6.398  0.9280  0.4342  0.2075
 3528THY    HP288183   2.695   7.406   6.414  0.4873  0.9442  1.5678
 3528THY    HP388184   2.526   7.374   6.479  0.7049  1.4027 -0.1695
 3528THY    HP488185   2.612   7.251   6.383  1.0874  0.5358 -0.4121
 3528THY    CP388186   2.628   7.426   6.152  0.3517 -0.2844 -0.1924
 3528THY    HP588187   2.708   7.501   6.159 -0.3662  0.7341 -2.1385
 3528THY    HP688188   2.679   7.334   6.122 -1.2574 -0.5729 -2.2446
 3528THY    HP788189   2.560   7.459   6.072 -0.2866 -2.0765 -0.4363
 3528THY    CA388190   2.395   7.209   6.199 -0.0474 -0.1546 -0.1141
 3528THY    HA388191   2.490   7.157   6.197 -1.7385 -3.6166  0.5089
 3528THY    CA488192   2.280   7.138   6.156  0.4003 -0.3895 -0.7021
 3528THY    HA488193   2.281   7.037   6.115 -3.1020 -0.9127  0.1640
 3528THY    CA588194   2.154   7.206   6.175  0.0005  0.2861 -0.0508
 3528THY    CM188195   2.033   7.144   6.114 -0.4412  0.4717 -0.5470
 3528THY    HM188196   1.940   7.185   6.154 -0.8419 -2.4330  1.8429
 3528THY    HM288197   2.045   7.164   6.007 -2.1716 -0.9119 -1.0445
 3528THY    HM388198   2.036   7.035   6.130  0.5424  0.5356 -0.2422
 3528THY    CA688199   2.159   7.338   6.228  1.0090 -0.3792 -0.1572
 3528THY    HA688200   2.062   7.386   6.234  0.7724 -0.5232 -2.1783
 3529THY      O88201   7.375   1.579   6.352  0.4815 -0.4928  0.1374
 3529THY     HO88202   7.405   1.652   6.296  0.4677  1.2508  2.2945
 3529THY    CA188203   7.266   1.630   6.411 -0.0422 -0.6730  0.3411
 3529THY    CA288204   7.145   1.559   6.444 -0.7296  0.4820 -0.5564
 3529THY    CP188205   7.134   1.412   6.418 -0.2275  0.3968  0.2989
 3529THY    HP188206   7.225   1.355   6.442 -0.7786 -0.3686  0.6074
 3529THY    CP288207   7.021   1.347   6.496 -0.1609 -0.2362  0.1351
 3529THY    HP288208   6.914   1.356   6.473 -0.2187 -0.6878  0.2063
 3529THY    HP388209   7.038   1.239   6.489 -1.3155 -0.5672  1.7080
 3529THY    HP488210   7.033   1.379   6.600  4.9999  0.7367 -0.5141
 3529THY    CP388211   7.116   1.396   6.265  0.3089 -0.6091 -0.4725
 3529THY    HP588212   7.206   1.417   6.207 -0.5262  0.9891 -1.2702
 3529THY    HP688213   7.082   1.294   6.244 -1.1750  0.2700 -2.8659
 3529THY    HP788214   7.046   1.466   6.217  1.5838 -0.5036 -2.2789
 3529THY    CA388215   7.054   1.636   6.517 -0.0660 -0.3373 -0.2343
 3529THY    HA388216   6.956   1.599   6.547 -0.7116  1.8052  0.4807
 3529THY    CA488217   7.089   1.764   6.577  0.8588  0.0847 -0.0008
 3529THY    HA488218   7.016   1.809   6.643  1.2237 -0.0539  0.5021
 3529THY    CA588219   7.201   1.834   6.533  0.1243 -0.0551  1.0255
 3529THY    CM188220   7.227   1.973   6.582  0.6767 -0.0200  0.6572
 3529THY    HM188221   7.229   1.970   6.691 -1.8587  1.7164  0.8250
 3529THY    HM288222   7.327   2.010   6.556 -0.2880  2.1558 -0.1920
 3529THY    HM388223   7.163   2.051   6.539  1.6832  1.3126  1.4732
 3529THY    CA688224   7.292   1.766   6.445 -0.7980 -0.1686 -0.1137
 3529THY    HA688225   7.375   1.818   6.399 -1.6639  1.5368  0.1707
 3530THY      O88226   9.047   6.030   5.570  0.5229  0.3942  0.0343
 3530THY     HO88227   9.101   6.076   5.504  1.4633  1.0438  1.2055
 3530THY    CA188228   9.010   6.124   5.655 -0.2141 -0.2468  0.0836
 3530THY    CA288229   8.933   6.107   5.770 -0.6192  0.1294 -0.6596
 3530THY    CP188230   8.885   5.958   5.802 -0.2183  0.1494 -0.1138
 3530THY    HP188231   8.957   5.888   5.758 -0.0557  0.2431  0.0052
 3530THY    CP288232   8.883   5.946   5.956  0.3734  0.6291  0.2138
 3530THY    HP288233   8.984   5.980   5.982  1.5770 -1.9748 -0.7320
 3530THY    HP388234   8.802   6.005   6.002 -1.5457 -0.8628 -1.0762
 3530THY    HP488235   8.880   5.843   5.994  1.9286  0.5966  0.2967
 3530THY    CP388236   8.751   5.918   5.739 -0.1684 -0.4765  0.0073
 3530THY    HP588237   8.679   5.982   5.791  1.0149 -0.6990  2.0575
 3530THY    HP688238   8.749   5.916   5.630  1.9699 -0.8368 -0.0744
 3530THY    HP788239   8.732   5.813   5.767  0.7839 -0.9563 -1.0893
 3530THY    CA388240   8.909   6.220   5.858  0.3249  0.3239  0.1660
 3530THY    HA388241   8.859   6.206   5.953  1.3482  0.6038  0.7662
 3530THY    CA488242   8.944   6.344   5.813 -0.8072 -0.5761 -0.2602
 3530THY    HA488243   8.919   6.432   5.871 -2.3030  0.3321 -2.1577
 3530THY    CA588244   9.026   6.362   5.701 -0.1638  0.4738 -0.6091
 3530THY    CM188245   9.078   6.504   5.672 -0.0789 -0.1132 -0.9221
 3530THY    HM188246   9.165   6.517   5.737 -1.4466 -2.7807  1.7029
 3530THY    HM288247   9.109   6.520   5.568  0.5001  1.5422 -0.5166
 3530THY    HM388248   9.000   6.581   5.672  0.5608  0.5986 -2.8269
 3530THY    CA688249   9.057   6.254   5.624  0.3386  0.4033 -0.1905
 3530THY    HA688250   9.122   6.255   5.537  0.2487  0.6111 -0.2573
 3531THY      O88251   3.043   9.365   3.720  0.4294 -0.2909 -0.5212
 3531THY     HO88252   2.991   9.405   3.648 -0.5234 -0.2348  0.1888
 3531THY    CA188253   3.037   9.458   3.812 -0.6575 -0.0121  0.2178
 3531THY    CA288254   3.102   9.460   3.937  0.0098 -0.1349 -0.8637
 3531THY    CP188255   3.199   9.348   3.970  0.2662  0.6330  0.1402
 3531THY    HP188256   3.236   9.317   3.872  0.3336 -1.8859  0.8856
 3531THY    CP288257   3.319   9.377   4.055 -0.7272 -0.4903 -1.0013
 3531THY    HP288258   3.395   9.299   4.049 -0.0535  0.1828 -1.2671
 3531THY    HP388259   3.349   9.478   4.025 -0.4904  0.1369  1.1468
 3531THY    HP488260   3.292   9.384   4.162 -0.1517 -0.4470 -0.8566
 3531THY    CP388261   3.121   9.228   4.020 -0.1687 -0.0003  0.5009
 3531THY    HP588262   3.031   9.204   3.962 -0.1099  0.5572  0.1718
 3531THY    HP688263   3.182   9.138   4.031  0.9275  0.7604  0.7778
 3531THY    HP788264   3.078   9.258   4.117 -1.5697 -1.2877  0.3174
 3531THY    CA388265   3.091   9.574   4.020  0.8351  0.4631 -1.0369
 3531THY    HA388266   3.137   9.561   4.118  2.8577 -2.0741 -2.1986
 3531THY    CA488267   3.017   9.682   3.976 -0.1458  0.3344 -0.2091
 3531THY    HA488268   3.007   9.767   4.042 -0.0243  1.7539 -1.9246
 3531THY    CA588269   2.946   9.676   3.855  0.6025 -0.1758  0.1456
 3531THY    CM188270   2.858   9.789   3.811 -0.1470 -0.4783  0.3041
 3531THY    HM188271   2.880   9.824   3.710  0.1542  1.4625  0.9916
 3531THY    HM288272   2.749   9.780   3.819 -0.3549  1.9880  1.2400
 3531THY    HM388273   2.872   9.875   3.878 -0.7332  0.7417 -1.0987
 3531THY    CA688274   2.958   9.561   3.779 -1.1030 -0.2769  0.0132
 3531THY    HA688275   2.910   9.558   3.682  0.7155 -0.3178 -0.9142
 3532THY      O88276   4.560   5.215   6.364  0.4380 -0.2139 -0.5887
 3532THY     HO88277   4.651   5.226   6.397 -0.0168 -0.2443  0.7234
 3532THY    CA188278   4.545   5.272   6.240 -0.5716 -0.1106 -0.1403
 3532THY    CA288279   4.434   5.245   6.156  0.0782 -0.3111 -0.2331
 3532THY    CP188280   4.324   5.154   6.205 -0.9109 -0.5869 -0.3373
 3532THY    HP188281   4.307   5.159   6.313  3.4831 -1.7782  0.6006
 3532THY    CP288282   4.183   5.185   6.143 -0.1824  0.3064  0.3504
 3532THY    HP288283   4.102   5.131   6.192  1.9187 -3.2947  0.1616
 3532THY    HP388284   4.162   5.292   6.131 -1.5158  0.3163  2.3060
 3532THY    HP488285   4.184   5.146   6.041  0.5735 -3.0181  1.5088
 3532THY    CP388286   4.363   5.016   6.168  0.1561 -0.1313  0.4522
 3532THY    HP588287   4.280   4.948   6.192 -0.1902  0.0468 -0.2383
 3532THY    HP688288   4.386   4.998   6.062  0.7048 -0.7206  0.6629
 3532THY    HP788289   4.455   4.979   6.215 -0.3431 -0.5690  1.1077
 3532THY    CA388290   4.422   5.312   6.033  0.4079  0.0964  0.2451
 3532THY    HA388291   4.344   5.288   5.962 -0.7410 -0.2525  1.5767
 3532THY    CA488292   4.515   5.411   6.003 -0.1943  0.2303  0.0830
 3532THY    HA488293   4.493   5.475   5.917  0.0592  1.6249  1.0228
 3532THY    CA588294   4.628   5.433   6.087  0.1003  0.1278  1.2723
 3532THY    CM188295   4.724   5.541   6.048 -0.7343  0.0303 -0.2342
 3532THY    HM188296   4.688   5.594   5.959 -0.0337  2.2218  0.7129
 3532THY    HM288297   4.734   5.618   6.125  2.5196 -1.1523  0.7317
 3532THY    HM388298   4.825   5.497   6.048 -1.4728 -1.7295 -0.6621
 3532THY    CA688299   4.645   5.358   6.198  0.1543 -0.2046  0.1778
 3532THY    HA688300   4.732   5.382   6.259  0.2170  1.0317 -0.3792
 3533THY      O88301   8.267   3.040   4.909  0.5282 -0.4447 -0.5689
 3533THY     HO88302   8.310   2.965   4.866  2.6823  1.2025 -1.4568
 3533THY    CA188303   8.269   3.006   5.037 -0.7312 -0.6716 -0.7388
 3533THY    CA288304   8.279   3.103   5.136  0.6245  0.2681  0.1973
 3533THY    CP188305   8.284   3.253   5.101  0.0373  0.0942  0.8451
 3533THY    HP188306   8.247   3.265   4.998  1.1394  1.1842  0.5521
 3533THY    CP288307   8.203   3.348   5.188 -0.2376 -0.3104 -0.3150
 3533THY    HP288308   8.197   3.450   5.147 -3.4993 -0.6738 -1.0986
 3533THY    HP388309   8.096   3.321   5.195 -0.6497  1.4057  0.5336
 3533THY    HP488310   8.253   3.354   5.285 -1.7658 -0.5858  0.5279
 3533THY    CP388311   8.432   3.294   5.102  0.1668 -0.5072  0.6458
 3533THY    HP588312   8.482   3.231   5.028 -0.5151 -0.0817 -0.1936
 3533THY    HP688313   8.440   3.402   5.082 -1.8841 -0.4497 -0.0601
 3533THY    HP788314   8.474   3.271   5.201  0.5775  0.4225  0.7073
 3533THY    CA388315   8.287   3.053   5.271 -0.0711  0.7355  0.0824
 3533THY    HA388316   8.305   3.131   5.344 -0.5640 -0.8212  1.9696
 3533THY    CA488317   8.276   2.917   5.302  0.5572  0.0714 -0.1106
 3533THY    HA488318   8.275   2.879   5.403 -0.5486 -3.0275 -1.1613
 3533THY    CA588319   8.262   2.819   5.202  0.0581 -0.4171 -0.6538
 3533THY    CM188320   8.257   2.679   5.226 -0.2028  0.6962 -0.2778
 3533THY    HM188321   8.223   2.616   5.143  0.1974  1.7686 -1.2787
 3533THY    HM288322   8.360   2.653   5.251  0.0048  0.1783 -1.5819
 3533THY    HM388323   8.190   2.658   5.311 -0.6984 -1.6262 -1.1707
 3533THY    CA688324   8.257   2.869   5.068 -0.1827  0.3630 -0.4646
 3533THY    HA688325   8.240   2.802   4.984  0.0354  1.2534 -1.2310
 3534THY      O88326   5.241   6.033   1.779 -0.2624 -0.6338 -0.3016
 3534THY     HO88327   5.180   6.048   1.853  0.4273  2.1612 -0.1792
 3534THY    CA188328   5.198   6.112   1.678 -0.5752  0.8088  0.2920
 3534THY    CA288329   5.267   6.114   1.551 -0.1566 -0.4421 -0.1545
 3534THY    CP188330   5.377   6.006   1.519  0.3642  0.0129 -0.1817
 3534THY    HP188331   5.411   5.961   1.614  0.7683  1.4275  0.3786
 3534THY    CP288332   5.311   5.898   1.426 -0.4622  0.0172 -0.8616
 3534THY    HP288333   5.383   5.820   1.395  2.9838  3.2427 -1.7311
 3534THY    HP388334   5.218   5.861   1.469 -0.7143  2.0101  0.4162
 3534THY    HP488335   5.287   5.953   1.334 -0.6213 -0.3812 -1.0596
 3534THY    CP388336   5.495   6.058   1.450 -0.2388  0.8714  0.3449
 3534THY    HP588337   5.559   5.971   1.431 -1.0940  0.3524 -0.2052
 3534THY    HP688338   5.469   6.101   1.353 -1.0954  0.4280  0.3758
 3534THY    HP788339   5.563   6.126   1.503  0.7480  0.7245 -0.6806
 3534THY    CA388340   5.209   6.194   1.449 -0.0144  0.6445  0.0091
 3534THY    HA388341   5.244   6.181   1.347  2.5429  0.6314  0.8002
 3534THY    CA488342   5.103   6.285   1.480  0.3742  0.1316 -0.3912
 3534THY    HA488343   5.056   6.335   1.396 -1.9465 -3.1563 -1.2696
 3534THY    CA588344   5.060   6.298   1.612 -0.1315 -0.0269  0.2509
 3534THY    CM188345   4.943   6.385   1.647 -0.3445 -0.2848 -0.8419
 3534THY    HM188346   4.896   6.364   1.744  0.1498  0.9617 -0.3055
 3534THY    HM288347   4.964   6.493   1.648 -1.2836 -0.0925 -0.9056
 3534THY    HM388348   4.848   6.364   1.598 -0.3058 -0.4502 -0.8488
 3534THY    CA688349   5.102   6.204   1.704  1.2403 -0.5993  0.3341
 3534THY    HA688350   5.056   6.211   1.802 -2.8872  0.1996 -1.4468
 3535THY      O88351   0.513   0.902   3.504  0.5085  0.1720  0.1605
 3535THY     HO88352   0.460   0.820   3.506 -0.3827  0.7373  0.0321
 3535THY    CA188353   0.630   0.887   3.441  0.0390  0.8146 -0.0273
 3535THY    CA288354   0.715   0.997   3.414 -0.1542  0.1766 -0.5914
 3535THY    CP188355   0.677   1.132   3.470  0.4588 -0.2600  0.0583
 3535THY    HP188356   0.603   1.124   3.550 -0.1493 -0.1441 -0.4870
 3535THY    CP288357   0.792   1.223   3.529  0.6457  0.4268 -0.3872
 3535THY    HP288358   0.748   1.309   3.581 -0.9539  0.6481 -2.0378
 3535THY    HP388359   0.861   1.164   3.591 -0.7310  0.1195  0.9075
 3535THY    HP488360   0.849   1.266   3.446  0.8967 -1.7193 -1.3865
 3535THY    CP388361   0.611   1.215   3.360  0.9736 -0.4279  0.4093
 3535THY    HP588362   0.576   1.310   3.402 -0.1472  0.2424 -1.8579
 3535THY    HP688363   0.667   1.240   3.269 -0.6888 -0.8147 -0.7638
 3535THY    HP788364   0.523   1.161   3.324 -2.2185  2.6183  2.9071
 3535THY    CA388365   0.845   0.976   3.367  0.1285 -0.4044  0.7309
 3535THY    HA388366   0.909   1.062   3.358  0.2301 -0.4827  0.7063
 3535THY    CA488367   0.885   0.853   3.329 -0.0625  0.5746  0.5604
 3535THY    HA488368   0.980   0.833   3.281  0.2109  1.1434  0.8573
 3535THY    CA588369   0.800   0.743   3.351  0.1755 -0.3288  0.0245
 3535THY    CM188370   0.840   0.612   3.300 -0.5752 -0.1505 -0.3738
 3535THY    HM188371   0.813   0.607   3.194  0.7887  2.8130 -0.9926
 3535THY    HM288372   0.949   0.607   3.314 -0.6413 -0.7633 -0.0488
 3535THY    HM388373   0.787   0.535   3.357 -0.1841  0.6447  1.1208
 3535THY    CA688374   0.668   0.761   3.402  0.7763 -0.1901 -0.4367
 3535THY    HA688375   0.598   0.679   3.416 -1.5922  1.9298  0.9273
 3536THY      O88376   8.811   4.441   8.009 -0.1074  0.7846 -0.4646
 3536THY     HO88377   8.829   4.533   7.982  0.8544  0.1733 -2.0729
 3536THY    CA188378   8.923   4.364   7.998 -0.3159  0.9633  0.1684
 3536THY    CA288379   8.958   4.270   8.096  0.0720  0.5309 -0.1534
 3536THY    CP188380   8.870   4.233   8.212 -0.2100 -0.2286 -0.0370
 3536THY    HP188381   8.775   4.288   8.213  0.7116  1.4912 -1.4044
 3536THY    CP288382   8.842   4.081   8.212  0.6342  0.0973  0.0925
 3536THY    HP288383   8.781   4.067   8.122  1.5865 -0.0364 -0.5397
 3536THY    HP388384   8.921   4.006   8.204  0.5600 -0.3835  2.9282
 3536THY    HP488385   8.776   4.041   8.291 -1.4195 -0.8667 -1.9945
 3536THY    CP388386   8.933   4.272   8.341  0.5022  0.5837  0.1555
 3536THY    HP588387   8.940   4.381   8.353  2.4538  0.6564 -1.1633
 3536THY    HP688388   8.867   4.234   8.420  1.8337 -1.3641  0.4067
 3536THY    HP788389   9.027   4.219   8.362 -0.3520 -1.5568 -1.1197
 3536THY    CA388390   9.074   4.195   8.083 -0.4848  0.3954 -0.2893
 3536THY    HA388391   9.100   4.130   8.166  1.0731  1.9400  0.4979
 3536THY    CA488392   9.151   4.220   7.964 -0.1799  0.2529  0.3350
 3536THY    HA488393   9.246   4.171   7.949 -0.1144  0.5105 -0.1128
 3536THY    CA588394   9.113   4.309   7.869  0.1549  0.4421  0.0086
 3536THY    CM188395   9.206   4.335   7.755  0.6839  0.1655 -0.2308
 3536THY    HM188396   9.310   4.300   7.763  0.3851 -0.4913  1.1338
 3536THY    HM288397   9.168   4.278   7.669 -1.0390  1.7581 -0.5846
 3536THY    HM388398   9.180   4.433   7.716 -2.5278 -0.4016  0.1940
 3536THY    CA688399   8.998   4.381   7.882 -0.0052  0.0768 -0.6256
 3536THY    HA688400   8.956   4.444   7.805 -0.4005  0.9198  0.2522
 3537THY      O88401   1.621   9.246   8.851  0.1232  0.0765 -0.6659
 3537THY     HO88402   1.641   9.259   8.945 -0.3593  0.2953 -0.5906
 3537THY    CA188403   1.551   9.128   8.847  0.0834  0.0870 -0.1909
 3537THY    CA288404   1.451   9.106   8.751 -0.0486  0.7915  0.0844
 3537THY    CP188405   1.436   9.197   8.631 -0.6103  0.2246 -0.1693
 3537THY    HP188406   1.495   9.289   8.635  0.1598 -0.2932  0.8193
 3537THY    CP288407   1.484   9.129   8.499 -0.5217  0.3514 -0.3552
 3537THY    HP288408   1.490   9.210   8.425  1.6983 -1.1320 -1.9422
 3537THY    HP388409   1.582   9.089   8.527  0.9002  2.5195 -1.9165
 3537THY    HP488410   1.416   9.049   8.468 -0.0968 -0.4469  0.6949
 3537THY    CP388411   1.292   9.241   8.614  0.7659  0.7427  0.2664
 3537THY    HP588412   1.257   9.280   8.711  0.2066 -0.4576  0.5736
 3537THY    HP688413   1.274   9.323   8.544  0.4116  0.7386  0.3483
 3537THY    HP788414   1.231   9.154   8.584  0.7568  1.2537 -1.2716
 3537THY    CA388415   1.375   8.989   8.762 -0.4181  0.7711  0.6593
 3537THY    HA388416   1.311   8.958   8.680 -0.2556  1.5827  0.2152
 3537THY    CA488417   1.407   8.902   8.866  0.7244 -0.5141  0.4437
 3537THY    HA488418   1.350   8.809   8.868 -1.1339  0.3392 -3.2458
 3537THY    CA588419   1.505   8.919   8.961  0.4767 -0.0373 -0.3465
 3537THY    CM188420   1.531   8.811   9.064  0.4935  0.0692 -0.6582
 3537THY    HM188421   1.438   8.785   9.116  1.4165  1.7850  2.0763
 3537THY    HM288422   1.580   8.725   9.017  0.2295  0.3560 -1.4890
 3537THY    HM388423   1.591   8.855   9.144 -3.3432  1.8000  1.5381
 3537THY    CA688424   1.582   9.032   8.946  0.7270 -0.8415  0.3430
 3537THY    HA688425   1.654   9.063   9.021  0.2820  0.6194  0.2026
 3538THY      O88426   7.099   2.490   9.272 -0.0558 -0.1302 -0.6817
 3538THY     HO88427   7.023   2.505   9.331 -0.2605  0.0533 -0.9862
 3538THY    CA188428   7.168   2.390   9.329 -0.2567 -0.1657 -0.2918
 3538THY    CA288429   7.285   2.344   9.261  0.4339  0.3720  0.1328
 3538THY    CP188430   7.344   2.411   9.138  0.0111  0.5517 -0.0301
 3538THY    HP188431   7.276   2.480   9.088  0.4410  0.7995 -0.2771
 3538THY    CP288432   7.468   2.492   9.173 -0.1104  0.2150  0.4412
 3538THY    HP288433   7.493   2.549   9.083 -0.0339  1.0514  0.9791
 3538THY    HP388434   7.442   2.559   9.256  0.6690  0.1380  0.7542
 3538THY    HP488435   7.549   2.432   9.216  0.4171  0.3301 -0.3626
 3538THY    CP388436   7.379   2.310   9.023 -0.0027  0.1683 -0.2559
 3538THY    HP588437   7.293   2.242   9.015  0.4194 -0.4720  0.5320
 3538THY    HP688438   7.405   2.354   8.925  0.1962 -0.4403 -0.4785
 3538THY    HP788439   7.470   2.259   9.055  0.3080  0.8935  0.0556
 3538THY    CA388440   7.357   2.236   9.312 -0.1890 -0.4654 -0.6022
 3538THY    HA388441   7.460   2.216   9.282  0.3856  0.0791  0.9345
 3538THY    CA488442   7.302   2.164   9.416  0.2039  0.3282  0.2232
 3538THY    HA488443   7.346   2.069   9.445 -1.1207 -0.4886 -0.3616
 3538THY    CA588444   7.184   2.205   9.475  0.3679 -0.3145 -1.3240
 3538THY    CM188445   7.115   2.110   9.575  0.8561  0.3562  0.5335
 3538THY    HM188446   7.110   2.009   9.532  0.6817  0.7565 -0.4290
 3538THY    HM288447   7.169   2.097   9.669  1.1137 -0.8292  0.2451
 3538THY    HM388448   7.015   2.140   9.608  1.3858  0.9085  1.6911
 3538THY    CA688449   7.118   2.319   9.439 -0.1417 -0.3495  0.4810
 3538THY    HA688450   7.020   2.349   9.476 -1.2528  0.4340 -2.7622
 3539THY      O88451   6.523   3.847   5.282  0.1525 -0.1436  0.1416
 3539THY     HO88452   6.445   3.880   5.235 -0.4494 -0.3421  0.9722
 3539THY    CA188453   6.499   3.726   5.334 -0.0695  0.2426 -0.1229
 3539THY    CA288454   6.598   3.651   5.387 -0.3051  0.5418 -0.0041
 3539THY    CP188455   6.746   3.713   5.414  0.2537  0.0335  0.3056
 3539THY    HP188456   6.752   3.818   5.385  0.0276 -0.0089  0.0998
 3539THY    CP288457   6.778   3.728   5.559  0.2643  0.2766  0.4842
 3539THY    HP288458   6.711   3.802   5.603 -2.8171 -1.8517 -0.3454
 3539THY    HP388459   6.751   3.638   5.616  0.9864  0.8577  1.7996
 3539THY    HP488460   6.884   3.754   5.570  0.7927 -0.7385 -1.6546
 3539THY    CP388461   6.848   3.628   5.339  0.1389 -0.5521 -0.2786
 3539THY    HP588462   6.794   3.597   5.248 -2.0675  0.4265  0.6228
 3539THY    HP688463   6.935   3.685   5.308 -0.4480 -0.0752 -1.0971
 3539THY    HP788464   6.881   3.534   5.385  1.7443 -0.6243 -1.5101
 3539THY    CA388465   6.571   3.519   5.426  0.2764  0.3671  0.0875
 3539THY    HA388466   6.649   3.453   5.462  0.3091  0.0373 -0.5743
 3539THY    CA488467   6.437   3.470   5.417 -0.3738  1.1985  0.0875
 3539THY    HA488468   6.407   3.372   5.453 -2.2514  1.5927 -0.3178
 3539THY    CA588469   6.336   3.547   5.369  0.3377  0.7623  0.9531
 3539THY    CM188470   6.196   3.485   5.359  0.0973  0.0567  0.4318
 3539THY    HM188471   6.126   3.563   5.329  0.0603 -1.1488 -3.0323
 3539THY    HM288472   6.189   3.408   5.281 -1.3688  1.5048 -0.9237
 3539THY    HM388473   6.156   3.442   5.452 -2.5377 -0.8977 -1.0336
 3539THY    CA688474   6.368   3.679   5.330  0.2638  0.1101 -0.1112
 3539THY    HA688475   6.290   3.743   5.289  2.0841  3.5675  1.3652
 3540THY      O88476   6.255   8.359   5.013 -0.4838 -0.7604 -0.5481
 3540THY     HO88477   6.160   8.376   5.003 -0.2538  1.6354  0.6279
 3540THY    CA188478   6.315   8.439   4.920 -0.7348  0.2100 -0.0969
 3540THY    CA288479   6.463   8.453   4.913 -0.0690  0.0095  0.2086
 3540THY    CP188480   6.548   8.390   5.023  0.4862  0.0955  0.0604
 3540THY    HP188481   6.490   8.323   5.088  1.4666 -4.1405 -3.0320
 3540THY    CP288482   6.648   8.294   4.960  1.3148  0.1898 -0.1798
 3540THY    HP288483   6.690   8.230   5.038  0.7621 -1.0483 -0.8605
 3540THY    HP388484   6.593   8.232   4.887 -0.1650  0.2891  0.8031
 3540THY    HP488485   6.722   8.350   4.903  0.0647  0.6358 -1.4442
 3540THY    CP388486   6.628   8.494   5.095  0.0485  0.4852 -0.2527
 3540THY    HP588487   6.564   8.581   5.116  0.1429  0.6704 -0.7346
 3540THY    HP688488   6.657   8.441   5.187 -1.7297 -1.9266 -0.9723
 3540THY    HP788489   6.722   8.528   5.051  0.8160  0.3004  1.1675
 3540THY    CA388490   6.519   8.531   4.809 -0.1815  1.1086 -0.1873
 3540THY    HA388491   6.626   8.532   4.792  0.0653 -2.0520  0.5650
 3540THY    CA488492   6.430   8.609   4.733 -0.5361 -0.0157  0.9339
 3540THY    HA488493   6.463   8.678   4.656  1.0107  0.7223  2.2012
 3540THY    CA588494   6.291   8.595   4.746  0.2033 -0.0241 -0.4516
 3540THY    CM188495   6.201   8.659   4.644 -0.1710  0.3962  0.1541
 3540THY    HM188496   6.129   8.592   4.596 -1.6763  2.3598 -0.4376
 3540THY    HM288497   6.140   8.736   4.693  1.1746  0.4377  1.8843
 3540THY    HM388498   6.252   8.707   4.559 -1.7182 -0.3847 -1.2698
 3540THY    CA688499   6.232   8.498   4.830 -0.3052 -0.3901 -0.2231
 3540THY    HA688500   6.124   8.491   4.830 -0.3471  0.1000 -1.0849
 3541THY      O88501   9.773   1.219   0.526  0.0020  0.3518 -0.2624
 3541THY     HO88502   9.677   1.206   0.530  0.3322 -2.4698  0.7638
 3541THY    CA188503   9.814   1.105   0.588 -0.5585 -0.3902 -0.3554
 3541THY    CA288504   9.935   1.041   0.554  0.3755 -0.2276  0.4779
 3541THY    CP188505  10.021   1.097   0.443 -0.0744  0.3168 -0.2130
 3541THY    HP188506   9.958   1.158   0.378  0.0079  0.1702 -0.4359
 3541THY    CP288507  10.130   1.192   0.490  0.5616 -0.2654 -0.6272
 3541THY    HP288508  10.198   1.137   0.556  0.4845  1.9604  1.4314
 3541THY    HP388509  10.191   1.236   0.409  1.9400 -1.6743 -0.4056
 3541THY    HP488510  10.098   1.272   0.558 -0.2527 -1.5275  0.5151
 3541THY    CP388511  10.063   0.993   0.338  0.0350 -0.0381 -0.2659
 3541THY    HP588512  10.013   0.896   0.345  1.1507 -0.4967  2.0917
 3541THY    HP688513  10.042   1.041   0.241  1.6818  1.2064 -0.0682
 3541THY    HP788514  10.172   0.979   0.344 -0.1632 -1.1135  1.2836
 3541THY    CA388515   9.988   0.946   0.643 -0.1887  0.1920  0.8064
 3541THY    HA388516  10.090   0.914   0.629 -0.5849 -1.1947  0.9757
 3541THY    CA488517   9.912   0.903   0.750  0.1762  0.2306  0.0587
 3541THY    HA488518   9.958   0.832   0.818 -1.3391  0.2050  1.1013
 3541THY    CA588519   9.791   0.962   0.785  0.9416  0.0233  0.8769
 3541THY    CM188520   9.712   0.922   0.908 -0.6475 -0.0150  0.5087
 3541THY    HM188521   9.609   0.961   0.901 -1.2611 -1.7440 -0.7425
 3541THY    HM288522   9.708   0.815   0.887 -0.0350  0.3700 -1.9911
 3541THY    HM388523   9.754   0.939   1.007 -1.0600 -0.3611  0.7429
 3541THY    CA688524   9.735   1.058   0.697 -0.2528  0.3320  0.4206
 3541THY    HA688525   9.643   1.105   0.731 -0.2785 -2.1924  4.4573
 3542THY      O88526   9.570   8.889   9.888 -0.3327 -0.0088 -0.2916
 3542THY     HO88527   9.473   8.884   9.889 -0.5914 -0.1961 -4.6819
 3542THY    CA188528   9.618   8.819   9.993  0.0951  0.4589 -0.2901
 3542THY    CA288529   9.757   8.795  10.017  0.2100  1.0040  0.4293
 3542THY    CP188530   9.860   8.859   9.928  0.0255 -0.3803 -0.7441
 3542THY    HP188531   9.812   8.923   9.854  0.0149  0.6580  0.1329
 3542THY    CP288532   9.961   8.945  10.008  0.5831 -0.5327 -0.1082
 3542THY    HP288533   9.904   9.022  10.061  0.7034 -1.2252  1.0659
 3542THY    HP388534  10.016   8.888  10.084 -1.0493  0.7859  2.1719
 3542THY    HP488535  10.034   8.985   9.937 -0.1248 -2.2237 -1.9066
 3542THY    CP388536   9.927   8.744   9.841 -0.2744 -1.1513  0.0817
 3542THY    HP588537  10.007   8.786   9.779  0.7989 -1.3919  1.2619
 3542THY    HP688538   9.985   8.673   9.901 -0.3246 -0.2997  1.1746
 3542THY    HP788539   9.854   8.697   9.775 -0.1391 -1.3688  0.0872
 3542THY    CA388540   9.795   8.707  10.120 -0.2806 -0.3966 -0.3464
 3542THY    HA388541   9.898   8.694  10.152 -0.2363  1.4914  0.4267
 3542THY    CA488542   9.699   8.663  10.208 -0.1136 -0.8777  0.0814
 3542THY    HA488543   9.723   8.604  10.296 -1.6233 -0.3784  0.8639
 3542THY    CA588544   9.566   8.676  10.182  0.1861  0.5113  0.5118
 3542THY    CM188545   9.457   8.621  10.268  0.0632 -0.5214 -0.0734
 3542THY    HM188546   9.363   8.677  10.259  0.5898  0.6369  1.2420
 3542THY    HM288547   9.428   8.520  10.238  3.2555 -1.6663  0.2769
 3542THY    HM388548   9.476   8.615  10.376  0.5866  0.1550 -0.1254
 3542THY    CA688549   9.524   8.756  10.075 -0.7859  0.4520  0.4894
 3542THY    HA688550   9.418   8.760  10.051 -0.8963 -2.1487  0.2963
 3543THY      O88551   3.095   3.625   3.313  0.4969 -0.2958  0.5618
 3543THY     HO88552   3.086   3.687   3.238  4.7893  0.9125  0.7820
 3543THY    CA188553   3.085   3.699   3.424 -0.6307 -0.4439 -0.6187
 3543THY    CA288554   3.109   3.631   3.548  0.0772 -0.0665 -0.6626
 3543THY    CP188555   3.146   3.482   3.565  0.0162  0.5533  0.2613
 3543THY    HP188556   3.161   3.437   3.466 -2.1325 -0.6878  0.4241
 3543THY    CP288557   3.263   3.464   3.660  0.6077  0.2544  0.4446
 3543THY    HP288558   3.312   3.369   3.635  1.5201  0.4585  1.4106
 3543THY    HP388559   3.331   3.549   3.650  0.5333  0.1583 -1.3325
 3543THY    HP488560   3.241   3.465   3.767 -0.8902  0.7954  0.1649
 3543THY    CP388561   3.023   3.404   3.626  0.3360 -0.3531  0.0699
 3543THY    HP588562   3.036   3.300   3.655  1.9691 -0.3640 -0.6187
 3543THY    HP688563   2.988   3.461   3.713  2.0380 -0.3021  0.7573
 3543THY    HP788564   2.937   3.399   3.557 -0.2015 -0.7835  0.7553
 3543THY    CA388565   3.092   3.714   3.658 -0.7109  0.9405  0.2233
 3543THY    HA388566   3.105   3.670   3.757 -0.0573  1.1243  0.2226
 3543THY    CA488567   3.055   3.849   3.652  0.5631 -0.4119 -0.4005
 3543THY    HA488568   3.050   3.912   3.741 -1.2534 -1.2627  0.1676
 3543THY    CA588569   3.029   3.906   3.529  0.9078 -0.6890 -0.4471
 3543THY    CM188570   2.993   4.051   3.520 -0.6821  0.4278 -0.0561
 3543THY    HM188571   3.064   4.093   3.593 -1.5022 -2.0190  2.3186
 3543THY    HM288572   3.003   4.093   3.419  1.0485  1.9850  0.6982
 3543THY    HM388573   2.889   4.057   3.554 -1.1654 -1.3716 -1.1000
 3543THY    CA688574   3.051   3.830   3.417  0.6719  0.0739  0.2858
 3543THY    HA688575   3.036   3.883   3.323 -1.2478  3.3923  2.2399
 3544THY      O88576   5.957   4.160   0.977  0.0266  0.8360  0.0146
 3544THY     HO88577   5.912   4.166   1.063  1.5033  1.5327  0.7719
 3544THY    CA188578   5.891   4.072   0.909 -0.2695  0.3185 -0.5249
 3544THY    CA288579   5.954   4.010   0.796  0.0413  0.3218  0.0579
 3544THY    CP188580   6.085   4.063   0.743 -0.0893 -1.1327  0.0709
 3544THY    HP188581   6.098   4.170   0.764  3.4134 -1.0969 -1.4518
 3544THY    CP288582   6.208   4.001   0.806  0.0271 -1.1913 -0.5701
 3544THY    HP288583   6.215   3.893   0.793 -0.5276 -1.4374  0.9839
 3544THY    HP388584   6.295   4.056   0.768  0.5298 -0.0201  2.0808
 3544THY    HP488585   6.206   4.031   0.911 -1.4044  1.5745 -1.2917
 3544THY    CP388586   6.095   4.070   0.590  0.5173  1.1782  0.2341
 3544THY    HP588587   6.189   4.113   0.552 -0.0397  1.2701 -1.1119
 3544THY    HP688588   6.100   3.964   0.560  2.8148  0.5618  2.4651
 3544THY    HP788589   6.005   4.108   0.540  1.4963 -0.2236 -2.8719
 3544THY    CA388590   5.871   3.927   0.720  0.0071  0.6579 -0.1087
 3544THY    HA388591   5.912   3.885   0.629 -0.2777 -1.3849  0.6540
 3544THY    CA488592   5.737   3.900   0.758  0.3248 -0.0058  0.7960
 3544THY    HA488593   5.667   3.854   0.689  2.2407 -0.2685 -1.0747
 3544THY    CA588594   5.685   3.947   0.878 -0.3062 -0.0710 -0.5879
 3544THY    CM188595   5.540   3.930   0.909  1.3086 -0.1957  0.1222
 3544THY    HM188596   5.490   3.890   0.820 -1.2605  1.8889  0.5132
 3544THY    HM288597   5.516   3.863   0.992 -1.3429 -2.3365 -2.1792
 3544THY    HM388598   5.495   4.029   0.907  3.3871  0.8141  0.0910
 3544THY    CA688599   5.758   4.037   0.949  0.1904 -0.0531 -0.1292
 3544THY    HA688600   5.716   4.093   1.032  1.1508 -2.9031  2.4507
 3545THY      O88601   7.640   9.703   5.107  0.0596  0.3554  0.0049
 3545THY     HO88602   7.691   9.666   5.182  1.9880  1.1353 -0.8477
 3545THY    CA188603   7.616   9.604   5.032 -0.3949 -0.4567 -0.0269
 3545THY    CA288604   7.504   9.605   4.945  0.1519  0.1100 -0.2302
 3545THY    CP188605   7.420   9.734   4.925 -0.0172  0.3909  0.0252
 3545THY    HP188606   7.390   9.767   5.026  1.2088  2.6066 -0.2610
 3545THY    CP288607   7.503   9.851   4.864  0.6513 -0.4860 -0.2707
 3545THY    HP288608   7.545   9.828   4.765 -1.3591 -0.3395 -1.1922
 3545THY    HP388609   7.448   9.944   4.850  2.6112  0.6119 -1.1767
 3545THY    HP488610   7.589   9.864   4.931  0.1049  2.2249  0.0134
 3545THY    CP388611   7.286   9.708   4.848  0.0487 -0.6639  0.4645
 3545THY    HP588612   7.226   9.628   4.892 -0.6773 -0.5231 -0.2577
 3545THY    HP688613   7.220   9.791   4.822  0.5162 -0.3100  0.3959
 3545THY    HP788614   7.323   9.671   4.752 -1.0875 -1.5762  0.3581
 3545THY    CA388615   7.484   9.476   4.877  0.4902 -0.1214  0.2275
 3545THY    HA388616   7.398   9.457   4.812  0.5801 -0.5755  0.2405
 3545THY    CA488617   7.569   9.365   4.899  0.2288 -1.2235  0.0455
 3545THY    HA488618   7.545   9.273   4.847 -0.0585 -0.6834 -0.7882
 3545THY    CA588619   7.686   9.375   4.981 -0.5615 -0.1600 -0.0404
 3545THY    CM188620   7.786   9.257   4.991 -0.3659  0.5464 -0.2470
 3545THY    HM188621   7.784   9.191   4.904 -2.6610 -0.2550  0.3204
 3545THY    HM288622   7.891   9.283   5.008 -0.3449  0.7031 -0.6019
 3545THY    HM388623   7.761   9.193   5.076 -4.9499  2.7040  0.3907
 3545THY    CA688624   7.700   9.492   5.048 -0.0639 -0.8651 -0.1351
 3545THY    HA688625   7.782   9.503   5.119  1.9212 -3.4619 -1.8496
 3546THY      O88626   8.589   1.898   3.911  0.0830  0.9938  0.2746
 3546THY     HO88627   8.508   1.858   3.949  1.5533 -1.1656  1.3540
 3546THY    CA188628   8.617   2.014   3.966  0.1446  0.8768  0.5479
 3546THY    CA288629   8.708   2.108   3.916  0.0693 -0.7981  0.2205
 3546THY    CP188630   8.767   2.080   3.781 -0.0444 -0.5874  0.2035
 3546THY    HP188631   8.800   1.976   3.770  1.6745  0.0024 -0.5567
 3546THY    CP288632   8.669   2.096   3.665  0.3742 -0.4402 -0.4731
 3546THY    HP288633   8.602   2.009   3.665  1.4610 -1.3103  0.9941
 3546THY    HP388634   8.611   2.188   3.676  0.3441 -0.2867 -1.7285
 3546THY    HP488635   8.727   2.108   3.573  1.8493  2.6326  0.7285
 3546THY    CP388636   8.902   2.160   3.760 -0.4572  0.1304  0.7339
 3546THY    HP588637   8.939   2.137   3.660  0.1930  0.0496  0.9845
 3546THY    HP688638   8.879   2.267   3.763  0.2401  0.3260 -0.5549
 3546THY    HP788639   8.977   2.131   3.835  0.0976 -0.2360  0.0481
 3546THY    CA388640   8.726   2.223   3.990  0.0041 -0.4137  0.2329
 3546THY    HA388641   8.788   2.303   3.951 -2.1987  0.5631 -1.4667
 3546THY    CA488642   8.659   2.241   4.112  0.6154  0.8417  0.4773
 3546THY    HA488643   8.665   2.337   4.162  0.6420  0.1036  1.9182
 3546THY    CA588644   8.573   2.146   4.163  0.0977 -0.3290  0.6968
 3546THY    CM188645   8.509   2.177   4.293  0.1893  0.1303  0.5048
 3546THY    HM188646   8.402   2.153   4.294  0.2410 -0.1118  1.1677
 3546THY    HM288647   8.560   2.118   4.370  1.2253  2.1134  1.4329
 3546THY    HM388648   8.530   2.280   4.324  0.4021 -0.2957  1.8339
 3546THY    CA688649   8.559   2.029   4.090  0.4065 -0.1825 -1.0402
 3546THY    HA688650   8.496   1.956   4.139  0.8078 -1.4434 -2.3031
 3547THY      O88651   7.035   5.645   1.841  0.5160  0.3007  0.1436
 3547THY     HO88652   7.073   5.631   1.929  0.9098  1.0719  0.1037
 3547THY    CA188653   6.963   5.767   1.844  0.5980  0.3254 -0.4666
 3547THY    CA288654   6.928   5.830   1.728 -0.1246  0.0523 -0.2206
 3547THY    CP188655   6.986   5.782   1.596 -0.0277 -0.3115  0.3137
 3547THY    HP188656   7.069   5.716   1.623  0.9655  0.2085 -1.3486
 3547THY    CP288657   6.886   5.705   1.518  0.0268  0.4924  0.1523
 3547THY    HP288658   6.919   5.698   1.414 -1.7051 -0.7412 -0.3558
 3547THY    HP388659   6.877   5.604   1.561 -2.0714  0.1365 -1.0043
 3547THY    HP488660   6.789   5.752   1.532 -0.3787  0.0038 -0.9415
 3547THY    CP388661   7.045   5.910   1.516  0.0882  0.2944 -0.0918
 3547THY    HP588662   6.965   5.977   1.485 -0.3815 -0.3303 -0.2500
 3547THY    HP688663   7.118   5.967   1.575  0.1573 -0.5470  0.6723
 3547THY    HP788664   7.093   5.869   1.426  0.4147  1.7729 -0.6168
 3547THY    CA388665   6.855   5.947   1.741  0.1403 -0.5154  0.4731
 3547THY    HA388666   6.824   6.004   1.654 -1.5866 -0.5364  1.0376
 3547THY    CA488667   6.812   5.998   1.869 -0.0127  0.1011 -0.1102
 3547THY    HA488668   6.749   6.086   1.868 -0.1000  0.0368 -0.8825
 3547THY    CA588669   6.855   5.925   1.985  0.3506 -0.0413  0.5422
 3547THY    CM188670   6.809   5.965   2.122 -0.0681  0.5682  0.3038
 3547THY    HM188671   6.856   5.900   2.196 -0.4799 -0.9652 -0.7283
 3547THY    HM288672   6.853   6.063   2.140  0.3741  0.2353  1.0575
 3547THY    HM388673   6.702   5.946   2.138 -0.5374  0.0945 -2.6603
 3547THY    CA688674   6.931   5.811   1.968 -0.0603 -0.2869  0.3022
 3547THY    HA688675   6.958   5.744   2.049  0.7658  0.1232  0.3813
 3548THY      O88676   3.485   6.714   2.334  0.3816 -0.4365 -0.7121
 3548THY     HO88677   3.425   6.756   2.270  1.9756  1.3861 -1.0913
 3548THY    CA188678   3.527   6.818   2.405 -0.4717  0.1200  0.5604
 3548THY    CA288679   3.635   6.799   2.503 -0.6537  0.4074  0.1311
 3548THY    CP188680   3.689   6.655   2.530  0.6756  0.1370  0.6758
 3548THY    HP188681   3.654   6.586   2.451  2.3500  2.0166 -1.8713
 3548THY    CP288682   3.841   6.644   2.520 -0.4439 -0.4057 -0.5254
 3548THY    HP288683   3.882   6.550   2.559 -1.0987 -1.7275 -2.8617
 3548THY    HP388684   3.870   6.653   2.414  2.4055 -1.0627  0.1101
 3548THY    HP488685   3.881   6.724   2.584 -0.0545 -0.8186 -0.2541
 3548THY    CP388686   3.646   6.611   2.667  0.6887  0.0540  0.3010
 3548THY    HP588687   3.642   6.502   2.675  2.1260  0.1152  3.1740
 3548THY    HP688688   3.704   6.657   2.748 -1.2074  1.0054  1.1869
 3548THY    HP788689   3.542   6.644   2.673  0.3037 -1.1165  0.1612
 3548THY    CA388690   3.690   6.908   2.580  0.1900 -0.4152 -0.1304
 3548THY    HA388691   3.776   6.908   2.647  1.0281 -0.1675 -1.1808
 3548THY    CA488692   3.629   7.033   2.552  0.2993  0.3723 -0.0508
 3548THY    HA488693   3.669   7.129   2.586 -1.6408  1.7232 -1.4026
 3548THY    CA588694   3.524   7.048   2.457 -0.3162 -0.2235 -0.0540
 3548THY    CM188695   3.464   7.188   2.442  0.4991 -0.2086  0.4103
 3548THY    HM188696   3.468   7.256   2.529 -2.3541  1.3826 -0.5673
 3548THY    HM288697   3.497   7.255   2.362 -0.3227  1.5020  1.4266
 3548THY    HM388698   3.356   7.178   2.430  0.2619  0.6342  1.5910
 3548THY    CA688699   3.464   6.943   2.392 -0.6986  0.8716 -0.1907
 3548THY    HA688700   3.386   6.957   2.318 -0.2721  0.8841 -0.6436
 3549THY      O88701   1.689   1.546   5.199 -0.1059  0.2349  0.2762
 3549THY     HO88702   1.593   1.561   5.187 -0.4363 -1.6519  0.1258
 3549THY    CA188703   1.752   1.660   5.230 -1.0043 -0.4058  0.5948
 3549THY    CA288704   1.866   1.654   5.309  0.4570 -0.2675  0.3106
 3549THY    CP188705   1.930   1.524   5.358 -0.2257 -0.1793 -0.2692
 3549THY    HP188706   1.901   1.444   5.288 -2.2854 -0.4589  0.8270
 3549THY    CP288707   2.083   1.536   5.358 -0.6974 -0.0862 -0.2923
 3549THY    HP288708   2.113   1.591   5.269  1.9923  1.2240  1.3010
 3549THY    HP388709   2.125   1.592   5.443 -0.0579  0.0956 -0.7199
 3549THY    HP488710   2.120   1.433   5.344 -3.4933 -1.1766 -0.3913
 3549THY    CP388711   1.883   1.475   5.486  0.3681  0.0511 -0.1347
 3549THY    HP588712   1.931   1.539   5.561  0.2239 -0.8278  0.7473
 3549THY    HP688713   1.774   1.467   5.491  0.2416  0.9641 -1.2976
 3549THY    HP788714   1.924   1.374   5.500 -1.6861 -0.8282 -0.0905
 3549THY    CA388715   1.928   1.789   5.328 -0.4296  0.1950 -0.8027
 3549THY    HA388716   2.026   1.807   5.370 -0.9061  1.9711 -0.3876
 3549THY    CA488717   1.873   1.903   5.268  0.1768 -0.9165 -0.0538
 3549THY    HA488718   1.933   1.994   5.267 -1.7003  0.3725  0.1993
 3549THY    CA588719   1.757   1.896   5.188 -0.3470 -0.6907  0.0768
 3549THY    CM188720   1.718   2.026   5.117 -0.3574  1.3220 -0.4263
 3549THY    HM188721   1.789   2.054   5.039 -0.2372 -1.4498 -1.4336
 3549THY    HM288722   1.612   2.023   5.086 -1.0530  0.2476  1.8158
 3549THY    HM388723   1.724   2.101   5.197 -0.0688 -0.7291  1.5861
 3549THY    CA688724   1.696   1.773   5.169  0.7555  0.0357 -0.6044
 3549THY    HA688725   1.610   1.769   5.102 -0.5463  0.2293  0.9995
 3550THY      O88726   0.617   3.806   6.901  0.3383  0.5103 -0.9914
 3550THY     HO88727   0.664   3.725   6.874 -2.0007 -0.9497 -0.8726
 3550THY    CA188728   0.494   3.773   6.858 -0.2283 -0.0325  0.1675
 3550THY    CA288729   0.377   3.822   6.925 -0.0784  0.3996  0.0578
 3550THY    CP188730   0.385   3.932   7.027  0.6443  0.2248 -0.0516
 3550THY    HP188731   0.487   3.969   7.014  1.5742 -1.8995  0.8419
 3550THY    CP288732   0.290   4.044   6.985  0.1417  0.0142  0.5101
 3550THY    HP288733   0.186   4.013   6.998  0.2437 -0.9413 -0.7481
 3550THY    HP388734   0.320   4.141   7.026 -1.0509  0.5943  0.0548
 3550THY    HP488735   0.301   4.056   6.876 -0.5411 -4.1746 -0.1989
 3550THY    CP388736   0.367   3.876   7.168 -0.3478  0.1200  0.0482
 3550THY    HP588737   0.406   3.947   7.242 -0.1923  0.6365 -0.5226
 3550THY    HP688738   0.259   3.869   7.184 -0.3217 -1.4717 -0.3181
 3550THY    HP788739   0.418   3.780   7.175  1.8161  1.2347  0.5569
 3550THY    CA388740   0.258   3.759   6.883  0.1098 -0.5780 -0.0203
 3550THY    HA388741   0.164   3.799   6.918 -0.0551 -0.3325 -0.7147
 3550THY    CA488742   0.255   3.673   6.776  0.1729 -0.1548  0.8582
 3550THY    HA488743   0.159   3.638   6.740  0.3556  0.9241 -0.8050
 3550THY    CA588744   0.369   3.637   6.706  0.7805 -0.4957 -0.5249
 3550THY    CM188745   0.358   3.559   6.576 -0.2127  0.6030 -0.1909
 3550THY    HM188746   0.352   3.633   6.495  0.9879  0.4286 -0.4480
 3550THY    HM288747   0.455   3.514   6.552  0.6836  1.2650  1.9607
 3550THY    HM388748   0.287   3.476   6.582  2.3753 -1.6402  1.5783
 3550THY    CA688749   0.487   3.679   6.760 -0.0883  0.1473  0.4085
 3550THY    HA688750   0.575   3.651   6.703  0.1874  0.7006  0.5539
 3551THY      O88751   5.268   6.403   1.146  0.2381  0.1559  0.3418
 3551THY     HO88752   5.269   6.493   1.182  1.2998 -0.3190  1.5814
 3551THY    CA188753   5.172   6.400   1.056 -0.0754 -0.0296  0.5632
 3551THY    CA288754   5.156   6.279   0.977  0.3231 -0.3229  0.1326
 3551THY    CP188755   5.238   6.151   1.005 -0.0459  0.8115 -0.0466
 3551THY    HP188756   5.320   6.160   1.078  0.2057 -1.0738 -0.0293
 3551THY    CP288757   5.148   6.043   1.070  0.0397  0.2728  0.1451
 3551THY    HP288758   5.111   6.078   1.167 -0.6931 -2.1293  0.8046
 3551THY    HP388759   5.063   6.020   1.005  0.0169 -1.1053  0.6398
 3551THY    HP488760   5.195   5.946   1.086 -3.2849 -1.5602 -0.3389
 3551THY    CP388761   5.303   6.089   0.884  0.1129  0.7527  0.1647
 3551THY    HP588762   5.354   5.997   0.913 -1.8124 -2.1541 -4.5442
 3551THY    HP688763   5.236   6.054   0.806  1.1255  0.8119 -0.7499
 3551THY    HP788764   5.381   6.161   0.855  1.1091  0.1859  1.3284
 3551THY    CA388765   5.048   6.287   0.878 -0.4330 -0.0263 -0.0009
 3551THY    HA388766   5.011   6.206   0.815 -0.0646 -0.0075 -0.2395
 3551THY    CA488767   4.969   6.405   0.871  0.1317  0.8157 -0.6641
 3551THY    HA488768   4.883   6.412   0.805 -0.4577  1.1238  0.1061
 3551THY    CA588769   4.988   6.506   0.966 -0.0014 -0.0115  0.7157
 3551THY    CM188770   4.903   6.628   0.959  0.3777 -0.4436 -0.1202
 3551THY    HM188771   4.961   6.710   1.003 -0.9841  1.3342 -1.4668
 3551THY    HM288772   4.885   6.646   0.853 -0.1492 -0.4798 -0.0360
 3551THY    HM388773   4.810   6.618   1.016 -0.5358  0.3494 -1.4382
 3551THY    CA688774   5.089   6.506   1.057  0.6196 -0.1264  0.3406
 3551THY    HA688775   5.085   6.562   1.150 -1.1219  0.7507 -0.2297
 3552THY      O88776   4.559   2.319   1.514  0.1612  0.0439 -0.2515
 3552THY     HO88777   4.564   2.330   1.610 -0.3630 -0.0737 -0.2102
 3552THY    CA188778   4.655   2.245   1.476  0.4285 -0.2867 -0.0273
 3552THY    CA288779   4.659   2.195   1.344  0.1784  0.2874 -0.3921
 3552THY    CP188780   4.542   2.185   1.245 -0.0747 -0.2290  0.1854
 3552THY    HP188781   4.456   2.245   1.279 -1.2539 -2.6718  1.8385
 3552THY    CP288782   4.588   2.247   1.114 -0.2434  0.1271  0.3703
 3552THY    HP288783   4.513   2.238   1.035  2.4294  2.1974 -2.6449
 3552THY    HP388784   4.605   2.355   1.122  3.3656  0.0159 -2.7026
 3552THY    HP488785   4.673   2.202   1.062  0.1216  0.4073  0.7187
 3552THY    CP388786   4.483   2.043   1.222  0.0953  0.2001  0.0451
 3552THY    HP588787   4.561   1.968   1.205  0.3280 -0.4694  3.3089
 3552THY    HP688788   4.454   2.005   1.321 -0.5110 -0.1750 -0.2710
 3552THY    HP788789   4.390   2.034   1.165  0.3127 -0.3633 -0.2232
 3552THY    CA388790   4.775   2.119   1.309  0.1873 -0.2421  0.3132
 3552THY    HA388791   4.774   2.066   1.215 -0.7895  0.3122 -0.0014
 3552THY    CA488792   4.874   2.092   1.402 -0.1704  0.6381 -0.1203
 3552THY    HA488793   4.958   2.028   1.375  1.4544  2.1697  1.0552
 3552THY    CA588794   4.871   2.141   1.529 -0.3391 -0.0652 -0.3611
 3552THY    CM188795   4.971   2.117   1.634  0.0429  0.1457  0.4511
 3552THY    HM188796   5.064   2.073   1.594 -0.6479 -0.0760 -0.9690
 3552THY    HM288797   4.990   2.207   1.694 -0.1037 -0.0017  0.7252
 3552THY    HM388798   4.922   2.048   1.705 -0.9036 -0.1764 -0.4890
 3552THY    CA688799   4.761   2.220   1.568  0.7003 -0.2128 -0.2845
 3552THY    HA688800   4.754   2.266   1.666  1.9828 -0.6249  0.0087
 3553THY      O88801   2.217   5.208   2.926  0.6459  0.2814 -0.1707
 3553THY     HO88802   2.222   5.113   2.943  0.6367  0.6511  2.1826
 3553THY    CA188803   2.274   5.265   3.040 -0.1250 -0.0457  0.0874
 3553THY    CA288804   2.253   5.403   3.074 -0.0643 -0.7373 -0.6014
 3553THY    CP188805   2.175   5.492   2.974 -0.6454 -0.3893 -0.0816
 3553THY    HP188806   2.177   5.442   2.877 -0.3305 -0.5038 -0.0180
 3553THY    CP288807   2.038   5.523   3.038  0.4878  0.1209 -0.1915
 3553THY    HP288808   2.057   5.571   3.135  0.9490 -0.3131 -0.0664
 3553THY    HP388809   1.979   5.593   2.977 -0.6457  0.0523  0.7828
 3553THY    HP488810   1.976   5.434   3.052 -0.6260  0.5019 -2.2022
 3553THY    CP388811   2.247   5.626   2.950  0.0299  0.3838  0.3295
 3553THY    HP588812   2.345   5.602   2.907 -1.0938 -0.3657 -1.9819
 3553THY    HP688813   2.194   5.688   2.876 -1.4916  0.1893  1.2051
 3553THY    HP788814   2.270   5.688   3.037  1.0743  0.2182  0.1844
 3553THY    CA388815   2.312   5.444   3.196 -0.2099 -0.7011 -0.1633
 3553THY    HA388816   2.289   5.543   3.234 -1.0742  0.2013 -2.8195
 3553THY    CA488817   2.394   5.364   3.272 -1.5727  0.8515 -0.1151
 3553THY    HA488818   2.449   5.399   3.359 -0.5292 -1.8766  0.4137
 3553THY    CA588819   2.412   5.229   3.229 -0.3676  0.1230 -0.8583
 3553THY    CM188820   2.493   5.141   3.322  0.4563 -0.5539 -0.7071
 3553THY    HM188821   2.572   5.208   3.358  0.5800  0.3134 -2.4680
 3553THY    HM288822   2.434   5.118   3.411  0.2315 -0.7917 -0.9183
 3553THY    HM388823   2.529   5.042   3.292 -2.1331 -2.3131  1.5169
 3553THY    CA688824   2.351   5.180   3.118 -0.4853  0.1003  0.6089
 3553THY    HA688825   2.376   5.082   3.077  0.2282  0.9945 -1.1945
 3554THY      O88826   7.171   3.697   4.206  0.3212 -0.1851  0.1560
 3554THY     HO88827   7.212   3.785   4.212 -3.6886  1.8211  2.5463
 3554THY    CA188828   7.078   3.711   4.304  0.2068 -0.6339 -0.4677
 3554THY    CA288829   6.983   3.606   4.336 -0.6083 -0.1598 -0.0250
 3554THY    CP188830   6.993   3.468   4.265  0.3338  0.9521  0.0774
 3554THY    HP188831   7.101   3.451   4.275  0.3395  1.7188  1.5167
 3554THY    CP288832   6.924   3.349   4.343  0.3574 -0.0873  0.4890
 3554THY    HP288833   6.945   3.254   4.291  1.2851 -1.0679  2.5394
 3554THY    HP388834   6.965   3.353   4.444 -0.7655  1.3104  0.9219
 3554THY    HP488835   6.814   3.349   4.334  0.4801 -0.4341 -1.9292
 3554THY    CP388836   6.952   3.469   4.121  0.1405  0.6191 -0.2121
 3554THY    HP588837   6.934   3.372   4.071 -0.9107  0.3414  0.6541
 3554THY    HP688838   6.862   3.532   4.122  1.0700  2.1067 -2.6483
 3554THY    HP788839   7.021   3.524   4.056  0.1041 -1.0235 -1.7568
 3554THY    CA388840   6.884   3.637   4.435  0.0334 -0.2007 -0.1157
 3554THY    HA388841   6.798   3.573   4.450  0.2392 -0.4919 -0.1654
 3554THY    CA488842   6.884   3.762   4.492 -0.6378 -0.4731  0.1598
 3554THY    HA488843   6.810   3.784   4.569 -2.0901 -0.9901 -1.0446
 3554THY    CA588844   6.978   3.857   4.457  0.4753  0.3443  0.0709
 3554THY    CM188845   6.969   3.988   4.526  0.1550 -0.6751 -0.5522
 3554THY    HM188846   7.055   4.053   4.503 -1.0213  1.2420  0.2287
 3554THY    HM288847   6.873   4.039   4.510 -0.6345 -0.8680  2.8890
 3554THY    HM388848   6.978   3.976   4.634  1.2639 -2.5256 -0.8086
 3554THY    CA688849   7.078   3.832   4.367  0.2609  0.1159 -0.1885
 3554THY    HA688850   7.142   3.916   4.345 -0.7968  0.7647 -0.8738
 3555THY      O88851   2.410   2.190   3.664 -0.1721  0.0413  0.1820
 3555THY     HO88852   2.469   2.128   3.709  0.8574  1.3621  0.7250
 3555THY    CA188853   2.421   2.308   3.733 -0.1113  0.0914  0.2351
 3555THY    CA288854   2.324   2.407   3.731 -0.3533  0.6861  0.0243
 3555THY    CP188855   2.192   2.381   3.651  0.5663 -0.4814  0.1520
 3555THY    HP188856   2.215   2.381   3.543  1.0872  3.1913  0.1706
 3555THY    CP288857   2.106   2.264   3.698 -0.3306  0.7195 -0.2109
 3555THY    HP288858   2.072   2.278   3.802  0.9499 -0.2901  0.3711
 3555THY    HP388859   2.018   2.247   3.636  0.2356 -1.6851 -0.4370
 3555THY    HP488860   2.154   2.166   3.703 -3.0666 -0.6709  0.7553
 3555THY    CP388861   2.102   2.510   3.648 -0.4773  0.1443 -0.6149
 3555THY    HP588862   2.077   2.526   3.753  2.4763 -1.7851  0.5021
 3555THY    HP688863   2.176   2.587   3.619  2.1256 -1.1615  2.0516
 3555THY    HP788864   2.029   2.494   3.567 -1.6364  0.5274  0.3317
 3555THY    CA388865   2.349   2.520   3.806 -1.1035 -0.8778  1.1128
 3555THY    HA388866   2.276   2.600   3.811 -0.5234 -0.3406  1.0681
 3555THY    CA488867   2.472   2.533   3.872 -0.1304 -1.0264  0.5434
 3555THY    HA488868   2.496   2.633   3.908 -0.9483 -0.0897 -1.3689
 3555THY    CA588869   2.568   2.431   3.868  0.9897 -1.0490  0.3058
 3555THY    CM188870   2.701   2.445   3.939  0.0977 -0.3253 -0.6236
 3555THY    HM188871   2.790   2.409   3.886  1.0750  1.0615  0.0066
 3555THY    HM288872   2.721   2.545   3.978  0.6966 -0.5184 -0.4268
 3555THY    HM388873   2.699   2.374   4.022  0.2391 -1.1177 -1.2839
 3555THY    CA688874   2.542   2.317   3.799  0.0648  0.3677 -0.0949
 3555THY    HA688875   2.616   2.238   3.791  1.6241  1.4875  2.2005
 3556THY      O88876   9.600   4.727   6.304  0.4985  0.3968  0.0738
 3556THY     HO88877   9.669   4.796   6.304 -0.8995  1.9185 -1.7765
 3556THY    CA188878   9.493   4.787   6.354 -0.4422 -0.2054 -0.4993
 3556THY    CA288879   9.371   4.770   6.292 -0.2905 -0.4258  0.1193
 3556THY    CP188880   9.360   4.686   6.157  0.5474  0.2650  0.2108
 3556THY    HP188881   9.430   4.603   6.142  1.3221  1.2495 -2.0293
 3556THY    CP288882   9.224   4.624   6.143 -0.4868 -0.0900  0.1206
 3556THY    HP288883   9.201   4.550   6.221 -0.5912 -0.3523 -0.1567
 3556THY    HP388884   9.135   4.687   6.152 -0.5008 -0.1532  0.4166
 3556THY    HP488885   9.234   4.577   6.044  0.9657 -1.0145  0.6712
 3556THY    CP388886   9.394   4.778   6.045  0.7269  0.7780  0.5175
 3556THY    HP588887   9.326   4.864   6.057  1.7335  1.7336 -0.2938
 3556THY    HP688888   9.495   4.821   6.050  0.5316  1.2638  0.3692
 3556THY    HP788889   9.382   4.727   5.948 -1.9997 -2.3250  2.2794
 3556THY    CA388890   9.254   4.828   6.360  0.3199  0.0988 -0.1373
 3556THY    HA388891   9.151   4.819   6.327 -0.3886  3.5370  0.7483
 3556THY    CA488892   9.275   4.912   6.469 -0.2070  0.3610 -0.0048
 3556THY    HA488893   9.188   4.966   6.504 -0.6297 -0.1264 -0.2958
 3556THY    CA588894   9.406   4.933   6.524  0.2516  0.1662  0.6946
 3556THY    CM188895   9.428   5.018   6.644 -0.5448  0.1207 -0.3758
 3556THY    HM188896   9.363   5.106   6.634 -0.4491  0.1894 -0.3933
 3556THY    HM288897   9.404   4.969   6.739  1.4191  1.4852  0.9179
 3556THY    HM388898   9.531   5.057   6.649 -0.7761  1.0032 -1.9515
 3556THY    CA688899   9.508   4.858   6.469  0.8622 -0.7041 -0.2461
 3556THY    HA688900   9.606   4.851   6.516  0.7219 -3.1789 -0.1822
 3557THY      O88901   6.560   5.580   9.683 -0.7376 -0.1238 -0.3817
 3557THY     HO88902   6.623   5.636   9.731  0.4738 -0.8070 -1.1340
 3557THY    CA188903   6.448   5.573   9.759 -0.1576  0.0255  0.2688
 3557THY    CA288904   6.339   5.481   9.733 -0.5183  0.1963 -0.3976
 3557THY    CP188905   6.352   5.377   9.623  0.1229 -0.2443  0.2101
 3557THY    HP188906   6.433   5.397   9.552 -0.2402  0.7107  0.0389
 3557THY    CP288907   6.369   5.244   9.699  0.3897  0.1803  0.0534
 3557THY    HP288908   6.466   5.256   9.750 -0.5088  0.5457  1.7383
 3557THY    HP388909   6.279   5.230   9.760 -1.2622 -1.6409 -2.5876
 3557THY    HP488910   6.370   5.161   9.627 -0.8359  1.0892 -1.0493
 3557THY    CP388911   6.221   5.354   9.533  0.1455 -0.2428 -0.6327
 3557THY    HP588912   6.197   5.447   9.481  1.0154  0.3109 -0.0734
 3557THY    HP688913   6.246   5.283   9.453  1.0497 -0.9962  0.2827
 3557THY    HP788914   6.133   5.323   9.591 -0.1319  0.1359 -0.8493
 3557THY    CA388915   6.226   5.496   9.814  0.4027  0.7395 -0.0881
 3557THY    HA388916   6.141   5.430   9.800  0.5928  0.5641 -0.4230
 3557THY    CA488917   6.216   5.605   9.900  0.3678 -0.0413 -0.4381
 3557THY    HA488918   6.126   5.628   9.957  1.0253 -0.0982  0.6519
 3557THY    CA588919   6.321   5.693   9.926 -0.8233 -1.1353 -0.1834
 3557THY    CM188920   6.313   5.806  10.023 -0.0007 -0.0318 -0.1526
 3557THY    HM188921   6.239   5.784  10.102 -1.7093  2.0781 -1.0546
 3557THY    HM288922   6.414   5.825  10.060  0.0480  0.4080 -0.5068
 3557THY    HM388923   6.280   5.902   9.981  1.6522  1.3700  1.5303
 3557THY    CA688924   6.446   5.670   9.861  0.5337 -0.3833 -0.6525
 3557THY    HA688925   6.528   5.740   9.874  0.3030 -0.1036 -0.6893
 3558THY      O88926   5.529   2.332   9.132  0.1541  0.1947  0.1206
 3558THY     HO88927   5.606   2.299   9.181  0.1589  2.6218  1.9899
 3558THY    CA188928   5.563   2.455   9.091  0.1138  0.0114 -0.1090
 3558THY    CA288929   5.483   2.529   9.004 -0.6063  0.5909 -0.4029
 3558THY    CP188930   5.360   2.462   8.949 -0.3764  0.8512 -0.2438
 3558THY    HP188931   5.308   2.404   9.026  0.7017 -0.2061 -0.2869
 3558THY    CP288932   5.262   2.566   8.894 -0.2699  0.3663 -0.4998
 3558THY    HP288933   5.297   2.603   8.797 -2.6653 -1.6432 -2.2461
 3558THY    HP388934   5.163   2.523   8.880 -0.0718 -0.1814 -0.2220
 3558THY    HP488935   5.244   2.648   8.965 -1.2882 -0.2647 -0.0090
 3558THY    CP388936   5.393   2.364   8.836  0.3699 -0.7164 -0.8808
 3558THY    HP588937   5.415   2.417   8.743  1.8707  0.1638 -0.0598
 3558THY    HP688938   5.483   2.303   8.854 -1.7000 -3.5809  0.7392
 3558THY    HP788939   5.307   2.297   8.821 -0.4217  0.2394 -0.7346
 3558THY    CA388940   5.524   2.658   8.965  0.2286 -0.5355  0.2910
 3558THY    HA388941   5.478   2.715   8.884  0.3870  0.0957  0.6429
 3558THY    CA488942   5.641   2.716   9.019 -0.6943 -0.0769 -0.2973
 3558THY    HA488943   5.663   2.818   8.990 -0.7529  0.4344  1.3377
 3558THY    CA588944   5.718   2.634   9.105 -0.1852 -0.0630  0.4875
 3558THY    CM188945   5.849   2.693   9.150 -0.4305 -1.4056 -0.8603
 3558THY    HM188946   5.842   2.755   9.240 -0.5034  0.6617 -2.2167
 3558THY    HM288947   5.936   2.626   9.154  1.3075  0.7580  2.7978
 3558THY    HM388948   5.883   2.763   9.073 -1.2359 -1.3106 -1.1363
 3558THY    CA688949   5.681   2.510   9.151  0.3088  0.0311 -0.6083
 3558THY    HA688950   5.723   2.454   9.235 -1.8878 -2.6088 -1.1557
 3559THY      O88951   2.941   7.132   9.168  0.2849 -0.1423 -0.0214
 3559THY     HO88952   2.878   7.197   9.202  1.5829  0.5260  1.2023
 3559THY    CA188953   2.968   7.054   9.266 -0.2124  0.5838  0.1382
 3559THY    CA288954   3.075   6.959   9.270 -0.6063  0.2303 -0.3734
 3559THY    CP188955   3.174   6.942   9.151 -0.1114  0.2357  0.0339
 3559THY    HP188956   3.157   7.020   9.075  1.4754  0.3415 -0.2357
 3559THY    CP288957   3.320   6.958   9.186  0.1660  0.3855  0.2643
 3559THY    HP288958   3.339   7.060   9.222  2.9367 -0.4966  1.5736
 3559THY    HP388959   3.356   6.893   9.267 -3.2930  2.4776  3.7969
 3559THY    HP488960   3.388   6.930   9.105  0.9709 -1.6624  1.5448
 3559THY    CP388961   3.145   6.806   9.078  0.6079 -0.6083 -0.0553
 3559THY    HP588962   3.042   6.769   9.087  0.1745  0.5789 -0.0252
 3559THY    HP688963   3.180   6.812   8.975 -0.4978  0.2091 -0.4039
 3559THY    HP788964   3.207   6.731   9.129 -1.0133 -1.8474  0.2022
 3559THY    CA388965   3.090   6.879   9.381 -0.4110 -0.8791 -0.3661
 3559THY    HA388966   3.182   6.823   9.395  0.1231 -0.7860 -3.1187
 3559THY    CA488967   3.005   6.899   9.487  0.2071  0.2073 -0.0011
 3559THY    HA488968   3.031   6.844   9.577  1.4975  0.9313  0.0962
 3559THY    CA588969   2.895   6.987   9.486 -0.0827  0.0173  0.1697
 3559THY    CM188970   2.811   6.995   9.610 -0.4087 -0.5002  0.4601
 3559THY    HM188971   2.843   6.933   9.695  1.2777 -0.3832 -0.0437
 3559THY    HM288972   2.816   7.099   9.644  0.9957 -0.6667  0.8066
 3559THY    HM388973   2.703   6.991   9.591 -0.8821  3.1556  1.6516
 3559THY    CA688974   2.874   7.062   9.371  0.4077  0.0318  0.1414
 3559THY    HA688975   2.799   7.140   9.364  1.0202  0.4807 -2.5769
 3560THY      O88976   4.280   7.207   4.380  0.6497  0.1016 -0.2524
 3560THY     HO88977   4.201   7.170   4.337  0.7013  0.8145 -0.9775
 3560THY    CA188978   4.333   7.104   4.444  0.6873 -0.4589  0.1084
 3560THY    CA288979   4.469   7.080   4.464  0.8661  0.4406 -0.3367
 3560THY    CP188980   4.568   7.191   4.435 -0.1067  0.1537  0.4725
 3560THY    HP188981   4.522   7.286   4.404 -0.1663  1.2041  3.4717
 3560THY    CP288982   4.626   7.238   4.566  0.4050 -0.8611  0.1311
 3560THY    HP288983   4.690   7.162   4.611 -0.8331 -2.1903 -0.2641
 3560THY    HP388984   4.685   7.331   4.559 -2.6816  1.4874  2.3091
 3560THY    HP488985   4.550   7.269   4.639  0.4163 -0.4219 -0.0401
 3560THY    CP388986   4.675   7.156   4.335  0.1217  0.6096  0.1309
 3560THY    HP588987   4.649   7.193   4.235 -0.4669 -1.9983 -0.7745
 3560THY    HP688988   4.768   7.200   4.373 -1.0255  1.4694  2.0696
 3560THY    HP788989   4.681   7.046   4.338 -2.1652  0.4219 -0.4572
 3560THY    CA388990   4.508   6.962   4.523 -0.1287 -0.2635  0.2047
 3560THY    HA388991   4.614   6.950   4.543  0.2600  0.9969 -0.9384
 3560THY    CA488992   4.410   6.866   4.553 -0.0613  0.5789 -0.1640
 3560THY    HA488993   4.434   6.767   4.591 -0.7517  0.2490 -0.5698
 3560THY    CA588994   4.283   6.896   4.546  0.3546  0.2392  0.2953
 3560THY    CM188995   4.184   6.785   4.575 -0.3625  0.3905 -0.2003
 3560THY    HM188996   4.220   6.721   4.656 -2.4284 -0.0984  0.4061
 3560THY    HM288997   4.087   6.832   4.596 -0.4812 -0.4668  1.3062
 3560THY    HM388998   4.173   6.721   4.487  0.9022 -1.3778  0.8728
 3560THY    CA688999   4.240   7.015   4.490  0.5009  0.0450  0.5355
 3560THY    HA689000   4.132   7.022   4.477  0.3063 -1.3252  1.2455
 3561THY      O89001   3.064   6.594   5.004 -0.3486 -0.0801  0.3831
 3561THY     HO89002   3.058   6.515   5.061  2.1131  0.4930  1.5744
 3561THY    CA189003   2.980   6.684   5.054 -0.5152  0.2067 -0.4108
 3561THY    CA289004   2.999   6.818   5.018  0.2040 -0.1032  0.3674
 3561THY    CP189005   3.095   6.855   4.903 -0.2427  0.6308 -1.0861
 3561THY    HP189006   3.179   6.786   4.894 -0.6780 -0.0629 -0.0160
 3561THY    CP289007   3.028   6.871   4.766 -0.4027 -0.0502 -0.2113
 3561THY    HP289008   2.948   6.796   4.759 -0.1703 -0.2557 -0.7616
 3561THY    HP389009   2.993   6.972   4.743 -1.5199 -0.2422  0.6001
 3561THY    HP489010   3.104   6.842   4.693 -0.5992 -0.0286 -0.4263
 3561THY    CP389011   3.172   6.983   4.934  0.1494 -0.2054 -0.7874
 3561THY    HP589012   3.257   7.002   4.868  1.4390 -1.9368  0.3173
 3561THY    HP689013   3.108   7.072   4.941  0.2690  0.0732 -2.5665
 3561THY    HP789014   3.221   6.970   5.031 -0.5490  0.5927 -0.3037
 3561THY    CA389015   2.915   6.920   5.072 -0.3453  0.0703 -0.7569
 3561THY    HA389016   2.905   7.025   5.045 -1.2844  0.2400  0.1612
 3561THY    CA489017   2.823   6.870   5.165 -0.4239  0.0975  0.3502
 3561THY    HA489018   2.754   6.934   5.219 -1.6349 -1.4172  0.6370
 3561THY    CA589019   2.812   6.733   5.202 -0.8017 -0.4023 -0.6163
 3561THY    CM189020   2.702   6.687   5.298  0.2366  0.3253  0.0333
 3561THY    HM189021   2.734   6.695   5.402  1.9303 -0.5646 -0.3791
 3561THY    HM289022   2.615   6.750   5.275  0.1437 -0.4032 -1.7818
 3561THY    HM389023   2.680   6.581   5.279  0.4786  0.1859  0.5269
 3561THY    CA689024   2.897   6.646   5.153  0.5947  0.7298  0.3713
 3561THY    HA689025   2.889   6.540   5.174 -0.9613  0.6829 -0.3380
 3562THY      O89026   2.613   7.460   3.546  0.1802 -0.0985 -0.3929
 3562THY     HO89027   2.705   7.429   3.550 -0.4255 -1.9286  1.7762
 3562THY    CA189028   2.550   7.341   3.510  0.7278 -0.7992 -0.5013
 3562THY    CA289029   2.416   7.310   3.544 -0.1676 -0.4595  0.3531
 3562THY    CP189030   2.333   7.410   3.628 -1.3275  0.5286  0.1564
 3562THY    HP189031   2.365   7.510   3.598 -0.7536  0.4443  0.4727
 3562THY    CP289032   2.187   7.402   3.591 -0.1100  0.1728 -0.6493
 3562THY    HP289033   2.132   7.474   3.652  1.8230 -0.1883  1.6642
 3562THY    HP389034   2.163   7.432   3.489 -2.2446  0.7597 -0.0236
 3562THY    HP489035   2.145   7.301   3.585  0.8318 -0.2112 -0.9714
 3562THY    CP389036   2.351   7.381   3.784 -0.4234  0.5630 -0.3055
 3562THY    HP589037   2.451   7.412   3.817 -0.4740 -0.6804  1.1160
 3562THY    HP689038   2.277   7.425   3.851 -1.7609 -1.7644 -0.1684
 3562THY    HP789039   2.356   7.274   3.805 -1.3462  0.7259  0.8192
 3562THY    CA389040   2.366   7.178   3.514  0.8914 -0.1025 -0.3899
 3562THY    HA389041   2.264   7.149   3.535  0.7313  0.4491 -0.3909
 3562THY    CA489042   2.455   7.084   3.456 -0.8791 -0.6816 -0.1730
 3562THY    HA489043   2.436   6.978   3.447  2.8247 -1.4929  0.1137
 3562THY    CA589044   2.581   7.124   3.414 -0.1225 -0.2065  0.1973
 3562THY    CM189045   2.661   7.019   3.338 -0.0972 -0.1160  0.3356
 3562THY    HM189046   2.653   6.925   3.394  0.7337 -0.6831 -0.4762
 3562THY    HM289047   2.633   7.000   3.234  1.6395 -1.1008 -0.0020
 3562THY    HM389048   2.764   7.056   3.349 -1.4353  4.0125  0.7092
 3562THY    CA689049   2.626   7.253   3.437  0.2155 -0.1894  0.5667
 3562THY    HA689050   2.717   7.293   3.393 -1.7295  0.9151 -2.8439
 3563THY      O89051   0.301   8.411   9.897 -0.0770 -0.4132  0.4029
 3563THY     HO89052   0.368   8.407   9.827  1.1439  0.7728  1.4211
 3563THY    CA189053   0.193   8.399   9.819 -0.2404 -0.3843  0.2782
 3563THY    CA289054   0.075   8.349   9.875 -0.0959 -0.0939  0.5463
 3563THY    CP189055   0.061   8.313  10.021  0.0517  0.0587 -0.5423
 3563THY    HP189056   0.119   8.378  10.087 -1.4114  0.0091  0.8785
 3563THY    CP289057  -0.088   8.315  10.073  0.3403 -0.4122  0.2593
 3563THY    HP289058  -0.151   8.239  10.025 -0.9291  0.2197  0.8863
 3563THY    HP389059  -0.092   8.289  10.179  0.4421  2.8519  1.1423
 3563THY    HP489060  -0.117   8.420  10.060  2.7804  0.1354 -1.7976
 3563THY    CP389061   0.119   8.166  10.039  0.0284  1.0074  0.2427
 3563THY    HP589062   0.215   8.144   9.991  0.8542  1.2868  1.7078
 3563THY    HP689063   0.135   8.151  10.147 -2.0051  0.5898  0.5336
 3563THY    HP789064   0.040   8.095  10.010 -1.1123  2.5453 -0.5255
 3563THY    CA389065  -0.040   8.340   9.782  0.3164  0.3395  0.2331
 3563THY    HA389066  -0.138   8.303   9.810  0.2861 -0.1637 -0.5172
 3563THY    CA489067  -0.030   8.367   9.645  0.4796 -0.4187  0.1976
 3563THY    HA489068  -0.112   8.356   9.575  0.1891 -1.5439  0.6768
 3563THY    CA589069   0.088   8.427   9.600 -0.6855  0.1651  0.2996
 3563THY    CM189070   0.090   8.456   9.453 -0.2168  0.0928  0.0134
 3563THY    HM189071   0.002   8.514   9.420 -0.7019  0.1895  1.4222
 3563THY    HM289072   0.175   8.521   9.429 -0.9295  0.4387 -1.7235
 3563THY    HM389073   0.091   8.362   9.397  2.6869 -0.9680  1.6553
 3563THY    CA689074   0.201   8.429   9.687  0.0325  0.1476 -0.1314
 3563THY    HA689075   0.297   8.450   9.642 -0.0489 -0.2318 -0.4853
 3564THY      O89076   0.656   7.228   1.559 -0.0422 -0.2650  0.4636
 3564THY     HO89077   0.567   7.206   1.526 -1.9354  2.7068  3.0477
 3564THY    CA189078   0.670   7.187   1.690  0.4990  0.5383  0.5543
 3564THY    CA289079   0.792   7.169   1.758  0.1234  0.0905 -0.3362
 3564THY    CP189080   0.920   7.218   1.690  0.8100 -0.0186 -0.8098
 3564THY    HP189081   0.892   7.274   1.600  0.4419 -2.2649 -2.1707
 3564THY    CP289082   0.989   7.324   1.779 -0.7886  0.3218  0.7563
 3564THY    HP289083   0.916   7.402   1.802 -1.1531  1.1796 -2.8445
 3564THY    HP389084   1.021   7.273   1.871 -0.9854 -0.4038  0.4294
 3564THY    HP489085   1.073   7.376   1.733  0.1900 -2.1892 -0.5035
 3564THY    CP389086   1.010   7.097   1.658  0.2737 -0.1403  0.7294
 3564THY    HP589087   1.043   7.041   1.746  1.2530 -0.5960  0.0973
 3564THY    HP689088   0.955   7.026   1.596 -1.0999  0.6989  0.9550
 3564THY    HP789089   1.104   7.128   1.609  1.2409  0.7401  2.9972
 3564THY    CA389090   0.791   7.106   1.885 -0.3993  0.3151  0.0045
 3564THY    HA389091   0.885   7.099   1.939 -0.1608  1.0975 -0.2901
 3564THY    CA489092   0.667   7.046   1.924  0.2344  0.2572 -0.2835
 3564THY    HA489093   0.662   6.997   2.020  1.2836 -0.7840 -0.7412
 3564THY    CA589094   0.548   7.070   1.857  0.0529  0.1806 -0.5567
 3564THY    CM189095   0.419   7.018   1.905 -0.4164  0.4169 -0.4142
 3564THY    HM189096   0.403   6.915   1.871 -0.2774  0.2976 -0.1219
 3564THY    HM289097   0.419   7.025   2.015 -0.4656  3.0223 -0.5291
 3564THY    HM389098   0.332   7.070   1.862 -2.4770 -1.3073  1.3780
 3564THY    CA689099   0.547   7.149   1.745  0.6731 -0.2129 -0.3979
 3564THY    HA689100   0.457   7.158   1.685 -0.6163  1.8227  1.6705
 3565THY      O89101   7.034   1.580   5.866  0.2915 -0.1904  0.2753
 3565THY     HO89102   7.066   1.636   5.939 -0.2736  0.1748  0.2564
 3565THY    CA189103   6.913   1.635   5.829 -0.2044  0.2654  0.3622
 3565THY    CA289104   6.838   1.586   5.718 -0.4329  0.5498 -0.4975
 3565THY    CP189105   6.890   1.474   5.635  0.0739 -0.5224  0.1703
 3565THY    HP189106   6.981   1.432   5.680  1.9870  1.8440 -1.2046
 3565THY    CP289107   6.776   1.369   5.613  0.3220 -0.2197  0.6314
 3565THY    HP289108   6.819   1.280   5.566  0.4987 -0.3461  1.0259
 3565THY    HP389109   6.734   1.331   5.707  0.6392 -0.1663  0.7945
 3565THY    HP489110   6.699   1.404   5.544  1.7395  1.4684 -0.1672
 3565THY    CP389111   6.933   1.532   5.496 -0.2578  0.2981  0.7905
 3565THY    HP589112   6.984   1.627   5.512 -1.5342  0.5721  3.6958
 3565THY    HP689113   7.001   1.461   5.446 -0.8420  1.4402 -1.7705
 3565THY    HP789114   6.849   1.540   5.426  1.6324 -1.1450 -1.8499
 3565THY    CA389115   6.718   1.660   5.685 -0.5448  0.3616 -0.2759
 3565THY    HA389116   6.673   1.630   5.591  0.4991 -1.6261 -0.1794
 3565THY    CA489117   6.686   1.776   5.760 -0.3314 -0.3838 -0.3955
 3565THY    HA489118   6.595   1.822   5.725  0.1628  1.9660  1.1624
 3565THY    CA589119   6.752   1.818   5.873 -0.1231 -0.4326 -0.6655
 3565THY    CM189120   6.704   1.940   5.950 -0.0990 -0.0965 -0.1890
 3565THY    HM189121   6.664   2.017   5.883 -0.2574  0.4114  0.4806
 3565THY    HM289122   6.610   1.914   6.000  0.6771 -2.4434  0.1717
 3565THY    HM389123   6.780   1.986   6.015 -1.3260 -1.5851  2.4576
 3565THY    CA689124   6.873   1.749   5.901  0.1986  0.3431 -0.1789
 3565THY    HA689125   6.932   1.782   5.986 -0.5152  1.5634 -0.1369
 3566THY      O89126   7.087   5.507   0.947 -0.3888 -0.8157  0.1643
 3566THY     HO89127   7.056   5.583   0.895 -0.7704  0.0230  1.5767
 3566THY    CA189128   7.129   5.570   1.050  0.3479 -0.1949 -0.6892
 3566THY    CA289129   7.124   5.520   1.182  0.2669 -0.1984  0.1116
 3566THY    CP189130   7.073   5.382   1.201  0.1826  0.2939  0.0552
 3566THY    HP189131   7.085   5.321   1.111 -0.4148 -0.3518  0.4098
 3566THY    CP289132   7.142   5.307   1.312  0.6323 -0.1234 -0.0843
 3566THY    HP289133   7.123   5.201   1.293 -1.8111  0.2947 -0.2685
 3566THY    HP389134   7.250   5.327   1.316  0.6308 -0.2835  1.9830
 3566THY    HP489135   7.106   5.329   1.414 -0.7589 -0.6421 -0.4469
 3566THY    CP389136   6.920   5.387   1.213  0.3192 -0.4610 -0.5393
 3566THY    HP589137   6.875   5.420   1.119 -0.9688 -3.3431 -1.0430
 3566THY    HP689138   6.874   5.291   1.240 -1.2907  0.8389  1.6725
 3566THY    HP789139   6.892   5.452   1.297  3.0398 -1.1369  1.0148
 3566THY    CA389140   7.179   5.593   1.290 -0.2883 -0.5626 -0.2336
 3566THY    HA389141   7.177   5.560   1.394 -1.6843 -0.4514 -0.1995
 3566THY    CA489142   7.241   5.719   1.267 -0.3101  0.0045  0.7468
 3566THY    HA489143   7.281   5.776   1.350  0.2897  0.1889  0.3370
 3566THY    CA589144   7.258   5.767   1.130  0.2633  0.5575 -0.4897
 3566THY    CM189145   7.345   5.877   1.094 -0.3384 -0.4336 -0.3891
 3566THY    HM189146   7.298   5.930   1.011 -2.0877 -2.1945 -0.5865
 3566THY    HM289147   7.371   5.948   1.174  0.9725 -0.4830 -0.7435
 3566THY    HM389148   7.438   5.837   1.053 -0.5568 -0.8931 -0.4365
 3566THY    CA689149   7.198   5.690   1.029  0.5531 -0.1799  0.5094
 3566THY    HA689150   7.206   5.729   0.928 -1.1935 -1.6853 -0.2669
 3567THY      O89151   4.086   9.397   9.224 -0.0782  0.2689  0.1281
 3567THY     HO89152   4.104   9.315   9.175  0.2999  0.3250  0.1728
 3567THY    CA189153   3.999   9.348   9.315  0.2749  0.1223 -0.0954
 3567THY    CA289154   3.911   9.433   9.389  0.1795  0.4838  0.6132
 3567THY    CP189155   3.902   9.584   9.353 -0.3410  0.5799  0.6085
 3567THY    HP189156   3.922   9.595   9.246  1.9450 -0.0741  0.9319
 3567THY    CP289157   3.769   9.645   9.378 -0.2349  0.2375 -0.2468
 3567THY    HP289158   3.775   9.740   9.323 -0.4667 -1.1501 -2.8387
 3567THY    HP389159   3.695   9.587   9.320  1.9515 -1.2110 -1.7463
 3567THY    HP489160   3.751   9.675   9.481  0.4215  1.6491 -0.5242
 3567THY    CP389161   4.014   9.657   9.432 -0.4652  0.3695  0.3401
 3567THY    HP589162   4.036   9.753   9.383  2.6209 -0.4737 -0.1282
 3567THY    HP689163   3.978   9.658   9.536  0.7744 -2.5957  0.8975
 3567THY    HP789164   4.108   9.603   9.418  1.2913  2.5482  2.7019
 3567THY    CA389165   3.817   9.379   9.479 -1.0013  0.9366 -0.3259
 3567THY    HA389166   3.731   9.433   9.517 -1.3768  0.7211 -0.8582
 3567THY    CA489167   3.830   9.231   9.498  0.2837  0.4075 -0.4330
 3567THY    HA489168   3.763   9.184   9.570 -0.7745  0.6554 -1.2388
 3567THY    CA589169   3.923   9.151   9.429 -0.1619  0.4903  0.0063
 3567THY    CM189170   3.963   9.006   9.466  0.2832 -0.2071 -0.6640
 3567THY    HM189171   3.948   8.924   9.395 -1.4617 -1.2988  0.8677
 3567THY    HM289172   4.061   8.995   9.515 -0.4837 -1.7888  0.5982
 3567THY    HM389173   3.881   8.988   9.536  0.4395  0.1055 -0.3976
 3567THY    CA689174   4.004   9.218   9.340  0.5698  0.1594 -0.6172
 3567THY    HA689175   4.075   9.161   9.280  0.9920  0.8996 -0.8273
 3568THY      O89176   1.857   7.876   5.314 -0.8399 -0.3796  0.1164
 3568THY     HO89177   1.862   7.819   5.235 -1.1346 -0.4519  0.1496
 3568THY    CA189178   1.749   7.946   5.280  0.5705 -0.4717 -0.1256
 3568THY    CA289179   1.676   8.038   5.366 -0.2385 -0.4333  0.3583
 3568THY    CP189180   1.712   8.033   5.518  0.6936  0.3759  0.0307
 3568THY    HP189181   1.790   7.957   5.527  0.7157  0.3337 -0.5075
 3568THY    CP289182   1.753   8.171   5.568 -0.2003 -0.1447 -0.3217
 3568THY    HP289183   1.822   8.165   5.653 -0.7570 -0.8756  0.0859
 3568THY    HP389184   1.807   8.223   5.488 -0.2586  1.1972  0.4803
 3568THY    HP489185   1.665   8.231   5.595 -0.5048  0.5930 -2.7284
 3568THY    CP389186   1.604   7.977   5.601 -0.3608 -0.6205  0.2094
 3568THY    HP589187   1.512   8.033   5.580 -0.3126 -0.0893  1.3329
 3568THY    HP689188   1.583   7.871   5.580 -2.0139  0.1336 -2.3905
 3568THY    HP789189   1.625   7.989   5.708 -1.1472  0.5835  0.2477
 3568THY    CA389190   1.582   8.130   5.312  1.1879  0.1712 -0.7156
 3568THY    HA389191   1.540   8.206   5.378  0.2635 -0.7810 -0.1747
 3568THY    CA489192   1.543   8.104   5.181  0.0022 -0.6012 -0.3718
 3568THY    HA489193   1.464   8.164   5.138  0.5879 -0.6619 -1.5564
 3568THY    CA589194   1.611   8.019   5.096  0.1127 -0.4966 -0.9538
 3568THY    CM189195   1.560   7.998   4.958  0.6429  0.4812  1.1990
 3568THY    HM189196   1.593   7.904   4.913  0.7381  1.0380  0.0799
 3568THY    HM289197   1.451   7.997   4.945  0.8332  0.1740 -0.7032
 3568THY    HM389198   1.602   8.081   4.900 -1.1235  0.9991  0.5801
 3568THY    CA689199   1.721   7.947   5.146  0.7192  0.4964  0.3011
 3568THY    HA689200   1.771   7.881   5.075 -0.4183 -0.1636  0.0890
 3569THY      O89201   3.433   6.825   5.865  0.3564 -0.0429  0.1199
 3569THY     HO89202   3.382   6.784   5.793  0.8772 -1.1987  0.3901
 3569THY    CA189203   3.564   6.790   5.850  1.0265  0.4236 -0.0448
 3569THY    CA289204   3.655   6.808   5.959  0.7376  0.5781 -0.6353
 3569THY    CP189205   3.600   6.840   6.102  0.2953  0.3050  0.2399
 3569THY    HP189206   3.498   6.880   6.102 -1.9338 -4.6123  1.3166
 3569THY    CP289207   3.593   6.706   6.171 -0.9020 -0.1681  0.5583
 3569THY    HP289208   3.585   6.710   6.281  0.1645 -1.5651  0.7207
 3569THY    HP389209   3.513   6.650   6.120  0.3338 -0.8157 -0.7257
 3569THY    HP489210   3.688   6.655   6.153 -1.0485  0.1422 -1.2941
 3569THY    CP389211   3.693   6.938   6.186 -0.2993 -0.1465 -0.0147
 3569THY    HP589212   3.660   6.944   6.290 -0.6623 -3.7611  0.2238
 3569THY    HP689213   3.798   6.907   6.183 -0.1389  0.0729  1.9415
 3569THY    HP789214   3.692   7.035   6.135 -0.5943  0.7600  1.6491
 3569THY    CA389215   3.789   6.781   5.932 -0.8347 -0.3790  0.2610
 3569THY    HA389216   3.860   6.793   6.013 -1.4336  0.6270  0.6561
 3569THY    CA489217   3.828   6.740   5.802 -0.1148  0.5324 -0.7908
 3569THY    HA489218   3.931   6.714   5.780 -0.1833 -1.4303  0.8897
 3569THY    CA589219   3.741   6.729   5.693 -0.0234 -0.6038 -0.8277
 3569THY    CM189220   3.791   6.697   5.556  0.1686 -0.1941 -0.5808
 3569THY    HM189221   3.898   6.675   5.548  0.6163  2.0008 -1.2246
 3569THY    HM289222   3.747   6.605   5.516  0.9380  0.3345 -2.7719
 3569THY    HM389223   3.777   6.784   5.492  1.4177 -0.5051 -1.2967
 3569THY    CA689224   3.609   6.753   5.719 -0.7648  0.2055  0.0871
 3569THY    HA689225   3.538   6.749   5.637 -0.3000  1.3514 -0.4038
 3570THY      O89226   5.189   8.477   1.448 -0.1261 -0.0926 -0.6631
 3570THY     HO89227   5.195   8.573   1.432  0.2681 -0.1551 -0.9111
 3570THY    CA189228   5.064   8.445   1.404  1.0103 -0.2840 -0.4142
 3570THY    CA289229   5.029   8.315   1.377 -0.0003  0.7960 -0.6465
 3570THY    CP189230   5.132   8.200   1.393  0.4696 -0.2322 -0.4415
 3570THY    HP189231   5.230   8.247   1.408  0.1466  1.2685 -2.6232
 3570THY    CP289232   5.086   8.095   1.501 -0.1899 -0.2471 -0.2199
 3570THY    HP289233   4.994   8.054   1.458  1.1739 -1.8787 -1.6967
 3570THY    HP389234   5.160   8.015   1.503 -2.1711 -2.2217 -1.2473
 3570THY    HP489235   5.067   8.140   1.600 -1.1654 -1.2552  0.0687
 3570THY    CP389236   5.159   8.125   1.263 -0.1128 -0.0082  0.4000
 3570THY    HP589237   5.074   8.071   1.219  0.2127 -1.7425  1.7920
 3570THY    HP689238   5.195   8.199   1.191  1.7463 -1.3159 -0.0652
 3570THY    HP789239   5.238   8.050   1.268  0.4958  0.2337 -3.1949
 3570THY    CA389240   4.901   8.284   1.325 -0.3183  0.4349 -0.2385
 3570THY    HA389241   4.870   8.186   1.287 -1.6591  1.4732 -1.9807
 3570THY    CA489242   4.810   8.387   1.312  0.1276 -0.3541 -0.7770
 3570THY    HA489243   4.705   8.384   1.283  0.0247  1.4030 -0.6897
 3570THY    CA589244   4.843   8.515   1.356  0.1243 -0.3440 -0.2630
 3570THY    CM189245   4.750   8.628   1.325  0.5173 -0.2835  0.0576
 3570THY    HM189246   4.782   8.664   1.226  0.0107 -2.5192 -0.9789
 3570THY    HM289247   4.643   8.605   1.316  0.4437 -0.1078  0.4525
 3570THY    HM389248   4.764   8.703   1.404  1.8868  0.1550 -0.5673
 3570THY    CA689249   4.969   8.544   1.402  0.3007 -0.4896 -0.4779
 3570THY    HA689250   5.000   8.644   1.429 -1.1117 -0.4634  1.1967
 3571THY      O89251   4.318   2.497   1.690 -0.3915  0.5470 -0.1349
 3571THY     HO89252   4.279   2.421   1.643  2.1868 -2.6598  2.4276
 3571THY    CA189253   4.209   2.533   1.763  0.2044  0.5016  0.4846
 3571THY    CA289254   4.179   2.664   1.810  0.2612  0.4161  0.7272
 3571THY    CP189255   4.272   2.782   1.803  0.8610  0.2282  0.6221
 3571THY    HP189256   4.368   2.739   1.773  0.0162 -0.0526 -1.9733
 3571THY    CP289257   4.227   2.893   1.696 -0.2046 -0.2920  0.0205
 3571THY    HP289258   4.166   2.853   1.614 -1.1552  0.2580  0.4395
 3571THY    HP389259   4.163   2.965   1.750  0.8052  0.3147  0.4404
 3571THY    HP489260   4.312   2.939   1.646 -0.5298 -0.5168 -0.7472
 3571THY    CP389261   4.301   2.859   1.934 -0.5126  0.2799  0.3226
 3571THY    HP589262   4.347   2.789   2.005  1.9570  1.3544 -0.0872
 3571THY    HP689263   4.371   2.941   1.912 -0.9978  0.2493 -1.5408
 3571THY    HP789264   4.214   2.906   1.980 -1.8898  0.8377 -2.6112
 3571THY    CA389265   4.054   2.678   1.864 -0.0058 -0.6298 -0.0117
 3571THY    HA389266   4.037   2.777   1.904  1.3247 -0.6455  0.6783
 3571THY    CA489267   3.965   2.573   1.877  0.0199  0.6489  0.1411
 3571THY    HA489268   3.871   2.594   1.928  0.3503 -0.2311  1.1692
 3571THY    CA589269   4.003   2.442   1.838 -0.3489 -0.3198 -0.5039
 3571THY    CM189270   3.903   2.329   1.866 -0.6991  0.2478 -0.6070
 3571THY    HM189271   3.844   2.313   1.775 -1.1804 -0.6816 -0.1407
 3571THY    HM289272   3.954   2.233   1.882 -0.3602  0.2443 -1.6069
 3571THY    HM389273   3.841   2.350   1.953  1.9684  1.2654  1.1771
 3571THY    CA689274   4.125   2.426   1.775  0.5204  0.2386  0.0633
 3571THY    HA689275   4.156   2.325   1.747  2.1955 -0.1102  2.8008
 3572THY      O89276   2.363   0.164   7.645 -0.6463  0.0166  0.0036
 3572THY     HO89277   2.311   0.165   7.563 -0.1543 -0.9474 -0.3342
 3572THY    CA189278   2.318   0.276   7.715 -0.4356 -0.0677  0.0552
 3572THY    CA289279   2.371   0.322   7.837 -0.2043  0.1885  0.1613
 3572THY    CP189280   2.466   0.218   7.911 -0.1365 -0.0433  0.2803
 3572THY    HP189281   2.501   0.148   7.833 -0.3493  0.7904 -0.5791
 3572THY    CP289282   2.590   0.291   7.974  0.7427 -0.1602  0.2368
 3572THY    HP289283   2.654   0.338   7.898  0.4409 -1.0479 -0.5728
 3572THY    HP389284   2.558   0.373   8.040  0.3789  0.8461 -1.1601
 3572THY    HP489285   2.651   0.222   8.034  0.0780 -1.5687 -0.6775
 3572THY    CP389286   2.394   0.141   8.023  0.0170 -0.0897  0.8160
 3572THY    HP589287   2.458   0.061   8.060 -1.2910 -1.2177  0.7338
 3572THY    HP689288   2.364   0.208   8.105 -4.2692 -0.5861 -0.0946
 3572THY    HP789289   2.302   0.093   7.987 -0.0638  1.5073 -1.2365
 3572THY    CA389290   2.315   0.436   7.898 -0.2887  0.3805 -0.2292
 3572THY    HA389291   2.359   0.480   7.988 -0.7440  0.1811  0.0932
 3572THY    CA489292   2.223   0.512   7.830 -0.4379 -0.5566  0.6373
 3572THY    HA489293   2.189   0.604   7.876  2.0553  0.0289  1.4672
 3572THY    CA589294   2.168   0.458   7.723  0.0880 -0.8634  1.1687
 3572THY    CM189295   2.050   0.526   7.645  0.6324  0.5878 -0.3247
 3572THY    HM189296   1.950   0.507   7.683  0.0882  0.3053 -1.8241
 3572THY    HM289297   2.065   0.635   7.640  0.8701  0.5267 -1.2421
 3572THY    HM389298   2.039   0.483   7.545 -0.4975 -2.4806  1.0153
 3572THY    CA689299   2.216   0.350   7.649  0.6287 -0.2516 -0.1937
 3572THY    HA689300   2.167   0.317   7.558 -1.8978 -2.6553  1.8601
 3573THY      O89301   3.859   7.351   8.981 -0.1203 -0.5288 -0.3189
 3573THY     HO89302   3.876   7.439   9.019 -1.0351 -0.8018  0.7933
 3573THY    CA189303   3.790   7.297   9.082 -0.3305 -0.3346  0.4284
 3573THY    CA289304   3.739   7.166   9.075  0.1804 -0.2525  0.0156
 3573THY    CP189305   3.775   7.072   8.950  0.3066  0.1410  0.1239
 3573THY    HP189306   3.873   7.102   8.910  0.8771 -2.2177 -0.4411
 3573THY    CP289307   3.781   6.917   8.993  0.2279  0.1085  0.1831
 3573THY    HP289308   3.844   6.901   9.081 -1.0054 -3.0271  0.6221
 3573THY    HP389309   3.679   6.879   9.007 -0.4657  1.2734 -1.3295
 3573THY    HP489310   3.825   6.858   8.912  0.4848  1.5353 -0.7455
 3573THY    CP389311   3.665   7.082   8.833  0.0212 -0.0183 -0.5554
 3573THY    HP589312   3.709   7.046   8.739  1.1896 -2.6616  0.8985
 3573THY    HP689313   3.570   7.033   8.856 -0.6792  2.3433  2.1688
 3573THY    HP789314   3.642   7.188   8.817 -2.0269 -0.1358  1.2370
 3573THY    CA389315   3.667   7.114   9.186  0.3780  0.3683  0.5877
 3573THY    HA389316   3.616   7.018   9.187  0.8204  0.1363  1.1606
 3573THY    CA489317   3.639   7.198   9.292  0.3376  0.8529  0.3231
 3573THY    HA489318   3.575   7.167   9.375 -1.4223  1.8065 -0.6059
 3573THY    CA589319   3.693   7.325   9.304 -0.6454 -0.3172 -0.1340
 3573THY    CM189320   3.662   7.417   9.425  0.1240 -0.0117  0.3217
 3573THY    HM189321   3.613   7.351   9.498  0.1235  1.5719  1.8146
 3573THY    HM289322   3.753   7.463   9.462  1.1597 -3.0270  1.8696
 3573THY    HM389323   3.587   7.485   9.384  0.8272  0.3732 -0.3520
 3573THY    CA689324   3.770   7.374   9.197 -0.1453  0.5310 -0.0260
 3573THY    HA689325   3.812   7.474   9.203  1.5188 -0.0785 -0.9299
 3574THY      O89326   8.583   0.674   5.917  0.4115  0.5967 -0.1127
 3574THY     HO89327   8.510   0.679   5.982 -1.4634 -0.7202 -1.9598
 3574THY    CA189328   8.699   0.689   5.980  0.1971 -0.1924  0.0556
 3574THY    CA289329   8.821   0.687   5.905 -0.3091 -0.1351 -0.0773
 3574THY    CP189330   8.815   0.680   5.751 -0.0202  0.1977  0.3933
 3574THY    HP189331   8.739   0.604   5.730  0.5576  0.0522 -1.3012
 3574THY    CP289332   8.784   0.814   5.687  0.3748 -0.2194  0.3980
 3574THY    HP289333   8.685   0.845   5.723  0.7991 -0.3647  1.7193
 3574THY    HP389334   8.863   0.882   5.719  1.2781 -0.4848 -1.1588
 3574THY    HP489335   8.772   0.800   5.578  0.7807  1.2857  0.1400
 3574THY    CP389336   8.940   0.627   5.676  0.0234 -0.7037 -0.9095
 3574THY    HP589337   8.918   0.629   5.569 -2.9342  0.4400 -0.3817
 3574THY    HP689338   9.027   0.692   5.695 -1.2755  0.7446  0.4208
 3574THY    HP789339   8.969   0.523   5.695 -0.1702 -0.7127 -0.6504
 3574THY    CA389340   8.939   0.688   5.980 -0.4375  0.3692 -1.3201
 3574THY    HA389341   9.034   0.683   5.928  0.5998 -3.1953  0.6011
 3574THY    CA489342   8.934   0.683   6.124 -0.4963 -0.2534 -0.5540
 3574THY    HA489343   9.019   0.699   6.189 -1.3424  3.8244 -0.1587
 3574THY    CA589344   8.809   0.701   6.190 -0.2775 -0.8011 -1.1286
 3574THY    CM189345   8.801   0.734   6.339  0.2952  0.1104 -0.2993
 3574THY    HM189346   8.830   0.655   6.409 -1.7571  1.2808  1.9787
 3574THY    HM289347   8.860   0.822   6.368 -0.5954 -0.1729  2.7203
 3574THY    HM389348   8.692   0.737   6.349 -0.1018  2.0446 -3.6374
 3574THY    CA689349   8.688   0.695   6.119 -0.0637 -0.5530 -0.2160
 3574THY    HA689350   8.594   0.712   6.170  0.0210 -0.9545  0.0764
 3575THY      O89351   8.751   0.982   8.324  0.1560 -0.0521  0.4427
 3575THY     HO89352   8.824   0.993   8.387 -0.8420  0.2392  1.5956
 3575THY    CA189353   8.756   1.094   8.240 -0.4865  0.5787  0.2872
 3575THY    CA289354   8.654   1.132   8.151 -0.3004 -0.7474  0.2408
 3575THY    CP189355   8.527   1.048   8.138 -0.5621  0.1841  0.7347
 3575THY    HP189356   8.546   0.940   8.130 -0.1528  0.3273 -0.3804
 3575THY    CP289357   8.442   1.067   8.267  0.4625  0.3136 -0.5533
 3575THY    HP289358   8.483   1.013   8.352 -0.7067  1.0881  0.5391
 3575THY    HP389359   8.438   1.172   8.298  1.3839 -0.0577  0.8954
 3575THY    HP489360   8.342   1.021   8.263  1.3935 -1.8298 -0.6204
 3575THY    CP389361   8.439   1.078   8.014 -0.1882 -0.1033 -0.2188
 3575THY    HP589362   8.381   1.171   8.023  1.5609  1.0560 -0.4014
 3575THY    HP689363   8.475   1.069   7.911  1.4353  0.0694  0.3081
 3575THY    HP789364   8.364   0.998   8.016  1.2597 -1.5022 -0.5816
 3575THY    CA389365   8.669   1.255   8.091 -0.3494 -0.0992  0.6076
 3575THY    HA389366   8.589   1.299   8.032  0.5007  4.2371  2.2745
 3575THY    CA489367   8.793   1.320   8.088 -1.3319 -0.3502 -0.1246
 3575THY    HA489368   8.808   1.409   8.028 -0.0409 -0.2264  0.3433
 3575THY    CA589369   8.901   1.275   8.170  0.2170  0.0499  0.1408
 3575THY    CM189370   9.028   1.339   8.155 -0.3892  0.1794 -0.3282
 3575THY    HM189371   9.033   1.417   8.231  1.0288  0.0585 -0.2731
 3575THY    HM289372   9.105   1.261   8.159  0.3787  0.9747  0.6356
 3575THY    HM389373   9.027   1.382   8.054 -0.8402  1.7750  0.3366
 3575THY    CA689374   8.876   1.168   8.253 -0.1672 -0.3970  0.1306
 3575THY    HA689375   8.962   1.130   8.308 -0.7538 -0.6267  0.9038
 3576THY      O89376   2.525   2.142   3.424  0.2160  0.3594 -0.0081
 3576THY     HO89377   2.458   2.151   3.494  1.0989 -1.0959  1.1164
 3576THY    CA189378   2.455   2.118   3.312 -0.2947  0.4548  1.1280
 3576THY    CA289379   2.514   2.119   3.185 -0.4403  0.0365 -0.3673
 3576THY    CP189380   2.674   2.133   3.171 -0.0460  0.3647  0.0157
 3576THY    HP189381   2.718   2.142   3.271  1.5400  0.3382 -0.6416
 3576THY    CP289382   2.733   2.008   3.098 -0.3337 -0.0752  0.6039
 3576THY    HP289383   2.842   2.008   3.107 -0.2872 -0.0145  0.0612
 3576THY    HP389384   2.690   1.916   3.139 -0.0202 -0.0163  1.0857
 3576THY    HP489385   2.706   2.018   2.993  0.5716  2.2145  0.5127
 3576THY    CP389386   2.709   2.259   3.105  0.5644  0.0298 -0.3668
 3576THY    HP589387   2.677   2.351   3.157  2.1309  0.4650 -0.1294
 3576THY    HP689388   2.818   2.265   3.098  0.7745 -1.9919  0.5848
 3576THY    HP789389   2.664   2.258   3.005  0.6558 -1.9557 -0.4224
 3576THY    CA389390   2.427   2.095   3.077 -0.5825  0.0336  0.1290
 3576THY    HA389391   2.459   2.102   2.973 -1.8834  1.8293 -0.2111
 3576THY    CA489392   2.289   2.083   3.097  0.0317 -0.2929  0.0171
 3576THY    HA489393   2.223   2.085   3.011  0.5049  0.5310 -0.3420
 3576THY    CA589394   2.237   2.080   3.225  0.3497 -0.2729 -0.6208
 3576THY    CM189395   2.090   2.088   3.243  0.4750  0.4001 -0.6879
 3576THY    HM189396   2.053   2.127   3.339 -0.9515 -1.4356 -0.4388
 3576THY    HM289397   2.034   2.142   3.165 -2.8830 -0.6626  0.7908
 3576THY    HM389398   2.047   1.988   3.232  0.7494  0.3160 -1.0165
 3576THY    CA689399   2.319   2.099   3.336 -0.1027  0.2791  0.1923
 3576THY    HA689400   2.281   2.108   3.437 -1.8621  0.4428 -0.4444
 3577THY      O89401   9.814   0.240   3.275 -0.1076  0.0942 -0.3771
 3577THY     HO89402   9.810   0.185   3.354  0.2731  1.2291  0.4612
 3577THY    CA189403   9.847   0.167   3.162  0.2765  0.5587 -0.1136
 3577THY    CA289404   9.842   0.223   3.030  0.1920  0.0005 -0.0496
 3577THY    CP189405   9.773   0.357   3.018  0.4533 -0.2716 -0.3785
 3577THY    HP189406   9.789   0.426   3.101 -1.6452  2.2740 -1.9451
 3577THY    CP289407   9.827   0.442   2.904 -0.1539  0.1431 -0.1210
 3577THY    HP289408   9.774   0.537   2.917  0.0983  0.2083  0.4488
 3577THY    HP389409   9.935   0.448   2.888 -0.1753 -1.2740 -1.0006
 3577THY    HP489410   9.792   0.397   2.810  0.7668  0.9376 -0.8554
 3577THY    CP389411   9.620   0.328   3.003  0.2287  0.1822  0.3803
 3577THY    HP589412   9.577   0.288   3.095  0.4363  0.3442  0.5473
 3577THY    HP689413   9.572   0.425   2.983  0.5290  0.6652  1.9034
 3577THY    HP789414   9.602   0.250   2.927  2.0485  1.6771 -1.7322
 3577THY    CA389415   9.889   0.147   2.922  0.5275 -0.3857  0.7064
 3577THY    HA389416   9.879   0.183   2.820  0.9189 -2.1144  0.0156
 3577THY    CA489417   9.941   0.019   2.946  0.8429  0.5671  0.2451
 3577THY    HA489418   9.995  -0.034   2.869  0.1106  0.7320 -0.3956
 3577THY    CA589419   9.946  -0.035   3.079 -0.4706  0.1448  0.2307
 3577THY    CM189420  10.002  -0.172   3.111 -0.0001  0.6233  0.1942
 3577THY    HM189421   9.974  -0.253   3.043 -0.1509 -0.6893  1.7541
 3577THY    HM289422  10.108  -0.163   3.085  0.1568 -0.7933  0.2572
 3577THY    HM389423  10.004  -0.219   3.210  0.0914 -1.3393 -0.6950
 3577THY    CA689424   9.889   0.038   3.189  0.2245  0.4738  0.7703
 3577THY    HA689425   9.918   0.000   3.286 -0.1052 -0.9572  0.3369
 3578THY      O89426   0.604   5.877   9.589 -0.0303  0.1293 -0.1731
 3578THY     HO89427   0.540   5.809   9.615  0.0031  0.3416  0.4706
 3578THY    CA189428   0.642   5.932   9.707 -0.2037  0.9278 -0.6013
 3578THY    CA289429   0.738   6.027   9.701  0.5990  0.1667 -0.2030
 3578THY    CP189430   0.804   6.062   9.572 -0.4070  0.2998  0.1895
 3578THY    HP189431   0.768   6.014   9.480  2.4987 -1.0428 -0.3489
 3578THY    CP289432   0.772   6.211   9.536  0.3230 -0.0617 -0.5327
 3578THY    HP289433   0.803   6.232   9.434  0.7136 -0.0636 -0.4148
 3578THY    HP389434   0.664   6.231   9.545  0.2590 -0.2404 -0.9086
 3578THY    HP489435   0.832   6.274   9.603 -0.9248 -0.2991  0.8818
 3578THY    CP389436   0.954   6.031   9.575  0.0543 -0.0054  0.0397
 3578THY    HP589437   1.002   6.057   9.481  0.7649  0.0480  0.4110
 3578THY    HP689438   0.998   6.097   9.651 -0.2791 -1.0177  1.1436
 3578THY    HP789439   0.971   5.926   9.599  1.3757  0.0165 -0.6967
 3578THY    CA389440   0.783   6.080   9.825 -0.1532 -0.4772  0.0838
 3578THY    HA389441   0.867   6.148   9.824 -2.0374  2.0374  1.2668
 3578THY    CA489442   0.743   6.020   9.950  0.4059 -0.1376  0.0081
 3578THY    HA489443   0.783   6.050  10.046  0.7764 -1.2560  0.2094
 3578THY    CA589444   0.643   5.916   9.947 -0.3826  0.1632  0.0485
 3578THY    CM189445   0.617   5.846  10.070  0.7424 -0.0271  0.1672
 3578THY    HM189446   0.570   5.748  10.058 -3.0619  1.6482 -0.0346
 3578THY    HM289447   0.710   5.831  10.126  0.2725 -2.0259  0.5069
 3578THY    HM389448   0.557   5.917  10.127  2.2026  0.6209  0.9570
 3578THY    CA689449   0.597   5.868   9.826  0.3679  0.0212 -0.4181
 3578THY    HA689450   0.523   5.789   9.819  0.1769  0.1620 -0.0250
 3579THY      O89451   7.939   4.140   5.387  0.2722  0.3332 -0.1233
 3579THY     HO89452   7.887   4.141   5.305 -2.7542 -3.0036  1.4849
 3579THY    CA189453   7.944   4.011   5.416 -0.0983 -0.0025  0.3800
 3579THY    CA289454   7.966   3.964   5.550  0.3795 -0.1483 -0.7291
 3579THY    CP189455   7.990   4.062   5.667  0.2705  0.1839  0.2417
 3579THY    HP189456   8.006   4.165   5.633 -1.6260  0.0337 -1.2368
 3579THY    CP289457   7.873   4.064   5.773  0.2324  0.4352  0.4458
 3579THY    HP289458   7.903   4.129   5.856  0.8908  0.5124  0.1543
 3579THY    HP389459   7.775   4.096   5.736  0.0708  0.3049  0.7623
 3579THY    HP489460   7.858   3.964   5.815 -1.6025  1.1156  1.5354
 3579THY    CP389461   8.124   4.035   5.738  0.4849 -0.0218  0.0624
 3579THY    HP589462   8.196   4.040   5.655 -1.5701  0.7859 -1.7574
 3579THY    HP689463   8.153   4.099   5.822  1.6451 -0.9409  0.3883
 3579THY    HP789464   8.121   3.932   5.775 -3.4947  0.5108  1.6554
 3579THY    CA389465   7.966   3.828   5.573 -0.6253 -0.6196  0.2736
 3579THY    HA389466   7.976   3.798   5.677  0.4195 -3.6982 -0.6118
 3579THY    CA489467   7.954   3.737   5.461 -0.2089  0.1436 -0.0413
 3579THY    HA489468   7.944   3.631   5.486 -2.2257  0.3793  0.3196
 3579THY    CA589469   7.940   3.786   5.333  0.2896 -0.1795  0.1026
 3579THY    CM189470   7.943   3.678   5.228 -0.0039  0.7570 -0.4094
 3579THY    HM189471   8.048   3.644   5.227 -0.5798 -1.0957 -0.3014
 3579THY    HM289472   7.879   3.593   5.250  0.2279 -0.2944 -3.3139
 3579THY    HM389473   7.926   3.711   5.125  0.8442  1.7855 -0.2493
 3579THY    CA689474   7.940   3.923   5.308 -0.1416 -0.4452 -0.3052
 3579THY    HA689475   7.943   3.957   5.205  0.5480 -0.4848 -0.3029
 3580THY      O89476   8.671   1.731   1.196  0.1063 -0.1579 -0.2245
 3580THY     HO89477   8.628   1.744   1.110 -2.1477 -3.4787  0.1741
 3580THY    CA189478   8.594   1.795   1.296  0.7429  0.9396  0.3722
 3580THY    CA289479   8.651   1.826   1.418  0.4882 -0.9551  0.0144
 3580THY    CP189480   8.789   1.771   1.459  0.0482 -0.2209 -0.6381
 3580THY    HP189481   8.801   1.673   1.411  3.1851  0.0763 -0.6811
 3580THY    CP289482   8.896   1.867   1.411  0.1939 -0.0118 -0.4597
 3580THY    HP289483   8.995   1.846   1.453 -0.0622 -0.1206  0.1012
 3580THY    HP389484   8.913   1.855   1.303  0.0630 -2.1516 -0.2909
 3580THY    HP489485   8.872   1.971   1.436  1.1757  1.0523 -3.4728
 3580THY    CP389486   8.800   1.746   1.608 -0.4161  0.0390 -0.1012
 3580THY    HP589487   8.807   1.836   1.671  0.0659 -1.5849  2.3221
 3580THY    HP689488   8.712   1.691   1.642 -0.5362 -0.3582 -1.0307
 3580THY    HP789489   8.893   1.690   1.628  0.2133  1.3321  0.7442
 3580THY    CA389490   8.586   1.921   1.504  0.2109 -0.0634 -0.1693
 3580THY    HA389491   8.635   1.957   1.594  1.2493 -0.7348 -0.4454
 3580THY    CA489492   8.458   1.966   1.478  0.5114 -0.0929  1.5689
 3580THY    HA489493   8.411   2.029   1.552 -0.7064  0.4348  0.4007
 3580THY    CA589494   8.400   1.932   1.355  0.0362 -0.0873 -0.1881
 3580THY    CM189495   8.264   1.981   1.322  0.1816 -0.2515 -0.9331
 3580THY    HM189496   8.259   2.090   1.317 -1.0988 -0.2247  0.3160
 3580THY    HM289497   8.235   1.948   1.222 -0.9889 -1.3069 -0.2731
 3580THY    HM389498   8.183   1.943   1.386  0.3696  0.6180 -0.1522
 3580THY    CA689499   8.467   1.849   1.256  0.2002  1.2185 -0.0951
 3580THY    HA689500   8.420   1.832   1.159  1.2009  1.7389 -0.6841
 3581THY      O89501   3.297   6.664   5.649 -0.4141  0.0386 -0.5319
 3581THY     HO89502   3.295   6.567   5.642 -3.2877 -0.1475  1.1229
 3581THY    CA189503   3.289   6.704   5.520  0.0706 -0.1948 -0.2006
 3581THY    CA289504   3.198   6.800   5.467 -0.7801 -0.2186  0.8868
 3581THY    CP189505   3.100   6.876   5.557  0.4951 -0.3096  0.7050
 3581THY    HP189506   3.083   6.810   5.643  0.2396  0.4262  1.2266
 3581THY    CP289507   3.157   7.003   5.612 -1.2957 -0.0939  0.0788
 3581THY    HP289508   3.242   6.984   5.679 -1.7192 -1.6286  0.2273
 3581THY    HP389509   3.200   7.056   5.526 -1.5080 -1.2584 -0.7617
 3581THY    HP489510   3.085   7.066   5.665  1.0125  1.5551  1.4416
 3581THY    CP389511   2.968   6.901   5.489 -0.7955  0.3042 -0.2546
 3581THY    HP589512   2.900   6.918   5.574  0.6290 -3.2772  1.8611
 3581THY    HP689513   2.964   6.982   5.416 -0.4216  1.7785  1.2914
 3581THY    HP789514   2.936   6.809   5.440 -2.7966  0.1960  1.1096
 3581THY    CA389515   3.199   6.820   5.327  0.3119  0.6099  0.5630
 3581THY    HA389516   3.124   6.882   5.278  0.1335 -1.8809 -2.6601
 3581THY    CA489517   3.294   6.754   5.249 -0.3456 -0.1514  0.8062
 3581THY    HA489518   3.307   6.775   5.143 -0.0122  0.6137  0.9839
 3581THY    CA589519   3.380   6.663   5.296 -0.5647 -0.1114 -0.1249
 3581THY    CM189520   3.481   6.593   5.213 -0.0251 -0.1910 -0.4246
 3581THY    HM189521   3.529   6.667   5.149  1.2456 -0.4737  0.1678
 3581THY    HM289522   3.548   6.528   5.270  1.8199  2.2159  0.2982
 3581THY    HM389523   3.433   6.513   5.154 -0.5451 -0.0783 -0.1591
 3581THY    CA689524   3.365   6.629   5.436  0.2268 -0.4006  0.5419
 3581THY    HA689525   3.432   6.556   5.482  1.6934  1.2440  1.1451
 3582THY      O89526   5.369   0.594   9.374 -0.2437 -0.1221  0.0411
 3582THY     HO89527   5.325   0.536   9.439 -0.8507  0.0831 -0.1733
 3582THY    CA189528   5.440   0.675   9.454  0.4646 -0.4136  0.3791
 3582THY    CA289529   5.453   0.810   9.428 -0.1479  0.0490  0.1948
 3582THY    CP189530   5.382   0.871   9.313  0.1417 -0.3196  0.5130
 3582THY    HP189531   5.350   0.790   9.247  3.1122 -2.3389  1.3624
 3582THY    CP289532   5.257   0.942   9.365  0.2982  0.1199 -1.1609
 3582THY    HP289533   5.207   0.982   9.276 -1.3369 -1.2916 -0.9217
 3582THY    HP389534   5.194   0.884   9.433  1.1636  0.3293 -0.1476
 3582THY    HP489535   5.281   1.030   9.426 -0.5920 -1.1957  1.2102
 3582THY    CP389536   5.477   0.955   9.221  0.2124 -0.6829 -0.7843
 3582THY    HP589537   5.574   0.906   9.207  0.2533 -0.5313 -1.0450
 3582THY    HP689538   5.432   0.981   9.124  0.8782  1.1554 -0.6396
 3582THY    HP789539   5.492   1.045   9.282 -2.6480 -0.1476 -0.7291
 3582THY    CA389540   5.525   0.889   9.518  0.3832  0.1901  0.3209
 3582THY    HA389541   5.537   0.995   9.499 -0.6113  0.1329 -0.7981
 3582THY    CA489542   5.577   0.831   9.631  0.7419  0.1019 -0.0221
 3582THY    HA489543   5.627   0.891   9.707 -1.0449  1.2688  0.2731
 3582THY    CA589544   5.572   0.693   9.651  1.0744  0.4295 -0.1152
 3582THY    CM189545   5.626   0.627   9.776  0.3829  0.3108  0.0882
 3582THY    HM189546   5.671   0.697   9.847  0.5746 -0.1054  0.3889
 3582THY    HM289547   5.566   0.557   9.836  1.1114  0.1616  0.6593
 3582THY    HM389548   5.707   0.568   9.729  0.2359  1.8588 -2.2897
 3582THY    CA689549   5.505   0.612   9.559  0.0666 -0.2552 -0.3376
 3582THY    HA689550   5.488   0.505   9.569  2.6526 -0.7216 -0.2565
 3583THY      O89551   4.125   6.300   5.009  0.2997 -0.7350 -0.8785
 3583THY     HO89552   4.216   6.281   5.036  0.8520  2.2811 -0.3074
 3583THY    CA189553   4.035   6.228   5.096 -0.0935 -0.5173  1.0903
 3583THY    CA289554   3.896   6.226   5.079 -0.3026 -0.8412  0.0564
 3583THY    CP189555   3.824   6.310   4.969 -0.4759 -0.2424 -0.1913
 3583THY    HP189556   3.895   6.305   4.885  0.4982 -0.1693  0.6184
 3583THY    CP289557   3.695   6.249   4.917  0.3801  0.4690  0.4181
 3583THY    HP289558   3.647   6.305   4.835 -0.6739 -0.5253  0.3394
 3583THY    HP389559   3.706   6.146   4.882 -1.3963 -0.0003  1.1568
 3583THY    HP489560   3.616   6.248   4.993  0.3352  0.5391  0.3724
 3583THY    CP389561   3.800   6.455   5.023 -0.3349  0.7277  0.1325
 3583THY    HP589562   3.896   6.506   5.041 -0.3403  0.4785  0.8744
 3583THY    HP689563   3.742   6.504   4.944  3.7245  1.7406 -2.5635
 3583THY    HP789564   3.739   6.451   5.114 -0.2289  0.9008  0.2118
 3583THY    CA389565   3.813   6.143   5.155  0.3877 -0.9114 -0.6092
 3583THY    HA389566   3.705   6.136   5.147  0.2632  0.1531  0.0059
 3583THY    CA489567   3.886   6.070   5.249 -0.3129 -0.0898  0.3472
 3583THY    HA489568   3.828   6.001   5.310  0.4031 -1.9717 -1.0100
 3583THY    CA589569   4.025   6.073   5.264  0.2020  0.3480 -0.1783
 3583THY    CM189570   4.091   6.003   5.383 -0.1815 -0.5262  0.5784
 3583THY    HM189571   4.016   5.978   5.459  0.0001 -4.3121 -0.3041
 3583THY    HM289572   4.144   5.913   5.348 -1.1022 -1.1543  0.7729
 3583THY    HM389573   4.171   6.065   5.427 -1.3268  2.2978 -1.0904
 3583THY    CA689574   4.104   6.152   5.189 -0.2466 -0.1763  0.9727
 3583THY    HA689575   4.212   6.152   5.196 -0.1888 -0.7223  0.1942
 3584THY      O89576   3.298   9.401   4.788  0.4812  0.0840  0.0927
 3584THY     HO89577   3.323   9.315   4.750  3.0379  0.9827 -0.4087
 3584THY    CA189578   3.180   9.438   4.732 -0.7201 -0.4616 -0.7964
 3584THY    CA289579   3.088   9.518   4.801 -0.0582  0.4627  0.7034
 3584THY    CP189580   3.098   9.537   4.952  0.2215  0.0240 -0.2077
 3584THY    HP189581   3.203   9.530   4.984  0.8706 -3.5880 -2.5491
 3584THY    CP289582   3.046   9.675   4.997  0.2992 -0.1531  0.0721
 3584THY    HP289583   3.084   9.713   5.093 -0.9958  0.5103  0.3475
 3584THY    HP389584   3.057   9.758   4.926 -0.9053 -0.2977 -0.3054
 3584THY    HP489585   2.941   9.667   5.027  0.3702 -0.0893  0.3454
 3584THY    CP389586   3.041   9.416   5.031 -0.0068 -0.4733 -0.2472
 3584THY    HP589587   3.110   9.331   5.023  0.1215 -0.3831 -0.1135
 3584THY    HP689588   3.034   9.435   5.139 -0.5486 -2.6379  0.1512
 3584THY    HP789589   2.945   9.384   4.990 -1.4335  0.1253  2.3689
 3584THY    CA389590   2.979   9.574   4.722  0.3591  0.0932 -0.2072
 3584THY    HA389591   2.903   9.630   4.775 -1.5537 -1.7013 -0.9207
 3584THY    CA489592   2.964   9.546   4.587  0.4063  0.8189  0.3987
 3584THY    HA489593   2.879   9.589   4.534 -0.7135  0.4624  1.8501
 3584THY    CA589594   3.059   9.462   4.523  0.6325 -0.2505  0.2264
 3584THY    CM189595   3.064   9.439   4.376  0.2256 -0.3525  0.7827
 3584THY    HM189596   2.961   9.460   4.347 -0.9624 -4.0320  1.8373
 3584THY    HM289597   3.130   9.513   4.328 -0.8236  0.4784  0.5876
 3584THY    HM389598   3.082   9.338   4.337 -0.9981 -0.3206  0.0726
 3584THY    CA689599   3.167   9.410   4.595  0.5565  0.2019  0.6969
 3584THY    HA689600   3.252   9.363   4.547  1.0514  0.3666  1.4033
 3585THY      O89601   0.161   6.098   8.939  0.5439  0.8377  0.0717
 3585THY     HO89602   0.155   6.179   8.885  2.0018  0.5605 -0.5508
 3585THY    CA189603   0.074   6.108   9.045 -1.3188 -0.8128  0.1292
 3585THY    CA289604   0.119   6.089   9.181 -0.3779  0.0121  0.0992
 3585THY    CP189605   0.261   6.047   9.213 -0.2396 -0.1525 -0.3829
 3585THY    HP189606   0.325   6.054   9.124  0.5327 -1.0018  0.0888
 3585THY    CP289607   0.329   6.145   9.302 -0.4727  0.4635 -0.2431
 3585THY    HP289608   0.290   6.146   9.405 -0.9882  0.4006 -0.4369
 3585THY    HP389609   0.432   6.116   9.327 -0.6029 -1.1977 -1.5139
 3585THY    HP489610   0.337   6.244   9.256 -0.4684  0.1726 -0.8666
 3585THY    CP389611   0.265   5.903   9.268  0.9089 -0.1502  0.5059
 3585THY    HP589612   0.191   5.893   9.348 -1.4918  0.8744 -1.4773
 3585THY    HP689613   0.249   5.837   9.182 -0.6733  1.2361 -0.3118
 3585THY    HP789614   0.362   5.877   9.312  0.3059 -1.3558  1.1619
 3585THY    CA389615   0.019   6.100   9.282 -0.0330 -0.0204  0.5342
 3585THY    HA389616   0.046   6.089   9.386  0.9888  2.7912  0.6537
 3585THY    CA489617  -0.117   6.120   9.243 -1.2885 -0.1433 -0.2564
 3585THY    HA489618  -0.194   6.119   9.320 -0.2759  0.0893  0.7960
 3585THY    CA589619  -0.153   6.148   9.114 -0.1811 -0.8141  0.4066
 3585THY    CM189620  -0.298   6.172   9.091  0.8560  0.2230 -0.0399
 3585THY    HM189621  -0.343   6.244   9.161 -3.1214 -2.9071  0.9839
 3585THY    HM289622  -0.322   6.206   8.990 -0.6702  0.9526  0.5333
 3585THY    HM389623  -0.349   6.077   9.108  0.1695  0.2093 -1.9449
 3585THY    CA689624  -0.058   6.129   9.015  0.6952 -0.6457 -0.7487
 3585THY    HA689625  -0.079   6.134   8.908  0.9314 -2.2875 -0.8966
 3586THY      O89626   6.808   6.226   4.914  0.1668  0.3327 -0.4786
 3586THY     HO89627   6.722   6.267   4.931  0.6317  1.6898 -1.2239
 3586THY    CA189628   6.811   6.085   4.925  0.5141 -1.0163 -0.2252
 3586THY    CA289629   6.933   6.011   4.926  0.2786 -0.1521 -0.4633
 3586THY    CP189630   7.073   6.079   4.925 -0.3339 -0.0739 -0.6055
 3586THY    HP189631   7.037   6.183   4.920 -0.0979 -0.0202 -1.3150
 3586THY    CP289632   7.135   6.033   5.059  0.5598  0.1198 -0.1750
 3586THY    HP289633   7.158   5.926   5.058  0.0848  0.0190 -1.3666
 3586THY    HP389634   7.221   6.100   5.072 -0.0019  1.1530 -1.4865
 3586THY    HP489635   7.068   6.058   5.142  1.4669  0.6983  0.4105
 3586THY    CP389636   7.153   6.026   4.807  0.1419  0.3143  0.5862
 3586THY    HP589637   7.243   6.088   4.791 -1.1227  2.1475  0.2210
 3586THY    HP689638   7.184   5.922   4.822 -2.9461 -1.0835 -1.7046
 3586THY    HP789639   7.099   6.014   4.712 -0.6283 -1.6540  1.2352
 3586THY    CA389640   6.924   5.867   4.933 -0.0792 -0.2174 -0.2475
 3586THY    HA389641   7.010   5.802   4.928 -0.4336 -0.7912  0.7401
 3586THY    CA489642   6.792   5.807   4.942 -0.1126  0.7364  0.6699
 3586THY    HA489643   6.779   5.700   4.950 -0.7503  0.5845 -1.5762
 3586THY    CA589644   6.675   5.886   4.957  0.3609  0.3573  0.2489
 3586THY    CM189645   6.541   5.823   4.968  0.0324 -0.6932  0.1229
 3586THY    HM189646   6.542   5.740   5.040  0.6585  0.1499  1.1128
 3586THY    HM289647   6.462   5.898   4.985  1.1659  1.3979 -2.9890
 3586THY    HM389648   6.533   5.783   4.866  0.3395 -0.7420  0.1184
 3586THY    CA689649   6.690   6.022   4.945  0.2458 -0.3742  0.0758
 3586THY    HA689650   6.599   6.082   4.939 -1.0974 -2.3391 -0.2355
 3587THY      O89651   3.378   9.235   7.413 -0.8425  0.3209  0.6966
 3587THY     HO89652   3.285   9.252   7.390 -0.3459  3.2617  0.5164
 3587THY    CA189653   3.438   9.328   7.343 -0.5788  0.3473  0.5122
 3587THY    CA289654   3.572   9.341   7.353 -0.0224 -0.4523  0.1271
 3587THY    CP189655   3.654   9.241   7.429 -0.4122 -0.5351 -0.2208
 3587THY    HP189656   3.608   9.221   7.526  0.1951  1.0597  0.4131
 3587THY    CP289657   3.670   9.114   7.349 -0.0855  0.4657 -0.1329
 3587THY    HP289658   3.704   9.031   7.413 -0.8510 -1.3511 -1.9910
 3587THY    HP389659   3.576   9.085   7.303 -0.5525 -0.3640  1.2920
 3587THY    HP489660   3.744   9.139   7.272  3.5266 -1.6777  2.3074
 3587THY    CP389661   3.792   9.282   7.471 -0.1534 -0.2496 -0.0052
 3587THY    HP589662   3.822   9.246   7.570 -0.1782 -0.3977 -0.0520
 3587THY    HP689663   3.872   9.246   7.406 -0.6525 -2.7452  0.6811
 3587THY    HP789664   3.802   9.391   7.477  1.6083 -0.2243 -2.1406
 3587THY    CA389665   3.631   9.450   7.278 -0.5517  0.4428  0.1915
 3587THY    HA389666   3.739   9.450   7.282 -0.5193 -2.0306  1.5396
 3587THY    CA489667   3.553   9.545   7.216 -0.2863  0.5250  0.3079
 3587THY    HA489668   3.597   9.629   7.163 -1.2466  0.4409 -0.6474
 3587THY    CA589669   3.415   9.524   7.213  0.5376 -0.3330 -0.3195
 3587THY    CM189670   3.325   9.618   7.154 -0.0554 -0.4485  0.1793
 3587THY    HM189671   3.225   9.633   7.198  0.2903  3.2516  0.0426
 3587THY    HM289672   3.364   9.719   7.136  0.4103 -0.9327 -1.7517
 3587THY    HM389673   3.321   9.580   7.052 -0.4246 -0.2856  0.1306
 3587THY    CA689674   3.362   9.413   7.267  0.0540  0.1938 -0.7078
 3587THY    HA689675   3.254   9.408   7.263  0.0122 -0.6769  0.7835
 3588THY      O89676   5.836   6.131   6.391 -0.1723  0.7939  0.0229
 3588THY     HO89677   5.787   6.178   6.322  0.7978  1.5222 -0.1971
 3588THY    CA189678   5.815   5.993   6.385 -0.3038 -0.1649 -0.3281
 3588THY    CA289679   5.874   5.906   6.477 -0.0843 -0.3753 -0.0148
 3588THY    CP189680   5.953   5.967   6.594  0.5124 -0.0610  0.5378
 3588THY    HP189681   5.922   6.069   6.623  1.9627  0.3219  0.7936
 3588THY    CP289682   5.938   5.892   6.732 -0.0354 -0.1768  0.3040
 3588THY    HP289683   5.831   5.876   6.750 -0.3471  0.4875 -0.8611
 3588THY    HP389684   5.987   5.796   6.712  0.6184  0.4810 -1.4720
 3588THY    HP489685   5.978   5.946   6.818  1.8494 -0.4956 -0.3351
 3588THY    CP389686   6.101   5.986   6.554  0.5300 -0.1308 -0.6509
 3588THY    HP589687   6.118   6.044   6.462 -0.6168 -1.6022 -1.8335
 3588THY    HP689688   6.150   6.033   6.640  2.2027 -1.2041 -0.9820
 3588THY    HP789689   6.152   5.893   6.529  1.0260 -0.2326  0.6570
 3588THY    CA389690   5.841   5.767   6.465 -0.1113 -0.7398 -0.1839
 3588THY    HA389691   5.874   5.696   6.540 -0.6444 -1.0497 -0.2378
 3588THY    CA489692   5.767   5.716   6.365  0.0275 -0.5186  0.1055
 3588THY    HA489693   5.754   5.609   6.355  0.4956 -0.6133  0.5000
 3588THY    CA589694   5.703   5.808   6.281 -0.1225 -0.8648  0.3890
 3588THY    CM189695   5.599   5.759   6.181 -0.0056  0.1498  0.7124
 3588THY    HM189696   5.540   5.843   6.143 -1.4199 -1.6486 -1.3959
 3588THY    HM289697   5.650   5.716   6.094 -0.1043 -0.1100  0.7786
 3588THY    HM389698   5.520   5.691   6.216 -1.2105  0.5785 -1.0074
 3588THY    CA689699   5.713   5.947   6.303  0.0414 -0.2255  0.2090
 3588THY    HA689700   5.645   6.017   6.257 -0.1151  1.1394  2.3651
 3589THY      O89701   3.554   5.705   7.711 -0.5333 -0.2677  0.7749
 3589THY     HO89702   3.532   5.674   7.800 -0.6200  0.7986  1.1389
 3589THY    CA189703   3.620   5.603   7.650 -0.1736 -0.2344 -0.2031
 3589THY    CA289704   3.651   5.605   7.513 -0.1525  0.2999 -0.4461
 3589THY    CP189705   3.601   5.717   7.420 -0.4088  0.2253 -0.0929
 3589THY    HP189706   3.543   5.784   7.485 -1.5402  0.9171 -1.7395
 3589THY    CP289707   3.709   5.786   7.351 -1.2957  0.5535 -0.6325
 3589THY    HP289708   3.787   5.808   7.425  0.5038 -0.9666 -1.9695
 3589THY    HP389709   3.751   5.710   7.283  0.8575 -0.4294  1.6617
 3589THY    HP489710   3.675   5.872   7.291 -1.3791  1.0953  0.1780
 3589THY    CP389711   3.499   5.664   7.318 -0.3513  0.3970 -0.4331
 3589THY    HP589712   3.468   5.743   7.249 -0.3299  0.3139 -0.5382
 3589THY    HP689713   3.543   5.583   7.259 -0.3351  1.1020 -1.4176
 3589THY    HP789714   3.416   5.622   7.376  1.3831 -3.2089 -0.2909
 3589THY    CA389715   3.720   5.492   7.459 -0.6294 -0.2952  0.2028
 3589THY    HA389716   3.753   5.489   7.355  1.8251  1.5420  0.8274
 3589THY    CA489717   3.762   5.389   7.547 -0.6290  0.1335 -0.4117
 3589THY    HA489718   3.826   5.308   7.512  0.7913 -0.0990  2.4451
 3589THY    CA589719   3.736   5.392   7.683  0.1302  0.6999 -0.0655
 3589THY    CM189720   3.781   5.287   7.774 -0.7731  0.3247  0.1815
 3589THY    HM189721   3.700   5.262   7.843 -1.6551  2.7589  0.1460
 3589THY    HM289722   3.838   5.204   7.731 -0.0234  0.9151  0.0090
 3589THY    HM389723   3.860   5.333   7.835  0.1055 -0.0804 -0.6266
 3589THY    CA689724   3.662   5.503   7.730 -0.2148 -0.4681  0.6848
 3589THY    HA689725   3.628   5.509   7.833 -2.5189  1.3797 -0.0955
 3590THY      O89726   3.591   8.694   1.456  0.0938 -0.4925 -0.3158
 3590THY     HO89727   3.537   8.709   1.536  0.9637 -1.8751  0.5870
 3590THY    CA189728   3.631   8.815   1.412 -0.2091 -0.5584 -0.7129
 3590THY    CA289729   3.724   8.837   1.306 -0.3128 -0.5660 -1.2344
 3590THY    CP189730   3.800   8.721   1.242  0.2760  0.2424 -0.0908
 3590THY    HP189731   3.818   8.653   1.326 -1.5329  0.1805  0.2799
 3590THY    CP289732   3.710   8.637   1.142  0.8191 -0.2744 -0.1431
 3590THY    HP289733   3.757   8.543   1.113  1.9001 -0.3614  1.7126
 3590THY    HP389734   3.612   8.621   1.190  0.4316  1.2577 -0.3653
 3590THY    HP489735   3.694   8.707   1.059  2.3333 -2.4086 -2.3597
 3590THY    CP389736   3.935   8.756   1.183  1.1353 -0.6306 -0.0760
 3590THY    HP589737   3.985   8.660   1.170  0.2679 -1.2423  0.8906
 3590THY    HP689738   3.932   8.811   1.088 -1.8328 -1.1613 -0.4035
 3590THY    HP789739   3.992   8.823   1.248 -0.3673  0.9741 -0.3157
 3590THY    CA389740   3.743   8.969   1.265 -0.1241  0.3350  0.2992
 3590THY    HA389741   3.804   8.993   1.178 -3.2879  0.6232 -2.0367
 3590THY    CA489742   3.671   9.076   1.317 -0.1923  0.4561  0.1041
 3590THY    HA489743   3.680   9.176   1.276 -2.7600  0.7275  0.0354
 3590THY    CA589744   3.581   9.055   1.419  0.0609 -0.1483  0.5327
 3590THY    CM189745   3.510   9.172   1.493 -0.1060 -0.1019  0.7131
 3590THY    HM189746   3.425   9.135   1.553 -0.7610 -1.2360 -0.8361
 3590THY    HM289747   3.563   9.231   1.568 -0.4603  0.5546  0.4531
 3590THY    HM389748   3.471   9.238   1.415  0.6379 -1.0005 -0.4534
 3590THY    CA689749   3.563   8.923   1.475 -0.6544 -0.6044  0.5739
 3590THY    HA689750   3.503   8.909   1.564  0.8293 -2.2901  1.3661
 3591THY      O89751   4.654   2.462   8.348  0.1856 -0.6290 -0.2274
 3591THY     HO89752   4.679   2.547   8.309 -0.1533  1.4574  3.5673
 3591THY    CA189753   4.721   2.458   8.464  0.0456 -0.1638 -0.2947
 3591THY    CA289754   4.686   2.372   8.570  0.1154  0.4936  0.3511
 3591THY    CP189755   4.562   2.288   8.545  0.0041  0.1778 -0.5278
 3591THY    HP189756   4.480   2.350   8.506  0.0958  0.7032  0.1028
 3591THY    CP289757   4.582   2.178   8.439 -0.0273  0.3613  0.5085
 3591THY    HP289758   4.654   2.104   8.474  0.2283 -0.0586 -0.8568
 3591THY    HP389759   4.492   2.118   8.422  0.3477 -0.8849  2.5792
 3591THY    HP489760   4.616   2.219   8.343 -0.8532 -1.1678 -0.4665
 3591THY    CP389761   4.495   2.241   8.678  0.3319  0.0500  0.0824
 3591THY    HP589762   4.551   2.177   8.747 -1.2365 -0.3312  1.0589
 3591THY    HP689763   4.457   2.318   8.746  0.6443  1.6874 -1.5217
 3591THY    HP789764   4.406   2.188   8.643  0.7834 -0.5955 -0.1181
 3591THY    CA389765   4.772   2.357   8.682  0.4616  0.1356 -0.6714
 3591THY    HA389766   4.762   2.279   8.756  1.2147  0.7246  0.0782
 3591THY    CA489767   4.892   2.441   8.685  0.6508 -0.3970 -0.5245
 3591THY    HA489768   4.956   2.440   8.773 -0.4166  0.6615  0.2807
 3591THY    CA589769   4.926   2.522   8.579 -0.7245 -0.3046  0.5747
 3591THY    CM189770   5.064   2.585   8.580  1.1931  0.2902 -0.4690
 3591THY    HM189771   5.083   2.658   8.500 -0.7264  1.6335  0.2277
 3591THY    HM289772   5.088   2.633   8.675 -0.4620 -1.6853  1.0270
 3591THY    HM389773   5.140   2.506   8.576  0.8313 -0.0250 -1.5748
 3591THY    CA689774   4.850   2.518   8.462 -0.8916  0.2143  0.0262
 3591THY    HA689775   4.864   2.581   8.375 -3.0628 -0.8815 -1.2085
 3592THY      O89776   0.650   6.785   3.071  0.3745  0.1318 -0.0369
 3592THY     HO89777   0.708   6.860   3.094  0.8846 -0.6945  1.5328
 3592THY    CA189778   0.679   6.762   2.943  0.6068  0.8106  0.1945
 3592THY    CA289779   0.695   6.642   2.876 -0.0141  1.3532  0.0125
 3592THY    CP189780   0.670   6.512   2.949 -0.6549  0.3282 -0.8338
 3592THY    HP189781   0.579   6.529   3.007 -1.0446  1.7284 -1.7962
 3592THY    CP289782   0.631   6.390   2.861  0.5222 -0.6017  0.4144
 3592THY    HP289783   0.537   6.409   2.806  1.0091  1.1711  0.1339
 3592THY    HP389784   0.708   6.372   2.786 -0.3387  1.3090 -1.0145
 3592THY    HP489785   0.615   6.302   2.925  1.6268  0.1992  1.8354
 3592THY    CP389786   0.782   6.479   3.048  0.0207 -0.0728 -0.1790
 3592THY    HP589787   0.764   6.394   3.114 -2.4583  0.7533  0.3203
 3592THY    HP689788   0.878   6.464   2.996  1.4033 -0.9040  2.4333
 3592THY    HP789789   0.794   6.566   3.113  0.8995  1.2938 -2.0603
 3592THY    CA389790   0.735   6.648   2.743 -0.5393 -0.2133  0.2560
 3592THY    HA389791   0.759   6.560   2.683  0.3559  0.4605 -0.4096
 3592THY    CA489792   0.765   6.774   2.687 -0.4307 -0.0462 -0.3012
 3592THY    HA489793   0.799   6.778   2.583 -0.0781  1.1784 -0.1569
 3592THY    CA589794   0.736   6.892   2.751 -0.1697 -0.2103 -0.3398
 3592THY    CM189795   0.739   7.016   2.667 -0.3015 -0.4748 -0.0055
 3592THY    HM189796   0.661   7.086   2.700 -0.0025 -1.0930  2.1430
 3592THY    HM289797   0.840   7.060   2.660 -0.3077 -0.2536  1.1300
 3592THY    HM389798   0.709   6.999   2.563 -0.9339  0.3447  0.0287
 3592THY    CA689799   0.684   6.882   2.880 -0.5412  0.2588  0.1691
 3592THY    HA689800   0.653   6.973   2.930  2.3173  1.3164  0.2260
 3593THY      O89801   4.479   3.511   5.679  0.5276 -0.2549  0.7294
 3593THY     HO89802   4.566   3.512   5.635  1.3414 -0.6017  2.2573
 3593THY    CA189803   4.392   3.506   5.573  0.2795  0.6328  0.1518
 3593THY    CA289804   4.249   3.509   5.599 -0.1969 -0.2153  0.1851
 3593THY    CP189805   4.195   3.516   5.740 -0.3256 -0.1918 -0.6296
 3593THY    HP189806   4.264   3.560   5.813 -0.8055 -0.2201 -0.1518
 3593THY    CP289807   4.076   3.594   5.764  0.3158  0.5698 -0.2505
 3593THY    HP289808   4.106   3.698   5.785  0.7154  0.5917 -0.9031
 3593THY    HP389809   3.998   3.605   5.687 -1.9826 -0.0425  1.8499
 3593THY    HP489810   4.023   3.563   5.855 -1.7295  1.4701 -1.0835
 3593THY    CP389811   4.168   3.371   5.782  0.3438  0.2835  0.3464
 3593THY    HP589812   4.096   3.317   5.719 -1.2839 -0.0671  2.3959
 3593THY    HP689813   4.258   3.310   5.780 -0.6833 -1.3183 -2.2814
 3593THY    HP789814   4.142   3.363   5.888 -0.4408 -1.8054  0.0472
 3593THY    CA389815   4.161   3.506   5.491  0.6003  0.1851 -0.0006
 3593THY    HA389816   4.054   3.515   5.506  0.6762  0.0113  0.6670
 3593THY    CA489817   4.219   3.493   5.361 -0.5471 -1.0974 -0.0779
 3593THY    HA489818   4.159   3.500   5.271 -0.7736  1.4327  0.1910
 3593THY    CA589819   4.355   3.494   5.336  1.0439  0.4834  0.2225
 3593THY    CM189820   4.402   3.479   5.201 -0.1646 -0.4720  0.4799
 3593THY    HM189821   4.511   3.487   5.197 -0.2605  1.0793  0.2191
 3593THY    HM289822   4.368   3.386   5.154 -1.9254 -0.0914  0.9104
 3593THY    HM389823   4.366   3.553   5.128  0.1354 -2.0651 -1.3615
 3593THY    CA689824   4.447   3.501   5.442 -0.6235 -0.1126  0.4543
 3593THY    HA689825   4.555   3.507   5.429 -0.4625  0.8268  1.9582
 3594THY      O89826   6.126   2.132   4.193 -0.1753 -0.4155 -0.4347
 3594THY     HO89827   6.055   2.067   4.203  1.0881 -1.8173 -0.3034
 3594THY    CA189828   6.205   2.128   4.303 -0.5508  0.2232 -0.3310
 3594THY    CA289829   6.320   2.206   4.309  1.0890 -0.5717 -0.4375
 3594THY    CP189830   6.345   2.305   4.194 -0.3052  0.4928  0.3205
 3594THY    HP189831   6.289   2.272   4.106  0.2346  0.8726 -0.1794
 3594THY    CP289832   6.304   2.445   4.245 -0.0100 -0.3834 -0.3690
 3594THY    HP289833   6.384   2.480   4.309 -0.6400 -0.3757  0.4254
 3594THY    HP389834   6.281   2.514   4.163 -0.2824  1.4353  1.1817
 3594THY    HP489835   6.214   2.424   4.305 -2.2447 -1.6139 -3.7868
 3594THY    CP389836   6.493   2.327   4.160 -0.0394 -0.5190  0.0030
 3594THY    HP589837   6.551   2.358   4.248 -2.3477  1.5098  0.8900
 3594THY    HP689838   6.528   2.227   4.131  3.0506  0.0584  1.2216
 3594THY    HP789839   6.499   2.402   4.081 -1.4711  0.3070  0.6511
 3594THY    CA389840   6.396   2.194   4.424 -0.0741  0.3574 -0.1345
 3594THY    HA389841   6.488   2.250   4.438  0.9445 -1.5042  0.9945
 3594THY    CA489842   6.367   2.102   4.523 -0.6465  0.8995 -0.2270
 3594THY    HA489843   6.441   2.085   4.600  0.1325  1.0154 -0.9379
 3594THY    CA589844   6.255   2.020   4.509 -0.1526 -0.0591  0.3680
 3594THY    CM189845   6.234   1.914   4.608 -0.1394 -0.3519 -0.2010
 3594THY    HM189846   6.300   1.922   4.695  0.2133 -2.0776 -0.2775
 3594THY    HM289847   6.130   1.907   4.642 -0.7762 -1.6407 -2.2802
 3594THY    HM389848   6.278   1.823   4.565  1.3466 -0.5634  1.5944
 3594THY    CA689849   6.170   2.036   4.396 -0.2023 -0.0203 -0.0385
 3594THY    HA689850   6.083   1.973   4.377 -0.9943  1.7666 -3.0310
 3595THY      O89851   1.031   4.664   6.207 -1.1033  0.0069  0.2093
 3595THY     HO89852   0.935   4.658   6.190 -0.9465  0.5623 -0.9735
 3595THY    CA189853   1.066   4.560   6.289 -0.3586 -0.0469 -0.7898
 3595THY    CA289854   1.201   4.529   6.322  0.7380 -0.2364  0.6689
 3595THY    CP189855   1.310   4.624   6.257 -0.0032 -0.2595 -0.6372
 3595THY    HP189856   1.279   4.657   6.158  0.2188 -0.1655 -0.6750
 3595THY    CP289857   1.342   4.738   6.351 -0.2857 -1.4410 -0.5469
 3595THY    HP289858   1.440   4.783   6.339 -0.0018 -1.9030 -0.0436
 3595THY    HP389859   1.281   4.827   6.337  0.9992 -0.3472  0.5098
 3595THY    HP489860   1.346   4.708   6.457  1.2723 -1.3944 -0.5698
 3595THY    CP389861   1.438   4.546   6.243 -0.0658  0.5622  0.3903
 3595THY    HP589862   1.477   4.520   6.343  1.2724 -1.3399 -0.5637
 3595THY    HP689863   1.421   4.451   6.190 -1.9085  0.6390  0.7722
 3595THY    HP789864   1.520   4.592   6.188  1.3338 -1.5247  0.6022
 3595THY    CA389865   1.234   4.424   6.405 -0.0914 -0.0839  0.6553
 3595THY    HA389866   1.336   4.392   6.420 -0.8684 -1.7702  2.7824
 3595THY    CA489867   1.128   4.339   6.454  0.2152 -0.1564  0.1059
 3595THY    HA489868   1.149   4.251   6.514  3.2603 -0.0562 -0.6490
 3595THY    CA589869   0.989   4.376   6.434  0.0537  0.1058  1.3659
 3595THY    CM189870   0.874   4.294   6.484  0.6435  0.0476  0.0406
 3595THY    HM189871   0.790   4.285   6.414 -0.2715  0.0473  1.0988
 3595THY    HM289872   0.909   4.193   6.507  1.2036 -0.0481 -1.1787
 3595THY    HM389873   0.835   4.343   6.574  5.3758 -0.8955  2.9269
 3595THY    CA689874   0.962   4.487   6.356 -0.4608 -0.3499  0.2172
 3595THY    HA689875   0.857   4.509   6.339 -1.3688 -2.2962  2.7207
 3596THY      O89876   1.352   0.596   9.123  0.2433 -0.0669  0.3030
 3596THY     HO89877   1.289   0.622   9.192  1.2723  1.4484  0.7285
 3596THY    CA189878   1.431   0.703   9.113 -0.4448 -0.3125 -0.4246
 3596THY    CA289879   1.560   0.694   9.057  0.4407  0.1877 -0.5083
 3596THY    CP189880   1.616   0.560   9.003 -0.0717  0.1987 -0.3088
 3596THY    HP189881   1.580   0.475   9.062 -2.7402  0.4362 -1.4381
 3596THY    CP289882   1.547   0.526   8.866 -0.3586  0.8925  0.3326
 3596THY    HP289883   1.438   0.535   8.878 -0.6751 -2.2108  0.5815
 3596THY    HP389884   1.585   0.588   8.785  1.6921  1.5948  1.7544
 3596THY    HP489885   1.569   0.423   8.835  3.1543  1.3090  1.0316
 3596THY    CP389886   1.772   0.554   8.989 -0.5673 -0.2018  0.3132
 3596THY    HP589887   1.804   0.629   8.916  0.0667 -1.4046 -0.6915
 3596THY    HP689888   1.819   0.579   9.085  3.1399 -2.1668 -0.7645
 3596THY    HP789889   1.801   0.453   8.958 -0.4124  0.0581 -0.3950
 3596THY    CA389890   1.637   0.813   9.046 -0.0138 -0.0634 -0.3496
 3596THY    HA389891   1.738   0.811   9.008 -0.4533  3.2701 -1.9850
 3596THY    CA489892   1.574   0.934   9.065 -0.3632 -0.4422 -0.6953
 3596THY    HA489893   1.628   1.026   9.044 -0.8448  0.4261  1.5196
 3596THY    CA589894   1.449   0.945   9.114 -0.0537 -0.1747  0.2276
 3596THY    CM189895   1.390   1.079   9.146  0.0873  0.0788 -0.4023
 3596THY    HM189896   1.331   1.067   9.238 -0.7402  1.3506 -0.7449
 3596THY    HM289897   1.478   1.141   9.168 -0.5293  1.8735 -2.6374
 3596THY    HM389898   1.330   1.119   9.065 -1.6085  1.2376  1.3400
 3596THY    CA689899   1.375   0.827   9.139 -0.0261 -0.4346 -0.6650
 3596THY    HA689900   1.271   0.833   9.172  0.3215  0.5666  0.3175
 3597THY      O89901   0.759   2.462   4.187 -0.7865 -0.2961 -0.2367
 3597THY     HO89902   0.737   2.398   4.118 -0.3574 -1.5319  0.7509
 3597THY    CA189903   0.869   2.403   4.245  0.0717 -0.2442 -0.6658
 3597THY    CA289904   0.915   2.447   4.374 -0.4058  0.1184  0.3862
 3597THY    CP189905   0.838   2.555   4.453 -0.0201 -0.4572 -0.5058
 3597THY    HP189906   0.732   2.534   4.433 -0.5159  1.9939 -0.6546
 3597THY    CP289907   0.861   2.558   4.607 -0.4194  0.2876 -0.3709
 3597THY    HP289908   0.843   2.463   4.658 -0.9366  0.1432 -0.8084
 3597THY    HP389909   0.966   2.573   4.634 -0.2160  0.6480 -1.3201
 3597THY    HP489910   0.803   2.636   4.659 -4.0004 -1.9883 -0.5325
 3597THY    CP389911   0.860   2.694   4.394 -0.4484 -0.4846  0.8868
 3597THY    HP589912   0.810   2.768   4.457 -1.7141 -1.1234  0.6685
 3597THY    HP689913   0.969   2.703   4.392 -0.0416 -3.9462 -1.7432
 3597THY    HP789914   0.820   2.707   4.292  3.0810 -0.8737 -0.6785
 3597THY    CA389915   1.029   2.385   4.423 -0.3033 -0.2237 -0.7402
 3597THY    HA389916   1.069   2.405   4.522  1.6391  2.8702 -1.9927
 3597THY    CA489917   1.092   2.281   4.354 -0.1922  0.4755 -0.3159
 3597THY    HA489918   1.182   2.235   4.396 -0.9044 -0.3030  0.4024
 3597THY    CA589919   1.041   2.236   4.225 -1.0444  0.3067  0.1426
 3597THY    CM189920   1.112   2.127   4.158  0.3630  0.1234  1.3569
 3597THY    HM189921   1.146   2.056   4.234 -1.7639 -0.9541  1.3963
 3597THY    HM289922   1.043   2.068   4.096 -0.4760  3.8701 -1.6354
 3597THY    HM389923   1.200   2.155   4.101 -1.2714  2.5153 -0.1808
 3597THY    CA689924   0.931   2.300   4.172  1.0205 -0.7501 -0.2840
 3597THY    HA689925   0.905   2.268   4.071 -1.2864  0.7437 -0.2195
 3598THY      O89926   4.077   1.981   4.530  0.1857  0.3679 -0.3810
 3598THY     HO89927   4.050   1.997   4.622 -0.1123  2.8790 -0.8494
 3598THY    CA189928   4.136   2.101   4.514  1.1120  0.2371  0.5124
 3598THY    CA289929   4.237   2.123   4.423 -0.1381 -0.1232 -1.1336
 3598THY    CP189930   4.301   2.002   4.352 -0.5580 -0.3448 -0.5373
 3598THY    HP189931   4.294   1.908   4.407  1.6376 -0.1050  0.2640
 3598THY    CP289932   4.237   1.990   4.214 -0.2655 -0.1733 -0.7132
 3598THY    HP289933   4.245   1.887   4.178  1.6142 -1.2918  2.4533
 3598THY    HP389934   4.129   2.006   4.222 -0.4254 -0.5715 -1.8088
 3598THY    HP489935   4.278   2.056   4.136  2.1826 -0.1422  0.4876
 3598THY    CP389936   4.458   2.009   4.327  0.7805  0.0795 -0.3891
 3598THY    HP589937   4.509   2.049   4.415  1.8351 -0.9963 -0.4871
 3598THY    HP689938   4.498   1.908   4.309  2.4171  1.0489 -2.6918
 3598THY    HP789939   4.475   2.080   4.245 -1.9051 -0.4581 -1.5221
 3598THY    CA389940   4.287   2.249   4.408 -0.2600  0.0653 -0.1765
 3598THY    HA389941   4.364   2.274   4.335  0.2580  0.1663  0.3906
 3598THY    CA489942   4.242   2.354   4.488  0.2786 -0.3067  0.1022
 3598THY    HA489943   4.284   2.453   4.481 -1.0098  0.2531  0.0142
 3598THY    CA589944   4.146   2.334   4.590 -0.2717  0.3190  0.6934
 3598THY    CM189945   4.093   2.431   4.682  0.4963 -0.7234 -0.4123
 3598THY    HM189946   3.986   2.429   4.702  0.3706  0.4745 -0.8689
 3598THY    HM289947   4.147   2.430   4.777 -1.0617  0.2066  0.5285
 3598THY    HM389948   4.107   2.530   4.637 -0.2874 -0.5981 -0.3903
 3598THY    CA689949   4.090   2.202   4.597  1.2185  0.0833 -0.1064
 3598THY    HA689950   4.017   2.172   4.672  1.3640 -2.1508 -0.8016
 3599THY      O89951   7.154   3.828   2.968  0.2848 -0.6268  0.4523
 3599THY     HO89952   7.065   3.795   2.946 -0.2626  1.6725 -1.1421
 3599THY    CA189953   7.241   3.759   2.884  0.6508 -0.0922  0.2477
 3599THY    CA289954   7.359   3.698   2.937  0.2326  0.1341 -0.2892
 3599THY    CP189955   7.404   3.714   3.085  0.3804  0.4008  0.4377
 3599THY    HP189956   7.319   3.745   3.147 -0.1177  0.6013 -0.3378
 3599THY    CP289957   7.470   3.593   3.142  1.0188 -0.2180  0.2858
 3599THY    HP289958   7.412   3.500   3.140 -0.4164  0.6131 -2.1071
 3599THY    HP389959   7.564   3.565   3.094  1.5100  0.1921  1.0025
 3599THY    HP489960   7.499   3.621   3.244  2.1312 -0.0780 -0.0631
 3599THY    CP389961   7.498   3.836   3.098 -0.6630  0.4663  0.0213
 3599THY    HP589962   7.594   3.803   3.056 -1.3107 -1.1442 -0.2847
 3599THY    HP689963   7.458   3.923   3.046 -4.2450 -0.8196  0.3512
 3599THY    HP789964   7.531   3.854   3.201  0.2776  1.5827 -0.4559
 3599THY    CA389965   7.436   3.623   2.846  0.0239  0.3148  0.4233
 3599THY    HA389966   7.529   3.585   2.886 -0.4088 -0.8547  0.3574
 3599THY    CA489967   7.400   3.600   2.712 -0.0956  0.0783 -0.3736
 3599THY    HA489968   7.462   3.539   2.647 -1.8560  0.1902 -2.2779
 3599THY    CA589969   7.279   3.661   2.665 -0.3583  0.3169  0.3669
 3599THY    CM189970   7.251   3.634   2.519 -0.3822 -0.0136  0.0636
 3599THY    HM189971   7.216   3.533   2.495 -1.4139 -0.3154  2.4994
 3599THY    HM289972   7.174   3.706   2.487  2.9237  2.6941 -2.6779
 3599THY    HM389973   7.335   3.663   2.455 -0.6714 -1.0170 -0.8013
 3599THY    CA689974   7.199   3.738   2.746  0.2074  0.1014  0.4832
 3599THY    HA689975   7.113   3.788   2.702  0.6715 -0.5867 -1.2961
 3600THY      O89976   8.116   2.690   0.353  0.1313  0.2309  0.9647
 3600THY     HO89977   8.034   2.646   0.380  1.4079 -0.8337  3.4909
 3600THY    CA189978   8.194   2.701   0.461  0.5107 -0.0684 -0.0330
 3600THY    CA289979   8.332   2.728   0.456  0.3838 -0.4178  0.1315
 3600THY    CP189980   8.405   2.744   0.325 -0.6617 -0.4626  0.4417
 3600THY    HP189981   8.348   2.718   0.235 -1.9488  1.9472  0.4931
 3600THY    CP289982   8.443   2.898   0.299 -0.3252 -0.3566  0.0291
 3600THY    HP289983   8.514   2.937   0.372  0.1706 -1.6284  0.2524
 3600THY    HP389984   8.483   2.912   0.198 -0.8960 -0.2073 -0.1856
 3600THY    HP489985   8.350   2.954   0.314 -0.6487 -0.3379 -1.8036
 3600THY    CP389986   8.529   2.654   0.312 -0.1299 -0.1603  0.0223
 3600THY    HP589987   8.506   2.549   0.336  0.0467 -0.2354 -0.1323
 3600THY    HP689988   8.573   2.662   0.212 -0.5004  2.5020  0.0139
 3600THY    HP789989   8.606   2.699   0.377  0.8780  0.2474 -1.4048
 3600THY    CA389990   8.406   2.733   0.575 -0.5003  0.4282  0.7445
 3600THY    HA389991   8.513   2.753   0.571 -0.7679  1.7738 -1.4828
 3600THY    CA489992   8.343   2.705   0.700 -0.1804 -0.9512  0.0496
 3600THY    HA489993   8.398   2.693   0.793 -2.6856 -1.9699  1.4797
 3600THY    CA589994   8.204   2.687   0.708  0.0886  0.5416 -0.1443
 3600THY    CM189995   8.135   2.651   0.828  0.2810  0.2521 -0.2052
 3600THY    HM189996   8.109   2.545   0.835  0.2106  0.1601 -1.5828
 3600THY    HM289997   8.178   2.689   0.921  1.1970 -1.3900  0.0871
 3600THY    HM389998   8.032   2.688   0.821 -0.1376 -1.0821 -1.9062
 3600THY    CA689999   8.132   2.677   0.590 -1.1878  0.8587  0.0405
 3600THY    HA690000   8.027   2.649   0.593 -1.5680  1.7856 -2.1850
 3601THY      O90001   5.402   6.192   4.718  0.0844  0.0771  0.6393
 3601THY     HO90002   5.440   6.281   4.721  1.9252 -0.6537  0.2231
 3601THY    CA190003   5.344   6.159   4.837 -0.2406 -0.4646  0.0030
 3601THY    CA290004   5.243   6.063   4.847 -0.0601 -0.9661  1.2504
 3601THY    CP190005   5.197   5.978   4.724 -0.8097 -0.1620 -1.0164
 3601THY    HP190006   5.246   6.004   4.630  1.0588  0.3622  0.0437
 3601THY    CP290007   5.238   5.830   4.749  0.2933  0.4355  0.8079
 3601THY    HP290008   5.167   5.787   4.821 -1.3049  0.7446 -0.5152
 3601THY    HP390009   5.225   5.771   4.658  0.9439 -1.3833  1.8457
 3601THY    HP490010   5.342   5.830   4.784  1.1739 -2.2517 -1.4145
 3601THY    CP390011   5.047   6.004   4.714  0.0826  0.1555  0.6515
 3601THY    HP590012   5.016   5.924   4.645  2.7301 -0.4262  0.0260
 3601THY    HP690013   4.980   5.986   4.799 -3.9957  0.0917 -2.2605
 3601THY    HP790014   5.021   6.100   4.669 -1.1081 -0.1669  0.6132
 3601THY    CA390015   5.191   6.038   4.976 -0.4603 -0.2576 -0.1027
 3601THY    HA390016   5.127   5.951   4.990  0.2470 -0.5405  1.6687
 3601THY    CA490017   5.244   6.102   5.089  0.4827  0.0975  0.3169
 3601THY    HA490018   5.205   6.083   5.189 -1.2010 -1.5479 -0.5756
 3601THY    CA590019   5.348   6.198   5.077  0.4770 -0.3064  0.8427
 3601THY    CM190020   5.399   6.270   5.201 -0.0893  0.4812 -0.3622
 3601THY    HM190021   5.311   6.301   5.258 -0.0108 -0.1144  0.0997
 3601THY    HM290022   5.452   6.197   5.263 -2.0592 -0.0827  0.7422
 3601THY    HM390023   5.464   6.354   5.175  0.8574 -0.0875  0.1227
 3601THY    CA690024   5.400   6.225   4.945 -0.5702 -0.2605  0.1066
 3601THY    HA690025   5.483   6.294   4.930 -1.2881  0.5802 -0.0751
 3602THY      O90026   6.255   2.199   3.318 -0.9353 -0.1018 -0.6288
 3602THY     HO90027   6.328   2.136   3.304  0.0539  1.2635 -2.0104
 3602THY    CA190028   6.306   2.297   3.394 -0.2667 -0.0956 -0.2263
 3602THY    CA290029   6.267   2.435   3.382 -1.2610 -0.0531 -0.4034
 3602THY    CP190030   6.162   2.482   3.285  1.2359  0.1191  0.1387
 3602THY    HP190031   6.105   2.395   3.252  0.9699  0.6982 -0.9572
 3602THY    CP290032   6.055   2.580   3.355 -0.2025 -0.2949  0.0843
 3602THY    HP290033   6.103   2.676   3.379 -2.0952  0.2503  1.8652
 3602THY    HP390034   5.969   2.603   3.291  0.1437 -0.3449 -0.4126
 3602THY    HP490035   6.012   2.531   3.442 -2.2757 -0.0482 -0.7538
 3602THY    CP390036   6.210   2.554   3.155 -0.0941  0.3994  0.1118
 3602THY    HP590037   6.271   2.490   3.090  0.2643  0.7642  0.0890
 3602THY    HP690038   6.119   2.586   3.103 -1.4438 -0.2936  1.8969
 3602THY    HP790039   6.261   2.647   3.182 -0.2691  0.5381 -0.0359
 3602THY    CA390040   6.335   2.523   3.463 -0.4852 -0.2918  0.7493
 3602THY    HA390041   6.311   2.628   3.466 -0.5807 -0.3202  1.0537
 3602THY    CA490042   6.437   2.489   3.546  0.4440 -0.5270  0.4286
 3602THY    HA490043   6.482   2.551   3.624 -2.2732  0.5379  1.2762
 3602THY    CA590044   6.469   2.354   3.564 -0.8099  0.4906 -0.3017
 3602THY    CM190045   6.566   2.318   3.669 -0.7423  0.6397  0.0037
 3602THY    HM190046   6.567   2.210   3.685 -0.5950  0.7259  0.6098
 3602THY    HM290047   6.667   2.336   3.632 -0.7728  1.6236  0.3643
 3602THY    HM390048   6.533   2.365   3.763 -2.5427 -2.2871  0.9688
 3602THY    CA690049   6.410   2.254   3.486  0.1306  0.0700  0.8114
 3602THY    HA690050   6.429   2.149   3.507 -2.3915 -0.6729 -0.2221
 3603THY      O90051   2.921   7.233   1.776  0.5612  0.0747 -0.1053
 3603THY     HO90052   2.835   7.199   1.747  0.8553  0.4816 -1.4969
 3603THY    CA190053   2.951   7.344   1.701  0.5450  0.2213  0.4156
 3603THY    CA290054   3.064   7.419   1.733 -0.1826  0.4176 -0.0009
 3603THY    CP190055   3.156   7.371   1.839  0.7270  0.0179 -0.5042
 3603THY    HP190056   3.142   7.265   1.866  2.7059 -0.0568  0.4259
 3603THY    CP290057   3.308   7.384   1.800  0.5355 -0.6931  0.3167
 3603THY    HP290058   3.332   7.310   1.723  0.5253  0.3456 -0.7264
 3603THY    HP390059   3.352   7.479   1.768  2.2313 -1.6353 -0.2832
 3603THY    HP490060   3.372   7.363   1.887  0.6307 -0.1311  0.3858
 3603THY    CP390061   3.126   7.470   1.958 -0.5714 -0.6133 -0.0974
 3603THY    HP590062   3.030   7.445   2.006  0.8440 -1.4852  2.4318
 3603THY    HP690063   3.190   7.437   2.040  0.3951  1.5539  0.0727
 3603THY    HP790064   3.133   7.579   1.945 -1.9276 -0.5588 -0.5439
 3603THY    CA390065   3.086   7.541   1.671  0.5844 -0.9349 -0.0712
 3603THY    HA390066   3.181   7.591   1.686  0.9227 -1.0069 -1.7681
 3603THY    CA490067   2.994   7.582   1.570 -0.2328  0.0012 -0.1215
 3603THY    HA490068   3.016   7.673   1.515 -0.7805 -0.8035 -1.7228
 3603THY    CA590069   2.889   7.497   1.524  1.1968 -0.4151 -0.0168
 3603THY    CM190070   2.806   7.529   1.397 -0.0415 -0.3175  0.9639
 3603THY    HM190071   2.750   7.623   1.409 -0.1387 -0.1929 -0.2689
 3603THY    HM290072   2.864   7.535   1.304 -4.0610 -1.9505 -1.9751
 3603THY    HM390073   2.724   7.456   1.387 -0.7157  0.1620  2.6473
 3603THY    CA690074   2.868   7.376   1.595  0.0092 -0.9056  0.1572
 3603THY    HA690075   2.785   7.312   1.566 -1.3921  0.4049  1.1164
 3604THY      O90076   6.460   5.046   2.577  0.3934  0.2891  0.5697
 3604THY     HO90077   6.384   5.082   2.527  0.0934 -2.3405 -1.0529
 3604THY    CA190078   6.428   4.924   2.640  0.2884 -0.1192  0.1865
 3604THY    CA290079   6.517   4.824   2.690 -0.6300 -0.3839 -0.7397
 3604THY    CP190080   6.665   4.861   2.688  1.1088 -0.3729 -0.1136
 3604THY    HP190081   6.678   4.964   2.653 -0.0173  1.1273  3.4336
 3604THY    CP290082   6.739   4.830   2.822  0.1666 -0.4123 -0.0420
 3604THY    HP290083   6.840   4.870   2.811 -0.1736  1.0999  1.8031
 3604THY    HP390084   6.703   4.876   2.915 -0.0086 -2.2250  0.8460
 3604THY    HP490085   6.768   4.727   2.846  0.2579 -0.5942 -0.9038
 3604THY    CP390086   6.742   4.778   2.584 -0.2164  0.2954  0.6736
 3604THY    HP590087   6.850   4.792   2.584 -0.0118 -0.3061 -2.7894
 3604THY    HP690088   6.720   4.674   2.611  0.9522  0.4606  2.3757
 3604THY    HP790089   6.706   4.802   2.483  0.4638  0.7988  0.5491
 3604THY    CA390090   6.471   4.708   2.751 -0.1433  0.1517 -0.6061
 3604THY    HA390091   6.534   4.626   2.786 -0.4071 -0.9821 -2.6557
 3604THY    CA490092   6.335   4.686   2.749  0.3032 -0.4526 -0.9891
 3604THY    HA490093   6.292   4.595   2.789 -2.6989  1.1042 -0.3264
 3604THY    CA590094   6.242   4.785   2.702  0.6233  0.2035  0.3281
 3604THY    CM190095   6.098   4.763   2.743  0.2570  0.5129  0.0814
 3604THY    HM190096   6.095   4.755   2.853  1.0517  2.5298  0.2913
 3604THY    HM290097   6.032   4.847   2.719 -3.3334 -2.5138 -1.6473
 3604THY    HM390098   6.049   4.684   2.686 -2.3829  1.4241  0.9224
 3604THY    CA690099   6.290   4.910   2.655 -0.0575 -0.0651  1.4444
 3604THY    HA690100   6.219   4.985   2.620 -0.2214 -0.8824 -0.0524
 3605THY      O90101   1.442   5.294   3.274  0.8016 -0.1237  0.3991
 3605THY     HO90102   1.395   5.378   3.286 -1.6212 -1.0534 -1.5858
 3605THY    CA190103   1.333   5.212   3.270  0.0975 -0.1232 -0.5961
 3605THY    CA290104   1.337   5.080   3.336  0.4979  0.3718  0.6541
 3605THY    CP190105   1.475   5.027   3.381 -0.1621 -0.5583  0.1740
 3605THY    HP190106   1.524   5.099   3.447  0.8308 -2.7755  2.0406
 3605THY    CP290107   1.480   4.905   3.473  0.3194 -0.1869 -0.8227
 3605THY    HP290108   1.588   4.887   3.488  0.1439 -1.6180 -1.0643
 3605THY    HP390109   1.433   4.930   3.568 -0.2061 -2.5332 -0.3940
 3605THY    HP490110   1.430   4.823   3.420 -1.2792  0.7063 -0.7376
 3605THY    CP390111   1.564   4.996   3.262  0.1753  0.1192 -0.5036
 3605THY    HP590112   1.643   4.927   3.294 -1.0911 -0.2409  2.1457
 3605THY    HP690113   1.509   4.941   3.185  2.3973  0.1287 -2.2205
 3605THY    HP790114   1.611   5.082   3.213  0.7984  0.7574  1.1582
 3605THY    CA390115   1.217   5.013   3.352  0.4704  0.1397 -0.7923
 3605THY    HA390116   1.213   4.921   3.410 -0.8255  0.7914  0.1705
 3605THY    CA490117   1.095   5.066   3.305 -0.8153  0.2293 -0.1661
 3605THY    HA490118   1.000   5.015   3.317 -0.3369 -0.8040 -0.6224
 3605THY    CA590119   1.093   5.190   3.243 -0.4258  0.0442  0.3841
 3605THY    CM190120   0.958   5.244   3.202 -0.2704  0.3053  0.2566
 3605THY    HM190121   0.870   5.182   3.223 -1.3935  1.2181 -1.4381
 3605THY    HM290122   0.953   5.348   3.239 -0.5498 -0.6259  3.1314
 3605THY    HM390123   0.956   5.249   3.093  1.8360 -2.1604  0.0238
 3605THY    CA690124   1.210   5.263   3.218  0.0487  0.9301  0.1433
 3605THY    HA690125   1.191   5.360   3.173 -1.7733 -0.1914 -1.6228
 3606THY      O90126   4.455   2.433   5.615 -0.1561 -0.0537  0.0295
 3606THY     HO90127   4.530   2.382   5.650  0.1865 -0.5338 -1.3601
 3606THY    CA190128   4.501   2.509   5.513  0.2486 -0.3277 -0.3165
 3606THY    CA290129   4.434   2.624   5.461  1.2400 -0.6593  0.1178
 3606THY    CP190130   4.295   2.669   5.521 -0.5120 -0.6664 -0.2663
 3606THY    HP190131   4.272   2.585   5.588 -1.7066 -2.3929 -2.7000
 3606THY    CP290132   4.293   2.792   5.600  0.0796 -0.5848 -0.6528
 3606THY    HP290133   4.206   2.788   5.666  0.9432  0.2243  0.5721
 3606THY    HP390134   4.387   2.800   5.655 -0.4038  1.1130 -0.0461
 3606THY    HP490135   4.301   2.875   5.529  1.0667  0.6681  0.8578
 3606THY    CP390136   4.184   2.669   5.411 -0.4768  0.0599 -0.5405
 3606THY    HP590137   4.086   2.662   5.459  0.4489 -0.0915  1.4536
 3606THY    HP690138   4.189   2.749   5.336 -0.0539  0.3633 -0.1996
 3606THY    HP790139   4.198   2.571   5.365 -1.2073  0.4859 -1.6984
 3606THY    CA390140   4.486   2.707   5.363 -0.7535  0.4664  0.4242
 3606THY    HA390141   4.439   2.795   5.320 -0.0234  1.2475  1.1610
 3606THY    CA490142   4.614   2.670   5.321  0.4790  1.1017 -0.4065
 3606THY    HA490143   4.662   2.721   5.238  0.0016 -0.2831 -1.5739
 3606THY    CA590144   4.692   2.565   5.377  0.8589  0.0499  0.2195
 3606THY    CM190145   4.830   2.535   5.327  0.1417  0.0798 -0.1683
 3606THY    HM190146   4.871   2.464   5.400 -1.5119  1.0618  1.8406
 3606THY    HM290147   4.835   2.506   5.222 -2.5850 -0.7652 -0.1634
 3606THY    HM390148   4.889   2.626   5.343  1.1514 -0.5110 -0.4370
 3606THY    CA690149   4.625   2.474   5.460 -0.0576 -0.1280  1.1818
 3606THY    HA690150   4.678   2.392   5.508  3.3317  1.9218  1.2653
 3607THY      O90151   1.527   7.804   1.096 -0.2552  0.5184 -0.1722
 3607THY     HO90152   1.603   7.752   1.129 -0.0793  0.7420 -0.2247
 3607THY    CA190153   1.417   7.749   1.147 -0.3543  0.6069 -0.2084
 3607THY    CA290154   1.312   7.833   1.183  0.0888 -0.4289 -0.2794
 3607THY    CP190155   1.326   7.985   1.170  0.0563 -0.0618  0.3762
 3607THY    HP190156   1.398   8.010   1.091 -0.8078 -0.5271 -0.5906
 3607THY    CP290157   1.185   8.043   1.131  0.4871 -0.1864  0.3308
 3607THY    HP290158   1.140   8.078   1.224 -0.1096 -1.1838  0.4376
 3607THY    HP390159   1.214   8.129   1.069 -2.2286  0.4649 -0.1868
 3607THY    HP490160   1.123   7.977   1.069 -0.9339  1.1765  0.2577
 3607THY    CP390161   1.379   8.049   1.298  0.0504 -0.8003 -0.2281
 3607THY    HP590162   1.295   8.075   1.364 -0.2299 -0.0391 -0.8627
 3607THY    HP690163   1.465   7.998   1.343  0.2635 -0.4951 -0.2797
 3607THY    HP790164   1.420   8.149   1.276 -0.7107 -0.3965  0.1324
 3607THY    CA390165   1.199   7.776   1.236 -0.1871 -0.3389 -0.0210
 3607THY    HA390166   1.109   7.833   1.258 -1.8129 -2.5431 -0.5774
 3607THY    CA490167   1.191   7.635   1.257 -0.0896  0.1635 -0.5614
 3607THY    HA490168   1.102   7.585   1.295  0.3777  1.5595  2.7076
 3607THY    CA590169   1.300   7.554   1.234  0.3234  0.0952  0.3237
 3607THY    CM190170   1.305   7.406   1.255  0.1327 -0.4894 -0.9366
 3607THY    HM190171   1.390   7.356   1.206 -0.5498 -2.1733 -0.4913
 3607THY    HM290172   1.300   7.386   1.362 -1.1026 -0.1489 -0.9100
 3607THY    HM390173   1.218   7.350   1.216  0.3884 -0.2966 -1.8214
 3607THY    CA690174   1.415   7.612   1.167  0.2180 -0.9533  0.2887
 3607THY    HA690175   1.499   7.550   1.136 -0.2347 -1.4761  0.0840
 3608THY      O90176   3.005   3.913   5.356 -0.2334  0.7568  0.6684
 3608THY     HO90177   3.010   4.007   5.382  1.0447  0.6611  0.8429
 3608THY    CA190178   2.920   3.836   5.434 -0.5215 -0.1826 -0.4310
 3608THY    CA290179   2.912   3.692   5.421 -0.0074 -0.5193 -0.4084
 3608THY    CP190180   3.015   3.622   5.323  0.1846 -0.3866 -0.3665
 3608THY    HP190181   3.105   3.684   5.319  0.1418 -0.1708  1.3385
 3608THY    CP290182   3.066   3.483   5.368  0.3454  0.1771  0.2144
 3608THY    HP290183   3.162   3.459   5.321  0.6421  1.6215  0.0456
 3608THY    HP390184   3.083   3.481   5.476 -0.2069 -0.6095  0.2959
 3608THY    HP490185   2.993   3.408   5.335  0.3289  0.4453 -0.3712
 3608THY    CP390186   2.964   3.615   5.176 -0.3383 -0.3175 -0.0769
 3608THY    HP590187   3.044   3.599   5.103  1.1686  2.0350  0.9037
 3608THY    HP690188   2.880   3.548   5.160  0.1483 -0.4545 -2.2680
 3608THY    HP790189   2.926   3.713   5.145  0.3240 -0.4106 -1.2634
 3608THY    CA390190   2.825   3.626   5.500  0.0577  0.2401 -0.4306
 3608THY    HA390191   2.819   3.517   5.500  3.2615 -0.0679  1.5141
 3608THY    CA490192   2.740   3.697   5.588  0.1892  0.2745 -0.4239
 3608THY    HA490193   2.669   3.651   5.656 -0.0831  2.8539  1.1624
 3608THY    CA590194   2.746   3.833   5.604  0.4242  0.3678  0.3995
 3608THY    CM190195   2.661   3.902   5.709  0.2984 -0.1337  0.4797
 3608THY    HM190196   2.631   4.003   5.679 -0.1849  0.2815  2.2543
 3608THY    HM290197   2.570   3.843   5.724 -1.0708  1.5790 -0.7618
 3608THY    HM390198   2.718   3.916   5.802 -0.3190  0.4421  0.7707
 3608THY    CA690199   2.837   3.899   5.523  0.5647 -0.9370  0.0432
 3608THY    HA690200   2.828   4.007   5.523  1.9957 -0.7355 -2.6160
 3609THY      O90201   3.115   6.860   6.030 -0.0332 -0.5887  0.8224
 3609THY     HO90202   3.173   6.811   5.970 -0.3296  1.0943 -0.9374
 3609THY    CA190203   2.987   6.835   5.987 -0.5798 -0.9354 -0.2194
 3609THY    CA290204   2.883   6.930   6.000  0.0443 -0.5011 -0.3043
 3609THY    CP190205   2.891   7.046   6.100 -0.0001  0.3455 -0.3854
 3609THY    HP190206   2.985   7.033   6.156  0.2528  0.9820 -0.6517
 3609THY    CP290207   2.880   7.181   6.033  0.4425 -0.2204 -0.3787
 3609THY    HP290208   2.786   7.179   5.977 -1.1227 -2.3263  2.0846
 3609THY    HP390209   2.896   7.251   6.115 -1.0740  0.7469 -0.8629
 3609THY    HP490210   2.959   7.187   5.958 -0.8962  1.6604 -1.7198
 3609THY    CP390211   2.780   7.034   6.211  0.2961 -0.0760  0.6667
 3609THY    HP590212   2.687   7.052   6.156  1.2798 -1.6104 -1.6431
 3609THY    HP690213   2.779   6.931   6.247  1.5306  0.6417  2.9470
 3609THY    HP790214   2.803   7.112   6.284  0.6253  0.1362  0.3450
 3609THY    CA390215   2.762   6.915   5.927  0.0878  1.7461 -0.5757
 3609THY    HA390216   2.674   6.978   5.941 -1.5953 -0.7466  0.9156
 3609THY    CA490217   2.753   6.802   5.841  0.1701 -0.0119  0.2226
 3609THY    HA490218   2.662   6.781   5.785 -2.6733  3.1111  3.1792
 3609THY    CA590219   2.848   6.704   5.837 -0.2215  0.0631  0.1128
 3609THY    CM190220   2.830   6.587   5.750 -0.7125  0.0354  0.7036
 3609THY    HM190221   2.754   6.516   5.787 -0.2126 -1.6401 -1.3162
 3609THY    HM290222   2.806   6.628   5.651 -1.1694  2.9596  1.9276
 3609THY    HM390223   2.924   6.532   5.735 -0.8308  0.6330 -3.0185
 3609THY    CA690224   2.967   6.721   5.910 -0.4663  0.1426 -0.4943
 3609THY    HA690225   3.055   6.659   5.895  1.4567  2.6671 -0.2697
 3610THY      O90226   8.744   7.707   4.129  0.5527  0.1143 -0.6833
 3610THY     HO90227   8.714   7.761   4.204 -1.0928 -0.9951 -0.5034
 3610THY    CA190228   8.660   7.739   4.034 -0.2231  0.2734  0.4267
 3610THY    CA290229   8.664   7.663   3.913 -0.4001  0.3156  0.1364
 3610THY    CP190230   8.767   7.557   3.888 -0.5944 -0.5313 -0.0921
 3610THY    HP190231   8.833   7.537   3.973 -0.0402  0.9861 -0.1357
 3610THY    CP290232   8.703   7.416   3.870  0.1699  0.9983 -0.6713
 3610THY    HP290233   8.627   7.389   3.944 -0.3391  0.8344 -1.2433
 3610THY    HP390234   8.640   7.403   3.781  0.3752 -0.7067 -0.5985
 3610THY    HP490235   8.778   7.336   3.874  1.7167  2.0634 -4.1657
 3610THY    CP390236   8.860   7.585   3.767 -0.3953  0.5744  0.9262
 3610THY    HP590237   8.811   7.552   3.675  0.2670 -1.1974  1.1809
 3610THY    HP690238   8.886   7.691   3.759 -0.9770  0.9233  3.0225
 3610THY    HP790239   8.957   7.536   3.782  0.1953  0.7070 -1.9541
 3610THY    CA390240   8.577   7.693   3.807  0.8076 -0.2970  0.5997
 3610THY    HA390241   8.573   7.634   3.716 -1.1851  0.7043 -0.0275
 3610THY    CA490242   8.487   7.796   3.825  0.6078  0.1200  0.3457
 3610THY    HA490243   8.417   7.815   3.744 -0.0874 -1.5931  0.4962
 3610THY    CA590244   8.485   7.871   3.941 -0.4206 -0.5747 -0.5296
 3610THY    CM190245   8.393   7.990   3.960  0.1525 -0.3051  0.7439
 3610THY    HM190246   8.366   8.046   3.870 -0.6178  0.4466  1.4232
 3610THY    HM290247   8.304   7.951   4.011  0.1227 -1.8192 -0.3852
 3610THY    HM390248   8.441   8.063   4.026  0.4628  0.5857 -0.4264
 3610THY    CA690249   8.570   7.840   4.051 -0.4805 -0.5275 -0.0764
 3610THY    HA690250   8.574   7.901   4.140  0.8756  0.2395 -0.6392
 3611THY      O90251   0.351   4.983   9.253  0.6299 -0.2037 -0.5966
 3611THY     HO90252   0.275   4.996   9.311  1.0181  0.0124 -0.1264
 3611THY    CA190253   0.451   4.938   9.333 -0.5335 -0.5795 -0.0662
 3611THY    CA290254   0.562   4.882   9.267  0.2033  0.4738 -0.5656
 3611THY    CP190255   0.583   4.878   9.115  0.4273  0.4438  0.4580
 3611THY    HP190256   0.484   4.868   9.069  0.7825 -1.1254 -0.0097
 3611THY    CP290257   0.652   5.009   9.070  0.3705  0.2102  0.5408
 3611THY    HP290258   0.594   5.097   9.099 -1.5178 -1.2019  1.2270
 3611THY    HP390259   0.751   5.021   9.115 -0.6316  2.7957  2.2943
 3611THY    HP490260   0.674   5.014   8.962  1.7164 -0.4182  0.7697
 3611THY    CP390261   0.657   4.748   9.063  1.1022  0.3242  0.6298
 3611THY    HP590262   0.637   4.728   8.957 -0.7683 -1.6957  1.2750
 3611THY    HP690263   0.766   4.746   9.074  1.8150 -2.8929 -3.9236
 3611THY    HP790264   0.603   4.673   9.123  1.3408  0.8865  1.5697
 3611THY    CA390265   0.668   4.836   9.352 -0.2266 -0.1081 -0.5523
 3611THY    HA390266   0.756   4.782   9.318 -1.1452 -0.7728 -1.9672
 3611THY    CA490267   0.636   4.831   9.494 -1.0560 -0.3698 -0.3836
 3611THY    HA490268   0.702   4.772   9.557  0.4757 -0.7235 -2.2370
 3611THY    CA590269   0.521   4.882   9.551  0.8385 -0.5070 -0.7829
 3611THY    CM190270   0.494   4.844   9.701 -1.0424 -0.5281  0.4965
 3611THY    HM190271   0.589   4.863   9.752 -0.9398 -2.1872  0.9643
 3611THY    HM290272   0.405   4.900   9.734 -2.8830 -0.4665 -3.8635
 3611THY    HM390273   0.463   4.739   9.707  0.9171 -1.0603  2.8303
 3611THY    CA690274   0.421   4.938   9.470 -0.6860  0.1775  0.2394
 3611THY    HA690275   0.323   4.961   9.510 -0.7434  0.3709 -0.0150
 3612THY      O90276   2.982   5.038   2.630 -0.1121  0.2324 -0.6656
 3612THY     HO90277   2.914   5.102   2.657 -1.0873 -1.5145  1.4243
 3612THY    CA190278   3.037   4.997   2.745  0.3818 -1.0139 -0.5511
 3612THY    CA290279   3.047   4.858   2.769 -0.9845 -0.1280 -0.0919
 3612THY    CP190280   2.991   4.759   2.667 -0.2743 -0.7510  0.4388
 3612THY    HP190281   3.015   4.800   2.568 -0.9498 -1.1524  0.0987
 3612THY    CP290282   3.069   4.622   2.666  0.1647 -0.5107  0.6257
 3612THY    HP290283   3.004   4.561   2.602 -1.7623  2.4798 -0.4944
 3612THY    HP390284   3.167   4.649   2.626 -0.6210  2.0957  0.2637
 3612THY    HP490285   3.073   4.582   2.768 -1.7229 -2.0425  0.1730
 3612THY    CP390286   2.837   4.742   2.691  0.3180  0.1627 -0.3199
 3612THY    HP590287   2.789   4.686   2.609  1.6188 -1.2387 -0.1713
 3612THY    HP690288   2.822   4.686   2.784 -0.9445  0.6179 -0.2239
 3612THY    HP790289   2.787   4.839   2.701 -1.2004 -0.6119 -0.0051
 3612THY    CA390290   3.114   4.823   2.892 -0.2717  0.0109 -0.4063
 3612THY    HA390291   3.126   4.719   2.923 -0.3060  0.4623  1.1873
 3612THY    CA490292   3.149   4.926   2.987  0.0184  0.7621 -0.0753
 3612THY    HA490293   3.195   4.900   3.082  1.1180  3.5355  0.2534
 3612THY    CA590294   3.132   5.059   2.957 -0.1831 -0.3777 -0.6303
 3612THY    CM190295   3.166   5.166   3.063  0.2083  0.0680 -0.5521
 3612THY    HM190296   3.222   5.241   3.006  1.0637 -1.3087 -1.5692
 3612THY    HM290297   3.073   5.200   3.110 -0.4743 -1.1604 -0.9724
 3612THY    HM390298   3.230   5.126   3.143  0.5688 -0.9645 -1.3381
 3612THY    CA690299   3.072   5.100   2.844 -0.0532 -0.1960  0.5195
 3612THY    HA690300   3.063   5.205   2.820  1.1160 -0.3850 -0.9055
 3613THY      O90301   8.007   3.266   2.845 -0.0996 -0.7224 -0.0753
 3613THY     HO90302   7.978   3.197   2.783  1.8617 -1.8265  0.1516
 3613THY    CA190303   8.106   3.343   2.780  0.2014 -0.4998 -0.2441
 3613THY    CA290304   8.211   3.404   2.858  0.1790  0.0557  0.0837
 3613THY    CP190305   8.204   3.396   3.016  0.7270  0.1229 -0.4926
 3613THY    HP190306   8.114   3.339   3.042  0.0705  0.5764 -1.6993
 3613THY    CP290307   8.328   3.321   3.064  0.2521  0.0187  0.3883
 3613THY    HP290308   8.321   3.279   3.165 -1.1934 -0.3877  0.1424
 3613THY    HP390309   8.344   3.236   2.996 -0.5330  0.4567 -0.3720
 3613THY    HP490310   8.421   3.379   3.065 -0.0563  0.5908 -1.1654
 3613THY    CP390311   8.205   3.538   3.070 -0.1302  0.7800 -0.3501
 3613THY    HP590312   8.214   3.528   3.179 -1.3266  0.0226 -0.3057
 3613THY    HP690313   8.295   3.594   3.039  1.9257 -1.5634  1.0374
 3613THY    HP790314   8.109   3.583   3.044 -1.0030 -0.2732  0.9577
 3613THY    CA390315   8.315   3.473   2.791  0.1066 -0.1875 -0.1668
 3613THY    HA390316   8.395   3.516   2.850 -2.3875  1.3167  2.3537
 3613THY    CA490317   8.316   3.475   2.653  0.0774 -0.2141 -0.0279
 3613THY    HA490318   8.394   3.532   2.602 -1.7048  0.0620 -2.6505
 3613THY    CA590319   8.214   3.412   2.580  0.3532 -0.0466 -0.2106
 3613THY    CM190320   8.210   3.420   2.424 -0.0522 -0.1486 -0.3254
 3613THY    HM190321   8.207   3.525   2.392 -2.7832  0.8459  2.6092
 3613THY    HM290322   8.274   3.357   2.362  0.3827 -0.6787  0.6410
 3613THY    HM390323   8.118   3.377   2.383 -0.2964  0.8856 -0.9049
 3613THY    CA690324   8.115   3.343   2.641 -0.1056  0.4359  0.0653
 3613THY    HA690325   8.042   3.285   2.585 -0.9134 -0.3205  1.7942
 3614THY      O90326   2.964   6.348   3.321  0.2453 -0.3422 -0.0439
 3614THY     HO90327   2.916   6.263   3.325  0.9273 -0.7979 -1.2699
 3614THY    CA190328   2.915   6.403   3.205  0.0078  1.0255 -0.2319
 3614THY    CA290329   2.973   6.526   3.159  0.6196  0.3888 -0.5422
 3614THY    CP190330   3.092   6.586   3.230  0.3082 -0.4639  0.1106
 3614THY    HP190331   3.090   6.561   3.337  0.9311  2.3852  0.8822
 3614THY    CP290332   3.224   6.531   3.174  0.2439 -0.1649  0.7601
 3614THY    HP290333   3.220   6.435   3.122  1.2185  1.0770 -1.7918
 3614THY    HP390334   3.261   6.595   3.093 -0.1824  1.9004  2.0901
 3614THY    HP490335   3.304   6.519   3.248  0.6690  1.6563  0.6511
 3614THY    CP390336   3.114   6.741   3.232  0.2696 -0.7012  0.3931
 3614THY    HP590337   3.141   6.785   3.136  0.2783 -0.1621  0.6409
 3614THY    HP690338   3.027   6.803   3.259  1.2630  0.7032  0.4120
 3614THY    HP790339   3.193   6.758   3.306  0.4636 -2.5056  0.6578
 3614THY    CA390340   2.916   6.596   3.049 -0.4686 -0.2929 -1.2843
 3614THY    HA390341   2.961   6.691   3.023 -3.3853  2.0337  1.3042
 3614THY    CA490342   2.794   6.554   2.996 -0.7951  1.3462  0.1108
 3614THY    HA490343   2.751   6.613   2.915  1.8945 -0.9792 -3.2372
 3614THY    CA590344   2.743   6.427   3.039 -0.2943 -1.0764 -0.0668
 3614THY    CM190345   2.614   6.380   2.964 -0.4460  0.6368 -0.3263
 3614THY    HM190346   2.530   6.409   3.028  0.3405 -0.3810  1.2391
 3614THY    HM290347   2.592   6.451   2.884 -0.6243  0.6861 -0.2347
 3614THY    HM390348   2.605   6.277   2.927  2.5367  0.3412 -0.4488
 3614THY    CA690349   2.800   6.353   3.146 -0.1661  0.0341 -0.5979
 3614THY    HA690350   2.746   6.269   3.188 -0.0150 -0.5419 -1.5125
 3615THY      O90351   6.509   8.646   8.868  0.2131 -0.0380 -0.3810
 3615THY     HO90352   6.593   8.677   8.830  0.3051  2.4391  1.6012
 3615THY    CA190353   6.453   8.750   8.932  0.4151  0.3955 -0.0433
 3615THY    CA290354   6.357   8.725   9.030  0.2017 -0.0092 -0.2909
 3615THY    CP190355   6.326   8.585   9.069 -1.0338 -0.1394 -0.1396
 3615THY    HP190356   6.348   8.516   8.986  0.0547  1.3822 -1.1811
 3615THY    CP290357   6.414   8.549   9.188  0.3397  0.3242  0.4659
 3615THY    HP290358   6.521   8.541   9.165  0.4586 -1.4480  1.4730
 3615THY    HP390359   6.399   8.609   9.279  0.9582  0.3212  0.5710
 3615THY    HP490360   6.386   8.446   9.215  1.3109  0.2079  1.0848
 3615THY    CP390361   6.176   8.563   9.096  0.5305  0.0572  0.3549
 3615THY    HP590362   6.117   8.588   9.006  1.6700 -0.2508 -0.4925
 3615THY    HP690363   6.154   8.458   9.117  0.0596  0.2803  1.0094
 3615THY    HP790364   6.145   8.615   9.187  0.3621  0.0751  0.2884
 3615THY    CA390365   6.302   8.830   9.106 -0.0011  0.0745 -0.6253
 3615THY    HA390366   6.245   8.819   9.198  1.7726  0.4338  0.5598
 3615THY    CA490367   6.340   8.958   9.069 -0.5343  0.0180 -0.9349
 3615THY    HA490368   6.299   9.038   9.131 -1.3617 -1.5128  0.5700
 3615THY    CA590369   6.427   8.987   8.960  0.0290  0.2399  0.1139
 3615THY    CM190370   6.471   9.120   8.927  0.1694 -0.1770  0.1818
 3615THY    HM190371   6.570   9.124   8.880  0.7856  0.2697  1.4473
 3615THY    HM290372   6.395   9.184   8.881  1.1206 -0.9594 -2.6914
 3615THY    HM390373   6.502   9.156   9.027  2.0906 -2.0133  0.3281
 3615THY    CA690374   6.482   8.883   8.885  0.1203 -0.0248 -0.2627
 3615THY    HA690375   6.546   8.903   8.800 -0.1243  1.8778 -0.0421
 3616THY      O90376   1.126   3.880   0.246 -0.1536  0.5797  0.3068
 3616THY     HO90377   1.095   3.866   0.154 -0.7133  1.6258  0.3150
 3616THY    CA190378   1.188   3.996   0.225  0.1941 -0.2159  0.0665
 3616THY    CA290379   1.277   4.048   0.320  0.2193  0.3138 -0.0068
 3616THY    CP190380   1.286   3.971   0.451 -0.4164  0.1989  0.8389
 3616THY    HP190381   1.191   3.925   0.478 -0.0818 -1.3529 -0.5098
 3616THY    CP290382   1.378   3.841   0.448  0.1561  0.0362  0.1840
 3616THY    HP290383   1.362   3.799   0.548  0.1336 -5.1804 -1.6842
 3616THY    HP390384   1.350   3.772   0.367 -0.3418  1.9089 -1.2966
 3616THY    HP490385   1.477   3.877   0.419  0.0025  1.4729  1.3486
 3616THY    CP390386   1.320   4.077   0.562 -0.4511 -0.5246  0.3700
 3616THY    HP590387   1.425   4.108   0.557 -0.8654  0.8532 -0.1248
 3616THY    HP690388   1.250   4.161   0.565  1.8639  1.6574 -1.9927
 3616THY    HP790389   1.318   4.026   0.659  0.8817  0.7039  1.0757
 3616THY    CA390390   1.345   4.168   0.286  0.8148  0.5897 -0.4432
 3616THY    HA390391   1.414   4.215   0.355 -1.5983  3.1036  0.4402
 3616THY    CA490392   1.321   4.219   0.159  0.1463  0.2163  0.1105
 3616THY    HA490393   1.368   4.306   0.115 -3.0001  3.0789  1.9373
 3616THY    CA590394   1.251   4.149   0.058 -0.3504  0.3639 -0.3201
 3616THY    CM190395   1.230   4.199  -0.082 -0.8453 -0.1270  0.2585
 3616THY    HM190396   1.130   4.170  -0.115 -1.8489  3.4762 -0.2980
 3616THY    HM290397   1.231   4.309  -0.080  0.9185 -0.0886 -0.4231
 3616THY    HM390398   1.299   4.152  -0.153 -2.9807  1.6656 -3.3050
 3616THY    CA690399   1.185   4.035   0.090  0.0758 -0.1715 -0.1890
 3616THY    HA690400   1.129   3.984   0.011 -0.6887 -1.3849  1.0873
 3617THY      O90401   0.232   7.613   9.548  0.3542 -0.8280 -0.0137
 3617THY     HO90402   0.227   7.671   9.626 -2.1200  0.6039 -1.1169
 3617THY    CA190403   0.365   7.574   9.536 -0.0160  0.4581  0.0249
 3617THY    CA290404   0.423   7.551   9.410  0.0553  0.2059 -0.8143
 3617THY    CP190405   0.320   7.567   9.298 -0.3920 -0.4057  0.5099
 3617THY    HP190406   0.224   7.522   9.329 -1.4534  0.6276 -1.1058
 3617THY    CP290407   0.298   7.716   9.255 -0.2212  0.1233 -0.0429
 3617THY    HP290408   0.257   7.771   9.340 -1.7630 -0.5262 -0.3426
 3617THY    HP390409   0.393   7.760   9.222 -0.5115 -1.9056 -4.2452
 3617THY    HP490410   0.225   7.732   9.174 -0.4777  1.1816  0.3763
 3617THY    CP390411   0.375   7.503   9.167 -0.0441  0.0560 -0.0360
 3617THY    HP590412   0.378   7.394   9.177  3.0497 -0.0531 -1.3165
 3617THY    HP690413   0.297   7.511   9.090 -0.3384  0.7868  0.3189
 3617THY    HP790414   0.471   7.536   9.128  0.1343  0.1751  0.4951
 3617THY    CA390415   0.553   7.509   9.400 -0.7727 -0.1666 -0.5603
 3617THY    HA390416   0.611   7.505   9.308 -0.3572 -0.0960 -0.3041
 3617THY    CA490417   0.624   7.485   9.522 -0.3153  0.5184 -0.6697
 3617THY    HA490418   0.728   7.453   9.528 -0.1011  1.4145  0.7380
 3617THY    CA590419   0.565   7.502   9.649 -0.2153 -0.0655  0.4713
 3617THY    CM190420   0.639   7.472   9.774  0.2535 -0.0200 -0.1255
 3617THY    HM190421   0.585   7.436   9.863 -0.3818  0.8144 -0.1677
 3617THY    HM290422   0.723   7.406   9.749 -0.9462 -1.5063 -0.4019
 3617THY    HM390423   0.674   7.568   9.813 -0.4238  1.0295 -1.9982
 3617THY    CA690424   0.435   7.547   9.651  0.4943  0.0253  0.5848
 3617THY    HA690425   0.388   7.543   9.749  0.1752 -2.1502  0.3926
 3618THY      O90426   8.737   1.495   1.083  0.3009  0.0504 -0.3638
 3618THY     HO90427   8.715   1.582   1.121 -3.0753 -0.1580 -1.5066
 3618THY    CA190428   8.872   1.461   1.099 -0.2111 -0.0378 -0.2587
 3618THY    CA290429   8.925   1.324   1.068  0.7539 -0.0196 -0.2321
 3618THY    CP190430   8.827   1.222   1.011 -0.7311 -0.3809  0.0204
 3618THY    HP190431   8.753   1.281   0.956 -1.3197  1.7819  2.8619
 3618THY    CP290432   8.887   1.121   0.909  0.0178 -0.2713  0.1646
 3618THY    HP290433   8.957   1.063   0.969  1.4834  1.6194  0.3641
 3618THY    HP390434   8.812   1.050   0.871 -0.6883  0.8127 -0.5242
 3618THY    HP490435   8.940   1.161   0.822  2.0179 -1.7282  0.6534
 3618THY    CP390436   8.760   1.149   1.131  0.5988  0.3086  0.0367
 3618THY    HP590437   8.697   1.065   1.101  0.4410  0.0851  0.9574
 3618THY    HP690438   8.822   1.118   1.216 -2.2332  0.3300  2.2687
 3618THY    HP790439   8.688   1.217   1.177  0.8879 -0.2318  1.3286
 3618THY    CA390440   9.057   1.303   1.085  0.3082  0.1581 -0.0181
 3618THY    HA390441   9.095   1.204   1.061  0.4333  0.6168 -1.8940
 3618THY    CA490442   9.142   1.398   1.141 -0.3844  0.0199  0.3887
 3618THY    HA490443   9.244   1.379   1.173 -0.1465  0.9513  0.1994
 3618THY    CA590444   9.085   1.522   1.182  0.6521  0.2335  0.0523
 3618THY    CM190445   9.170   1.613   1.264  0.3384  0.0351  0.4495
 3618THY    HM190446   9.159   1.721   1.247  3.2153  0.1310 -1.4160
 3618THY    HM290447   9.153   1.599   1.372  0.0678  0.7806  0.5085
 3618THY    HM390448   9.276   1.605   1.240  0.5178 -0.0093  1.2302
 3618THY    CA690449   8.949   1.551   1.166 -0.3527 -0.2073 -0.3009
 3618THY    HA690450   8.914   1.643   1.211 -0.3187  0.1771 -1.0473
 3619THY      O90451   5.986   9.418   3.432  0.3718  0.4351 -0.5908
 3619THY     HO90452   6.045   9.438   3.506 -3.5900  1.6137  2.6080
 3619THY    CA190453   6.028   9.498   3.330  0.0546  0.7120  0.3599
 3619THY    CA290454   6.020   9.439   3.202  0.1596 -0.3825 -0.3256
 3619THY    CP190455   5.949   9.313   3.170  0.1909  0.5258 -0.3372
 3619THY    HP190456   5.950   9.236   3.248 -1.1308  0.7405 -0.0774
 3619THY    CP290457   5.804   9.347   3.119  0.3147 -0.4222 -0.2048
 3619THY    HP290458   5.741   9.386   3.200 -0.4460  0.1575 -1.0523
 3619THY    HP390459   5.813   9.435   3.055 -0.5863 -0.6995 -0.7305
 3619THY    HP490460   5.758   9.263   3.065 -0.5624  0.4468 -0.8435
 3619THY    CP390461   6.007   9.225   3.051  0.3287 -0.1728 -0.3285
 3619THY    HP590462   5.989   9.271   2.953  0.5948 -0.2013 -0.3919
 3619THY    HP690463   6.114   9.204   3.057  0.2329 -2.0270 -2.9272
 3619THY    HP790464   5.952   9.130   3.051 -1.2790  0.7095 -1.3786
 3619THY    CA390465   6.083   9.512   3.098 -0.3019  0.0305  0.1240
 3619THY    HA390466   6.091   9.468   2.999 -1.3505  2.6951 -1.2490
 3619THY    CA490467   6.151   9.627   3.129 -0.0867 -0.1271 -0.2635
 3619THY    HA490468   6.194   9.687   3.049 -2.3809  0.6175 -1.0204
 3619THY    CA590469   6.155   9.684   3.259 -0.1485 -0.1820  0.2475
 3619THY    CM190470   6.239   9.813   3.285  0.2415 -0.4421  0.3276
 3619THY    HM190471   6.165   9.894   3.277  1.1799  0.4053 -0.0764
 3619THY    HM290472   6.300   9.812   3.376 -0.0153 -1.2914  0.4989
 3619THY    HM390473   6.310   9.839   3.206 -0.0356  2.6478  0.9368
 3619THY    CA690474   6.089   9.619   3.359 -0.4283 -0.4372  0.0411
 3619THY    HA690475   6.089   9.652   3.463  1.7060  3.1007 -0.9269
 3620THY      O90476   9.364   0.565   5.960  0.6309  0.0469  0.1566
 3620THY     HO90477   9.345   0.622   5.884 -2.1981 -1.9222 -0.7607
 3620THY    CA190478   9.280   0.451   5.951  0.3023 -0.4952  1.1553
 3620THY    CA290479   9.248   0.371   6.066 -0.0481 -0.0488  0.0445
 3620THY    CP190480   9.312   0.392   6.204 -0.2041 -0.5683  0.2871
 3620THY    HP190481   9.382   0.477   6.206 -1.4996  0.5797 -1.0721
 3620THY    CP290482   9.209   0.433   6.307  0.0427 -0.1012  0.5969
 3620THY    HP290483   9.253   0.490   6.390  1.8237 -1.7224  0.8367
 3620THY    HP390484   9.148   0.507   6.253  0.6535 -0.0168  0.0159
 3620THY    HP490485   9.133   0.358   6.332 -0.5357  0.0308 -0.7031
 3620THY    CP390486   9.377   0.262   6.247 -0.5158 -0.1671  0.5038
 3620THY    HP590487   9.458   0.233   6.179  1.5925 -0.0745  2.8380
 3620THY    HP690488   9.428   0.269   6.343  1.2212 -1.6961 -0.2517
 3620THY    HP790489   9.306   0.178   6.241 -1.0914  0.3807 -0.7799
 3620THY    CA390490   9.162   0.259   6.039  0.4457  0.6875  0.0836
 3620THY    HA390491   9.127   0.192   6.117 -1.7127 -0.6530 -1.9149
 3620THY    CA490492   9.130   0.230   5.908 -0.2504  0.4041 -0.1505
 3620THY    HA490493   9.069   0.144   5.883  1.1768 -0.1749 -1.8910
 3620THY    CA590494   9.161   0.311   5.801 -0.0149 -0.7620 -0.2563
 3620THY    CM190495   9.117   0.276   5.658  0.8558 -0.6809  0.1139
 3620THY    HM190496   9.022   0.328   5.640  0.8085 -0.8774 -0.2211
 3620THY    HM290497   9.200   0.291   5.588  1.4031  1.9327  1.2028
 3620THY    HM390498   9.090   0.170   5.661 -1.0209 -0.2352  0.7433
 3620THY    CA690499   9.229   0.423   5.825 -0.2043  0.3106  0.4408
 3620THY    HA690500   9.253   0.484   5.739  0.5197  1.0400  1.1400
 3621THY      O90501   4.535   5.276   3.131  0.1050  0.2680 -0.1201
 3621THY     HO90502   4.543   5.312   3.041  0.4924 -0.8495 -0.5507
 3621THY    CA190503   4.661   5.244   3.165  0.5692 -0.2441 -0.6201
 3621THY    CA290504   4.700   5.124   3.228  0.5917  0.6061 -0.2844
 3621THY    CP190505   4.593   5.013   3.255  0.3993 -0.2495 -0.1164
 3621THY    HP190506   4.507   5.021   3.187 -1.2745  0.1331  1.9317
 3621THY    CP290507   4.653   4.872   3.244  0.3299  0.6068 -0.3703
 3621THY    HP290508   4.718   4.856   3.331  1.6277 -0.5946 -1.5149
 3621THY    HP390509   4.580   4.790   3.250  1.9326 -0.8641 -0.2953
 3621THY    HP490510   4.704   4.861   3.148 -0.2683  0.1140 -0.6357
 3621THY    CP390511   4.522   5.036   3.390  0.2231 -0.0917 -0.2714
 3621THY    HP590512   4.431   4.976   3.388  0.2755 -0.1760 -0.1285
 3621THY    HP690513   4.595   5.012   3.468  0.1075 -1.5057 -0.5839
 3621THY    HP790514   4.491   5.141   3.379  1.1567  0.0415 -1.9202
 3621THY    CA390515   4.824   5.116   3.288 -0.7722 -0.2401 -0.5943
 3621THY    HA390516   4.851   5.032   3.351 -1.5259 -0.8523 -1.0731
 3621THY    CA490517   4.913   5.223   3.275  0.1020  0.0381 -0.7887
 3621THY    HA490518   5.006   5.231   3.331  0.3946 -2.1373 -0.8859
 3621THY    CA590519   4.877   5.335   3.197  0.4546  0.2313 -0.3980
 3621THY    CM190520   4.978   5.446   3.172 -0.4257 -0.4483 -0.3878
 3621THY    HM190521   4.950   5.526   3.102  0.3104 -0.4331 -0.6765
 3621THY    HM290522   4.988   5.510   3.260  0.1511  1.3271 -1.6796
 3621THY    HM390523   5.081   5.412   3.155 -0.7136 -1.0926 -0.8810
 3621THY    CA690524   4.751   5.355   3.154 -0.1948  0.1829  0.0503
 3621THY    HA690525   4.728   5.449   3.104 -0.2167 -0.7022 -1.6606
 3622THY      O90526   7.747   2.632   3.656  0.4685  0.0926  0.1097
 3622THY     HO90527   7.806   2.698   3.616  0.0057  0.6302  0.2968
 3622THY    CA190528   7.644   2.704   3.707 -0.6750  0.5381  0.1230
 3622THY    CA290529   7.590   2.674   3.834 -0.2550  0.6187  0.0266
 3622THY    CP190530   7.637   2.559   3.920  0.1419 -0.5915 -0.1393
 3622THY    HP190531   7.688   2.489   3.852 -1.5709 -0.3298 -1.7737
 3622THY    CP290532   7.736   2.606   4.025 -0.9037 -0.6116 -0.1934
 3622THY    HP290533   7.772   2.528   4.093 -1.3485 -1.0309 -0.4385
 3622THY    HP390534   7.830   2.641   3.981 -0.9308  3.3670  2.3786
 3622THY    HP490535   7.696   2.695   4.075  0.1776 -0.7548  0.9869
 3622THY    CP390536   7.529   2.476   3.994  0.1353  0.3700 -0.3750
 3622THY    HP590537   7.569   2.413   4.074  1.9293  0.3642 -1.2338
 3622THY    HP690538   7.456   2.547   4.035 -1.0043 -0.9944  0.0315
 3622THY    HP790539   7.470   2.409   3.931 -2.7611  3.0661 -0.7907
 3622THY    CA390540   7.487   2.762   3.878  0.4425 -0.0283  0.7487
 3622THY    HA390541   7.431   2.753   3.971 -1.2766 -1.7978 -0.3745
 3622THY    CA490542   7.454   2.880   3.806  0.5923  0.5794  0.5339
 3622THY    HA490543   7.372   2.941   3.844  0.4621  0.9394 -0.3027
 3622THY    CA590544   7.514   2.904   3.681 -0.3922  0.3030  0.1815
 3622THY    CM190545   7.474   3.023   3.601 -0.1056  0.4568 -0.3814
 3622THY    HM190546   7.383   3.070   3.639 -1.1374 -0.3911 -1.6828
 3622THY    HM290547   7.550   3.103   3.601 -1.9091  2.2663  0.5691
 3622THY    HM390548   7.456   2.999   3.495  1.5419  0.9334 -0.8119
 3622THY    CA690549   7.606   2.815   3.630 -0.3582  0.2587  0.0031
 3622THY    HA690550   7.653   2.835   3.534  0.9817 -2.6974 -0.0640
 3623THY      O90551   4.601   5.994   4.245  0.0455  0.5596 -0.3181
 3623THY     HO90552   4.617   5.905   4.281  2.0189  1.0876  0.2348
 3623THY    CA190553   4.602   5.977   4.108  0.1091  0.1954  0.2109
 3623THY    CA290554   4.584   6.087   4.023  0.2329  0.1768  0.3049
 3623THY    CP190555   4.544   6.223   4.080 -0.1309  0.0551  0.2670
 3623THY    HP190556   4.552   6.227   4.189  1.7192  0.3193  0.1632
 3623THY    CP290557   4.642   6.322   4.027 -0.6042 -0.0438  0.2135
 3623THY    HP290558   4.608   6.423   4.053  0.8356  0.5009  0.0629
 3623THY    HP390559   4.743   6.309   4.067  0.1874 -0.1866 -1.7180
 3623THY    HP490560   4.649   6.315   3.918 -1.9110  0.6759  0.0607
 3623THY    CP390561   4.400   6.266   4.050  0.3742  0.4538  0.3083
 3623THY    HP590562   4.331   6.196   4.098  0.9604 -0.8393 -0.6615
 3623THY    HP690563   4.371   6.370   4.069  3.3745  1.4430  0.0255
 3623THY    HP790564   4.388   6.251   3.942  2.8247  4.0750 -0.6599
 3623THY    CA390565   4.593   6.065   3.880  0.9050  1.1924 -0.4486
 3623THY    HA390566   4.580   6.146   3.809 -1.1431  1.4014  0.0870
 3623THY    CA490567   4.599   5.935   3.825 -0.3654  0.2303 -0.7756
 3623THY    HA490568   4.607   5.916   3.718  2.5762 -1.5149 -0.3384
 3623THY    CA590569   4.624   5.825   3.913 -1.0484 -0.4599  0.7549
 3623THY    CM190570   4.655   5.692   3.858  0.3093  0.6647 -0.0009
 3623THY    HM190571   4.562   5.638   3.836  0.6158 -0.9058  2.2614
 3623THY    HM290572   4.711   5.689   3.764 -0.3727 -1.6817 -0.3784
 3623THY    HM390573   4.710   5.641   3.937 -1.1057 -0.6597  0.1560
 3623THY    CA690574   4.619   5.843   4.055 -0.1079 -0.4851  0.1440
 3623THY    HA690575   4.635   5.758   4.121  1.3439  0.5028  1.1117
 3624THY      O90576   0.535   3.847   8.097 -0.3866 -0.1336 -1.1197
 3624THY     HO90577   0.443   3.871   8.119 -0.0174 -0.8960  1.6626
 3624THY    CA190578   0.618   3.952   8.138 -0.3468  0.4156 -0.3003
 3624THY    CA290579   0.748   3.957   8.098 -0.7078 -0.1473 -0.4721
 3624THY    CP190580   0.811   3.849   8.009 -1.0607 -0.5124  0.5380
 3624THY    HP190581   0.739   3.767   8.000 -0.0147 -1.8252  3.1573
 3624THY    CP290582   0.859   3.898   7.871 -0.2925  0.3192 -0.6425
 3624THY    HP290583   0.913   3.993   7.880 -3.1022  1.8577  1.7572
 3624THY    HP390584   0.929   3.829   7.823  0.4060  1.2278 -0.9620
 3624THY    HP490585   0.777   3.912   7.800  0.1341  1.3104 -0.9567
 3624THY    CP390586   0.932   3.791   8.087 -0.0283 -0.4870  0.1282
 3624THY    HP590587   0.905   3.723   8.168  0.0589 -1.6057 -0.7536
 3624THY    HP690588   1.003   3.739   8.021 -0.3419 -0.4863 -0.2152
 3624THY    HP790589   1.006   3.869   8.111  0.5213 -0.6091 -1.0982
 3624THY    CA390590   0.830   4.073   8.127  0.2991 -0.1491  0.1426
 3624THY    HA390591   0.931   4.084   8.090 -0.7112 -2.7880 -3.9993
 3624THY    CA490592   0.778   4.171   8.215 -0.4913 -0.0297  0.8320
 3624THY    HA490593   0.850   4.250   8.235  3.4505 -2.8052 -1.2448
 3624THY    CA590594   0.633   4.170   8.241  0.4366  0.6789  0.2819
 3624THY    CM190595   0.568   4.279   8.323  0.5481  0.4262 -0.1565
 3624THY    HM190596   0.492   4.247   8.395  1.9566 -1.9207  0.3860
 3624THY    HM290597   0.640   4.345   8.373 -0.5028 -0.1612  2.3054
 3624THY    HM390598   0.509   4.343   8.256 -0.1366 -0.1223 -0.0861
 3624THY    CA690599   0.554   4.057   8.209 -0.6116  0.1411  0.3552
 3624THY    HA690600   0.451   4.055   8.244  0.3076  1.4051  3.4424
 3625THY      O90601   2.436   1.330   3.266 -0.1148  0.4869 -0.1530
 3625THY     HO90602   2.379   1.316   3.343 -0.6424 -1.6068 -0.8636
 3625THY    CA190603   2.386   1.445   3.199 -0.3025 -0.7136  0.1353
 3625THY    CA290604   2.469   1.525   3.110 -0.4090  0.4687 -0.4778
 3625THY    CP190605   2.607   1.467   3.070  0.5468 -0.0394 -0.3289
 3625THY    HP190606   2.631   1.379   3.130  0.1274  1.1475  1.6841
 3625THY    CP290607   2.602   1.420   2.922  0.5461 -0.2553 -0.1389
 3625THY    HP290608   2.499   1.415   2.885  0.3638 -1.1739  0.4564
 3625THY    HP390609   2.645   1.486   2.846 -1.1637 -0.8600 -1.7271
 3625THY    HP490610   2.647   1.320   2.922 -1.0256 -1.0404  1.6151
 3625THY    CP390611   2.721   1.563   3.079 -0.2638 -0.7545  0.8398
 3625THY    HP590612   2.673   1.660   3.065 -1.1054 -1.4235 -1.3169
 3625THY    HP690613   2.772   1.567   3.176  1.9649  2.3895 -0.2907
 3625THY    HP790614   2.800   1.550   3.004 -0.9989 -0.8905  0.0746
 3625THY    CA390615   2.423   1.647   3.058 -0.1083  0.0743 -0.3070
 3625THY    HA390616   2.479   1.705   2.986 -0.2339  0.3998 -0.1435
 3625THY    CA490617   2.291   1.684   3.096 -0.0060 -0.2357  0.4402
 3625THY    HA490618   2.258   1.784   3.069 -2.0182 -0.6038  1.3316
 3625THY    CA590619   2.216   1.613   3.184  0.2262  0.0295 -0.0614
 3625THY    CM190620   2.075   1.665   3.227  0.2829  0.4986 -0.2707
 3625THY    HM190621   2.056   1.759   3.175 -0.2951  0.2113 -0.5780
 3625THY    HM290622   1.995   1.594   3.203 -1.7127  2.7922 -0.7101
 3625THY    HM390623   2.086   1.696   3.332 -0.1064  0.7073 -0.2910
 3625THY    CA690624   2.261   1.493   3.235  0.0223  0.0802  0.0024
 3625THY    HA690625   2.204   1.435   3.308  1.3302 -0.3438  0.7182
 3626THY      O90626   4.860   6.377   3.227  0.4258  0.2771  0.1431
 3626THY     HO90627   4.770   6.408   3.206  0.2268 -0.5036 -0.1969
 3626THY    CA190628   4.945   6.483   3.243 -0.6465 -0.1533  0.1241
 3626THY    CA290629   5.085   6.470   3.266 -0.1943 -0.1168  0.1088
 3626THY    CP190630   5.162   6.338   3.256  0.4789  0.0123 -0.7332
 3626THY    HP190631   5.095   6.252   3.245  1.6979 -0.7410 -2.8762
 3626THY    CP290632   5.246   6.342   3.135  0.7076  0.8033 -0.6590
 3626THY    HP290633   5.185   6.364   3.048  0.0915 -0.0977 -0.4736
 3626THY    HP390634   5.325   6.417   3.140  0.8068  0.6818 -0.3367
 3626THY    HP490635   5.290   6.241   3.129 -0.8234 -0.3406  3.5912
 3626THY    CP390636   5.237   6.308   3.389 -0.0901  0.7900  0.6703
 3626THY    HP590637   5.181   6.332   3.480  2.2068 -1.0931  2.7268
 3626THY    HP690638   5.272   6.204   3.394 -0.4878  0.6918  1.7216
 3626THY    HP790639   5.318   6.382   3.393  1.0272 -0.4328  1.9100
 3626THY    CA390640   5.156   6.591   3.293  0.1546  0.0747  0.1259
 3626THY    HA390641   5.263   6.597   3.303  0.1482  2.4790 -0.6778
 3626THY    CA490642   5.085   6.711   3.321 -0.6724 -0.1999  0.2641
 3626THY    HA490643   5.153   6.785   3.362  0.1486  0.1043 -1.5454
 3626THY    CA590644   4.951   6.721   3.306 -0.3092 -0.2477 -0.3628
 3626THY    CM190645   4.864   6.838   3.357  0.1273 -0.1412  0.0478
 3626THY    HM190646   4.816   6.877   3.267  0.6846  3.6585  1.2275
 3626THY    HM290647   4.779   6.807   3.419 -1.0550  1.6887 -0.5921
 3626THY    HM390648   4.935   6.915   3.389 -0.2798  0.9792 -1.6651
 3626THY    CA690649   4.885   6.603   3.261  0.2773 -0.0428 -0.2286
 3626THY    HA690650   4.777   6.604   3.244  0.3620  2.5760 -1.1214
 3627THY      O90651   0.278   2.440   7.072  0.0502 -0.5680  0.9851
 3627THY     HO90652   0.281   2.463   6.977  0.4676  2.9434  1.7221
 3627THY    CA190653   0.356   2.328   7.084 -0.5873  0.1546  0.0095
 3627THY    CA290654   0.341   2.246   7.196 -0.8318  0.2384  0.3708
 3627THY    CP190655   0.231   2.282   7.303 -0.5687 -0.0335 -0.1946
 3627THY    HP190656   0.142   2.294   7.239  1.1005  0.2655 -2.5716
 3627THY    CP290657   0.192   2.165   7.385 -0.0397  0.5055  0.5191
 3627THY    HP290658   0.087   2.180   7.412 -1.1440 -0.9591 -2.5618
 3627THY    HP390659   0.185   2.072   7.328 -0.7994  0.2206  1.0611
 3627THY    HP490660   0.252   2.154   7.476 -1.4193 -0.4921  1.3488
 3627THY    CP390661   0.254   2.407   7.396  0.4507 -0.2831  0.0293
 3627THY    HP590662   0.295   2.494   7.343  0.2650 -0.4126 -0.3287
 3627THY    HP690663   0.167   2.443   7.451 -1.9285 -1.7645 -2.5030
 3627THY    HP790664   0.323   2.379   7.477 -1.1640 -2.0058  0.8735
 3627THY    CA390665   0.429   2.135   7.215 -0.1592 -0.3036  0.2349
 3627THY    HA390666   0.423   2.067   7.299 -0.0334 -0.5845  0.0178
 3627THY    CA490667   0.522   2.109   7.115 -0.3284  0.2945 -0.2192
 3627THY    HA490668   0.584   2.021   7.130 -0.6568  0.1415  0.2456
 3627THY    CA590669   0.535   2.188   7.004 -0.2352 -0.5778 -1.0829
 3627THY    CM190670   0.633   2.153   6.906 -0.0916  0.5219  0.2088
 3627THY    HM190671   0.594   2.160   6.804  0.5245 -1.7142 -0.2335
 3627THY    HM290672   0.709   2.231   6.899 -0.0137  0.3988 -0.4004
 3627THY    HM390673   0.692   2.066   6.937  0.8285  1.1420  0.2344
 3627THY    CA690674   0.452   2.298   6.985 -0.2556  0.4143  0.6375
 3627THY    HA690675   0.465   2.350   6.890  2.9589  0.6103  1.0806
 3628THY      O90676   2.581   5.205   1.693 -0.2816 -0.5898  0.0655
 3628THY     HO90677   2.618   5.285   1.653  3.2238 -2.4629 -0.8517
 3628THY    CA190678   2.645   5.183   1.813 -0.4221  0.1587 -0.0968
 3628THY    CA290679   2.598   5.088   1.903  0.1064 -0.1288  0.3606
 3628THY    CP190680   2.474   5.003   1.857 -0.2672 -0.3439 -0.4049
 3628THY    HP190681   2.420   5.045   1.771  0.0664 -0.7890 -0.8410
 3628THY    CP290682   2.510   4.856   1.808  0.4889  0.0223  0.6113
 3628THY    HP290683   2.590   4.855   1.732  0.3670 -0.5440  0.4869
 3628THY    HP390684   2.555   4.804   1.893  0.0200  0.0464  0.8745
 3628THY    HP490685   2.424   4.806   1.762  0.6642  1.0907 -0.9753
 3628THY    CP390686   2.368   4.982   1.964 -0.5103 -0.3694  0.6513
 3628THY    HP590687   2.420   4.936   2.049 -1.1599 -2.2048  0.1007
 3628THY    HP690688   2.329   5.078   2.001  0.7425  0.3918  0.0911
 3628THY    HP790689   2.293   4.915   1.921 -0.8662  0.7765 -0.5776
 3628THY    CA390690   2.660   5.081   2.032  0.3928  0.2502 -0.1820
 3628THY    HA390691   2.626   5.018   2.113 -0.3273  1.0151  0.1259
 3628THY    CA490692   2.784   5.145   2.059  0.2041  0.3911 -0.2814
 3628THY    HA490693   2.848   5.133   2.146  0.9709  0.1557 -0.8690
 3628THY    CA590694   2.828   5.237   1.962  0.2357  0.1728 -0.2475
 3628THY    CM190695   2.957   5.310   1.987 -0.7993  0.0660 -0.5502
 3628THY    HM190696   3.028   5.304   1.903 -0.6358 -1.9892 -0.2953
 3628THY    HM290697   2.937   5.415   2.011  0.1933 -0.0919  1.1598
 3628THY    HM390698   3.019   5.268   2.066  1.5730  1.8036 -1.3610
 3628THY    CA690699   2.758   5.262   1.842  0.2309 -0.8711 -0.7233
 3628THY    HA690700   2.799   5.335   1.772  1.5163 -2.0226 -1.2290
 3629THY      O90701   3.657   0.779   9.778 -0.2873  0.3348  0.4355
 3629THY     HO90702   3.691   0.714   9.842 -2.5549  0.7884  2.2355
 3629THY    CA190703   3.556   0.712   9.726 -0.2015 -0.7010  0.0890
 3629THY    CA290704   3.499   0.761   9.609 -0.3710  0.0858 -0.4756
 3629THY    CP190705   3.543   0.900   9.544  0.2443 -0.4687 -0.0839
 3629THY    HP190706   3.648   0.921   9.563  0.0837 -1.1311  1.7342
 3629THY    CP290707   3.535   0.890   9.394 -0.0567  0.0116  0.2273
 3629THY    HP290708   3.601   0.814   9.351 -1.8287 -0.3783 -1.9539
 3629THY    HP390709   3.434   0.871   9.354  0.7246 -2.6846 -0.7097
 3629THY    HP490710   3.575   0.983   9.352  1.0615 -0.7510 -0.4441
 3629THY    CP390711   3.459   1.015   9.599 -0.5502  0.4739  0.0291
 3629THY    HP590712   3.355   1.004   9.567 -1.1057  0.5549  1.6974
 3629THY    HP690713   3.458   1.003   9.708 -0.2374 -3.4958 -0.2412
 3629THY    HP790714   3.512   1.106   9.571 -2.5326  2.4459  2.2581
 3629THY    CA390715   3.393   0.686   9.549 -0.0351  0.6621 -0.1831
 3629THY    HA390716   3.324   0.715   9.470  0.7534 -0.3673 -1.3056
 3629THY    CA490717   3.353   0.566   9.602  0.8199  0.2112  0.0653
 3629THY    HA490718   3.272   0.511   9.556  1.3776 -1.0396  0.5327
 3629THY    CA590719   3.415   0.520   9.711 -0.7659  0.3119 -0.1612
 3629THY    CM190720   3.382   0.375   9.754  0.1248 -0.3338 -0.5420
 3629THY    HM190721   3.453   0.342   9.831  1.0863  1.0398 -0.8087
 3629THY    HM290722   3.282   0.352   9.793  0.9795 -0.7027  1.5620
 3629THY    HM390723   3.401   0.305   9.672 -0.1777 -1.8018  0.6049
 3629THY    CA690724   3.519   0.592   9.779  0.3292  0.2542  0.4151
 3629THY    HA690725   3.574   0.553   9.865  2.6993 -0.2067 -1.2233
 3630THY      O90726   2.591   7.008   7.352  0.1213  0.3015 -0.3159
 3630THY     HO90727   2.646   7.075   7.308 -0.6766  0.1751 -1.5643
 3630THY    CA190728   2.670   6.951   7.444 -0.0521 -0.3155  0.1075
 3630THY    CA290729   2.642   6.829   7.509  0.9135  0.0265  0.1641
 3630THY    CP190730   2.524   6.736   7.465  0.8021  0.1729 -0.6043
 3630THY    HP190731   2.481   6.760   7.367  1.1503 -1.4329 -1.1731
 3630THY    CP290732   2.582   6.595   7.453  0.5549  0.4507 -0.1550
 3630THY    HP290733   2.499   6.526   7.433  0.5881  0.1930  0.5611
 3630THY    HP390734   2.649   6.593   7.366 -0.4359  1.1126 -0.9565
 3630THY    HP490735   2.635   6.552   7.539  0.6299 -1.4814 -1.1057
 3630THY    CP390736   2.407   6.747   7.575  0.6476  0.3977 -0.4109
 3630THY    HP590737   2.345   6.834   7.552 -0.7958 -0.4058  0.3482
 3630THY    HP690738   2.349   6.654   7.578  1.3218 -0.0198 -0.0218
 3630THY    HP790739   2.454   6.747   7.674 -2.6818  1.9893  1.3345
 3630THY    CA390740   2.722   6.795   7.626 -0.1792  0.4301  0.9026
 3630THY    HA390741   2.713   6.703   7.682  2.7540 -1.0325 -0.7757
 3630THY    CA490742   2.828   6.870   7.663 -0.2227 -0.5936 -0.4985
 3630THY    HA490743   2.880   6.858   7.757 -0.2076  2.8722  0.0442
 3630THY    CA590744   2.851   6.993   7.594  0.1491  0.9573  0.3409
 3630THY    CM190745   2.965   7.084   7.622  0.8310  0.5619 -0.2324
 3630THY    HM190746   2.922   7.176   7.663  0.2123 -0.2136  0.9221
 3630THY    HM290747   3.042   7.041   7.686  0.7411 -1.2977 -1.2774
 3630THY    HM390748   3.013   7.111   7.527  0.6808  0.9530 -0.1992
 3630THY    CA690749   2.774   7.029   7.485  0.7950  0.1004  0.5266
 3630THY    HA690750   2.795   7.128   7.446 -0.0089  0.2674  0.4994
 3631THY      O90751   7.113   3.366   7.808 -1.0004  0.1018 -0.1307
 3631THY     HO90752   7.080   3.390   7.896 -2.1220 -0.2129 -0.4406
 3631THY    CA190753   7.160   3.480   7.747  0.2716 -0.1940  0.4105
 3631THY    CA290754   7.169   3.484   7.613 -0.3759 -0.4442  0.4036
 3631THY    CP190755   7.147   3.357   7.530  0.3225 -0.3579  0.0618
 3631THY    HP190756   7.165   3.271   7.596  1.4351 -0.8498 -0.8273
 3631THY    CP290757   7.015   3.349   7.461 -0.0057  0.1342 -0.4755
 3631THY    HP290758   7.005   3.445   7.409  1.5662  0.2326 -0.6475
 3631THY    HP390759   7.015   3.257   7.400  0.0551 -0.8333  0.9532
 3631THY    HP490760   6.932   3.339   7.531  0.2728  2.4667  0.2830
 3631THY    CP390761   7.262   3.349   7.425  0.4847  0.3517 -0.0688
 3631THY    HP590762   7.253   3.434   7.356 -2.0727  1.0910  1.0535
 3631THY    HP690763   7.359   3.349   7.476  0.3181  1.0854  0.2728
 3631THY    HP790764   7.264   3.253   7.373 -1.4489  0.8849 -1.2472
 3631THY    CA390765   7.179   3.615   7.551  1.2489 -0.6308  0.3572
 3631THY    HA390766   7.168   3.623   7.443 -0.9871  3.3755  0.7138
 3631THY    CA490767   7.195   3.729   7.628 -0.5576 -0.0584  1.0506
 3631THY    HA490768   7.206   3.818   7.567 -3.0429  0.2622  0.9913
 3631THY    CA590769   7.199   3.726   7.763  0.0002  0.0537 -0.2439
 3631THY    CM190770   7.217   3.857   7.839  0.8349  0.1556  0.1841
 3631THY    HM190771   7.318   3.888   7.810  0.8177 -1.7736 -2.2514
 3631THY    HM290772   7.158   3.945   7.811  1.5423  0.2414 -1.1423
 3631THY    HM390773   7.223   3.844   7.948 -1.5207 -0.3672  0.3068
 3631THY    CA690774   7.171   3.603   7.826 -0.0009  0.4163  0.4266
 3631THY    HA690775   7.158   3.603   7.934  0.0648 -1.6684  0.4756
 3632THY      O90776   1.416   1.183   5.136 -0.1689  0.1867  0.6344
 3632THY     HO90777   1.366   1.263   5.115  1.4164  0.5050 -2.4757
 3632THY    CA190778   1.494   1.169   5.022  0.4899  0.1816  0.5559
 3632THY    CA290779   1.526   1.048   4.971  0.2967  0.3383  0.0188
 3632THY    CP190780   1.484   0.911   5.024  0.3119  0.0828 -0.9387
 3632THY    HP190781   1.411   0.923   5.104 -0.1208 -1.8134 -0.9857
 3632THY    CP290782   1.427   0.819   4.909 -0.2668 -0.5062  0.5713
 3632THY    HP290783   1.403   0.716   4.936 -0.8968 -0.7417 -0.7687
 3632THY    HP390784   1.335   0.873   4.881 -1.4680 -1.8772  1.7357
 3632THY    HP490785   1.498   0.819   4.825 -0.6896  0.8158  0.1771
 3632THY    CP390786   1.605   0.840   5.087 -0.3922  0.5508 -0.3810
 3632THY    HP590787   1.567   0.744   5.125  0.1059 -0.3080 -1.9574
 3632THY    HP690788   1.695   0.840   5.025  0.4042 -3.9476  0.4382
 3632THY    HP790789   1.633   0.887   5.181  1.7878  1.0202 -1.2165
 3632THY    CA390790   1.614   1.055   4.856  0.2738 -0.3908  1.0445
 3632THY    HA390791   1.652   0.964   4.811 -1.3219 -0.7135  0.2693
 3632THY    CA490792   1.643   1.179   4.796  0.3010 -0.1351 -0.9224
 3632THY    HA490793   1.715   1.176   4.715  1.6605 -0.7849  0.2533
 3632THY    CA590794   1.599   1.300   4.855  0.0927  0.5906  0.0478
 3632THY    CM190795   1.632   1.435   4.794 -0.4505  0.6286 -0.5590
 3632THY    HM190796   1.646   1.508   4.875 -0.5194 -1.6865  1.6718
 3632THY    HM290797   1.715   1.438   4.723  1.2230 -1.2908  1.1927
 3632THY    HM390798   1.542   1.466   4.740 -0.7135 -1.7814 -1.5995
 3632THY    CA690799   1.525   1.293   4.969  0.3312 -0.6625  0.6191
 3632THY    HA690800   1.491   1.385   5.015 -0.6933  0.0403 -1.3874
 3633THY      O90801   1.024   3.949   6.866  0.5839  0.1282  0.1596
 3633THY     HO90802   0.936   3.985   6.885  0.1858  0.1105 -1.5676
 3633THY    CA190803   1.023   3.909   6.739 -0.7219  0.6384  0.2512
 3633THY    CA290804   1.143   3.898   6.661 -0.1270  0.6364  0.1952
 3633THY    CP190805   1.278   3.938   6.725  0.3133 -0.5608 -0.5048
 3633THY    HP190806   1.282   3.909   6.831 -1.4607  1.0643  0.0757
 3633THY    CP290807   1.399   3.879   6.661  0.1428 -0.3961  0.0243
 3633THY    HP290808   1.396   3.770   6.649  1.3733 -0.3516 -0.9346
 3633THY    HP390809   1.426   3.928   6.567 -1.4768  0.2775 -0.1264
 3633THY    HP490810   1.488   3.897   6.723 -0.3222 -2.0093  1.2435
 3633THY    CP390811   1.291   4.089   6.727  0.2474 -0.1594 -0.4372
 3633THY    HP590812   1.197   4.128   6.767 -0.3721 -2.0421  0.0839
 3633THY    HP690813   1.365   4.132   6.795 -0.7895 -0.6465  1.0642
 3633THY    HP790814   1.307   4.125   6.625 -0.1825  0.1868 -0.3853
 3633THY    CA390815   1.134   3.849   6.527 -0.3196  0.1249  0.6945
 3633THY    HA390816   1.210   3.852   6.449 -1.7962 -1.1466 -0.8933
 3633THY    CA490817   1.007   3.820   6.475 -0.2317 -0.7766  0.0403
 3633THY    HA490818   0.985   3.805   6.369 -1.7459 -1.5467  0.4370
 3633THY    CA590819   0.894   3.825   6.557  0.2300 -0.4493 -0.2792
 3633THY    CM190820   0.754   3.789   6.504 -0.4161 -0.2131 -0.5573
 3633THY    HM190821   0.765   3.681   6.483  1.5047 -0.8256  2.8965
 3633THY    HM290822   0.681   3.803   6.584  1.5358  0.3389  1.2146
 3633THY    HM390823   0.720   3.830   6.409  1.7866  1.3138 -0.7496
 3633THY    CA690824   0.898   3.873   6.687 -0.1147 -0.5631  0.2044
 3633THY    HA690825   0.807   3.894   6.742  0.8126 -0.7134  1.8677
 3634THY      O90826   6.422   0.721   3.020  0.1177 -0.6230 -0.3108
 3634THY     HO90827   6.377   0.690   3.100 -0.7378 -0.5230 -0.7417
 3634THY    CA190828   6.335   0.693   2.919  0.1381  0.0393  0.6973
 3634THY    CA290829   6.373   0.669   2.782 -0.5036  0.0955 -0.4051
 3634THY    CP190830   6.515   0.708   2.733 -0.3267 -0.3570  0.1035
 3634THY    HP190831   6.545   0.784   2.806  0.9686 -0.6197 -0.1279
 3634THY    CP290832   6.621   0.601   2.762  0.3365 -0.1073 -0.2815
 3634THY    HP290833   6.720   0.643   2.744  1.0430 -0.8115  1.6632
 3634THY    HP390834   6.624   0.560   2.864 -0.6635  1.5931  0.4652
 3634THY    HP490835   6.601   0.515   2.696  1.8574  0.5000 -1.5896
 3634THY    CP390836   6.523   0.773   2.596  0.0464 -0.0772 -0.2085
 3634THY    HP590837   6.496   0.691   2.528  1.6145 -0.3579 -0.5229
 3634THY    HP690838   6.446   0.850   2.588 -1.6586 -1.8409 -2.1332
 3634THY    HP790839   6.619   0.818   2.572  1.1369 -3.1593 -2.2026
 3634THY    CA390840   6.273   0.627   2.692  0.1689 -0.2208  0.0295
 3634THY    HA390841   6.302   0.599   2.591  1.9323 -0.7286  0.6406
 3634THY    CA490842   6.139   0.614   2.734 -0.6176  0.0116  0.2862
 3634THY    HA490843   6.068   0.589   2.655  1.5573 -0.0612 -1.7851
 3634THY    CA590844   6.107   0.626   2.873 -0.6217  0.3157  0.0540
 3634THY    CM190845   5.972   0.592   2.930  0.7519  0.1177 -0.4891
 3634THY    HM190846   5.907   0.679   2.948  2.2933  0.9177  1.6599
 3634THY    HM290847   5.914   0.525   2.866  0.3875 -1.3842  1.3265
 3634THY    HM390848   5.979   0.527   3.018  3.2218 -1.0332 -1.4413
 3634THY    CA690849   6.207   0.667   2.964 -0.3069 -0.3842 -0.1149
 3634THY    HA690850   6.182   0.686   3.068  1.8917  3.7872 -0.1216
 3635THY      O90851   4.789   7.777   6.898 -0.1436  0.2271  0.0226
 3635THY     HO90852   4.781   7.721   6.977  1.4200  0.0998  0.1067
 3635THY    CA190853   4.755   7.694   6.792 -0.2765 -0.0828 -0.9779
 3635THY    CA290854   4.744   7.738   6.659 -0.2799  0.2220 -0.2879
 3635THY    CP190855   4.751   7.883   6.624  0.7434  0.3698 -0.5412
 3635THY    HP190856   4.809   7.942   6.696 -0.9379  0.1939  1.0173
 3635THY    CP290857   4.818   7.903   6.488 -0.0875 -0.1830  0.4144
 3635THY    HP290858   4.918   7.859   6.482 -0.4017 -0.9793  0.8380
 3635THY    HP390859   4.763   7.862   6.401 -0.8417  1.7213 -0.0517
 3635THY    HP490860   4.827   8.011   6.471  1.2526 -0.3764 -0.2445
 3635THY    CP390861   4.608   7.936   6.608 -0.3763 -0.0659  0.5263
 3635THY    HP590862   4.543   7.874   6.545 -0.6647  2.0973 -1.4588
 3635THY    HP690863   4.568   7.951   6.708  0.0313  1.1184  0.5313
 3635THY    HP790864   4.609   8.037   6.566  0.9417 -1.0132 -1.9360
 3635THY    CA390865   4.702   7.641   6.564 -1.2710  0.1988 -0.3315
 3635THY    HA390866   4.682   7.667   6.460  0.6611 -1.9906 -1.3464
 3635THY    CA490867   4.692   7.503   6.603  0.1022 -0.3855 -0.2123
 3635THY    HA490868   4.661   7.432   6.527  2.3652 -0.6349 -0.9483
 3635THY    CA590869   4.728   7.463   6.731 -0.0833 -0.0309 -0.0425
 3635THY    CM190870   4.702   7.329   6.773 -0.3283  0.3532 -0.7924
 3635THY    HM190871   4.779   7.301   6.847 -1.8790 -0.4026  0.6032
 3635THY    HM290872   4.608   7.315   6.828  0.3661 -0.5750  0.1896
 3635THY    HM390873   4.708   7.258   6.690 -0.4898 -0.0536 -0.4642
 3635THY    CA690874   4.751   7.561   6.829  0.6685 -0.8786  0.4655
 3635THY    HA690875   4.752   7.528   6.933 -0.7346 -0.2452  0.6943
 3636THY      O90876   3.915   3.188   6.953  0.9032  0.0038  0.8030
 3636THY     HO90877   4.008   3.191   6.927  0.2901  0.7052 -1.5638
 3636THY    CA190878   3.900   3.067   6.997  0.2963  0.7034 -0.1117
 3636THY    CA290879   3.783   2.994   7.015  0.4362 -1.0631 -0.3194
 3636THY    CP190880   3.653   3.070   6.969  0.1207 -0.3292  0.1632
 3636THY    HP190881   3.664   3.179   6.975 -0.3673 -0.0012 -2.9981
 3636THY    CP290882   3.621   3.060   6.823  0.5342 -0.0255 -0.0820
 3636THY    HP290883   3.642   2.956   6.794  2.2351  0.2115  0.1520
 3636THY    HP390884   3.515   3.084   6.818  0.0314 -1.2472  2.8709
 3636THY    HP490885   3.688   3.135   6.779 -0.9572  2.6028  1.8505
 3636THY    CP390886   3.529   3.024   7.049  0.2795 -0.3812  0.2945
 3636THY    HP590887   3.502   2.921   7.024  1.3350 -0.4524 -0.6556
 3636THY    HP690888   3.553   3.031   7.156 -0.6548 -0.3273  0.5031
 3636THY    HP790889   3.440   3.087   7.039 -0.7846 -1.7802  0.7628
 3636THY    CA390890   3.788   2.860   7.066  1.0435  0.5594  0.4017
 3636THY    HA390891   3.699   2.801   7.080  3.0813 -2.5697  1.0605
 3636THY    CA490892   3.909   2.806   7.104  0.1690 -0.1588  1.0854
 3636THY    HA490893   3.924   2.705   7.140 -0.5161 -0.6486  0.0344
 3636THY    CA590894   4.028   2.876   7.075 -0.4531 -0.7574 -0.4610
 3636THY    CM190895   4.161   2.810   7.114 -0.1558  0.2996  0.0362
 3636THY    HM190896   4.207   2.742   7.042 -0.2128 -0.0225  0.2994
 3636THY    HM290897   4.242   2.884   7.124  0.5965 -0.1371 -2.2972
 3636THY    HM390898   4.157   2.753   7.208  1.1675  0.9992  0.5468
 3636THY    CA690899   4.021   3.006   7.024  0.1345  0.5690 -0.0449
 3636THY    HA690900   4.116   3.046   6.990  0.5345 -0.7798 -0.5510
 3637THY      O90901   1.680   9.488   0.474 -0.1011 -0.2558 -0.1066
 3637THY     HO90902   1.607   9.428   0.499 -0.0004  0.8386  3.3984
 3637THY    CA190903   1.651   9.602   0.541  0.3398 -0.3486  0.1142
 3637THY    CA290904   1.725   9.722   0.532  0.0722 -0.1961 -0.0354
 3637THY    CP190905   1.839   9.742   0.424  0.4731  0.2149 -0.9188
 3637THY    HP190906   1.795   9.683   0.343 -1.3379  0.0637  0.1297
 3637THY    CP290907   1.836   9.879   0.364 -0.0693  0.0629 -0.5512
 3637THY    HP290908   1.857   9.945   0.449 -0.8711  1.7729 -1.6003
 3637THY    HP390909   1.923   9.895   0.300 -0.9156  0.0958 -1.7332
 3637THY    HP490910   1.736   9.907   0.326 -0.5599  0.8218  1.1800
 3637THY    CP390911   1.981   9.699   0.476 -0.2914  0.1487  0.0065
 3637THY    HP590912   1.989   9.760   0.567  1.0375  1.6918 -1.0848
 3637THY    HP690913   1.986   9.594   0.507 -2.1390  0.1823  0.4975
 3637THY    HP790914   2.061   9.731   0.408 -0.4781  2.6067  0.8538
 3637THY    CA390915   1.681   9.823   0.616 -0.5296 -0.0984  0.2111
 3637THY    HA390916   1.726   9.921   0.615  1.1509 -0.8439 -1.1540
 3637THY    CA490917   1.580   9.802   0.713  0.3890  0.1335  0.3054
 3637THY    HA490918   1.544   9.887   0.769 -0.9749  1.8051 -2.8722
 3637THY    CA590919   1.523   9.673   0.723  0.3654 -0.7122 -0.0965
 3637THY    CM190920   1.417   9.632   0.820  0.2952 -0.8058 -0.3777
 3637THY    HM190921   1.387   9.719   0.878 -0.0788 -0.7461 -0.6625
 3637THY    HM290922   1.331   9.594   0.764 -0.5547 -0.9785  1.0252
 3637THY    HM390923   1.457   9.559   0.891  1.2582 -1.1577 -1.2456
 3637THY    CA690924   1.563   9.575   0.634 -0.4698  0.0068 -0.3864
 3637THY    HA690925   1.519   9.476   0.642 -0.0564 -0.1625 -0.2084
 3638THY      O90926   1.674   3.985   5.971 -0.4933  0.3780  1.1591
 3638THY     HO90927   1.760   4.025   5.991  0.3642  0.6223 -2.3808
 3638THY    CA190928   1.650   3.924   6.087 -0.1288  0.3380  0.3129
 3638THY    CA290929   1.515   3.907   6.141 -0.0869 -0.1575 -0.9097
 3638THY    CP190930   1.386   3.956   6.073  0.2471 -0.3140  0.2462
 3638THY    HP190931   1.417   3.969   5.968  1.8548 -0.6628  0.6530
 3638THY    CP290932   1.267   3.862   6.074 -0.3169  1.1917  0.2372
 3638THY    HP290933   1.194   3.882   6.153 -0.1405 -1.2028  1.0809
 3638THY    HP390934   1.217   3.860   5.976  1.7535 -1.9102 -0.8944
 3638THY    HP490935   1.299   3.758   6.079 -0.0849  1.1954 -0.9071
 3638THY    CP390936   1.350   4.097   6.126  0.0005 -0.0002  0.0399
 3638THY    HP590937   1.436   4.163   6.112  0.0224 -0.0355  0.0096
 3638THY    HP690938   1.257   4.130   6.078 -0.1235  2.6579  1.8731
 3638THY    HP790939   1.328   4.090   6.234  0.7115 -1.9387  0.0959
 3638THY    CA390940   1.497   3.849   6.268  0.1132  0.9439 -0.3122
 3638THY    HA390941   1.395   3.826   6.297 -0.6031  2.1991 -1.7480
 3638THY    CA490942   1.610   3.812   6.345  0.4996  0.7220  0.0620
 3638THY    HA490943   1.594   3.755   6.436 -0.6081  0.1868 -0.4429
 3638THY    CA590944   1.740   3.841   6.299  0.0195 -0.2081  0.6096
 3638THY    CM190945   1.851   3.790   6.375 -0.2888 -0.4243  0.0972
 3638THY    HM190946   1.934   3.857   6.353 -1.5502  1.9407  2.0450
 3638THY    HM290947   1.839   3.805   6.483  0.5247  1.7983 -0.0879
 3638THY    HM390948   1.869   3.683   6.359 -2.9785 -0.6584 -2.2073
 3638THY    CA690949   1.761   3.892   6.172  1.0523 -0.4824  0.8858
 3638THY    HA690950   1.862   3.905   6.134  1.5129 -2.5014  1.2712
 3639THY      O90951   4.059   0.722   8.647  0.0129  0.8914 -0.5315
 3639THY     HO90952   4.002   0.787   8.603  0.8315  1.5717 -0.6245
 3639THY    CA190953   3.983   0.614   8.663 -0.7515  0.1972 -0.5716
 3639THY    CA290954   4.010   0.518   8.761 -0.2961 -0.6487  0.2333
 3639THY    CP190955   4.121   0.536   8.869  0.4623  0.1662 -0.2800
 3639THY    HP190956   4.180   0.623   8.841 -1.7118  1.9250  0.2603
 3639THY    CP290957   4.052   0.580   8.998  0.0182  0.6403  0.1074
 3639THY    HP290958   3.988   0.665   8.970  1.4007  1.8467  0.4752
 3639THY    HP390959   3.980   0.503   9.030  1.9866 -0.5842  1.7994
 3639THY    HP490960   4.118   0.609   9.080 -1.3746  0.2286  1.4156
 3639THY    CP390961   4.212   0.412   8.886 -0.5407 -0.3965  0.0064
 3639THY    HP590962   4.306   0.426   8.940 -1.3376  1.2409  1.0616
 3639THY    HP690963   4.146   0.354   8.950 -0.6390 -0.9852 -0.6261
 3639THY    HP790964   4.241   0.362   8.792 -3.1352 -0.0845 -1.0541
 3639THY    CA390965   3.920   0.410   8.768 -0.2451  0.0212  0.2249
 3639THY    HA390966   3.943   0.335   8.843 -0.0328  1.0834  1.2381
 3639THY    CA490967   3.812   0.394   8.681 -1.0900 -0.5252  0.2107
 3639THY    HA490968   3.747   0.308   8.688 -1.6734 -0.0110  1.2655
 3639THY    CA590969   3.793   0.493   8.585  0.2135  0.5347 -0.3881
 3639THY    CM190970   3.688   0.481   8.485  0.3826 -0.5017  0.2178
 3639THY    HM190971   3.730   0.419   8.405  0.9433  0.4707 -0.2658
 3639THY    HM290972   3.595   0.431   8.511  0.5361 -0.7266  0.3277
 3639THY    HM390973   3.655   0.580   8.448  1.0859 -0.1816  0.4353
 3639THY    CA690974   3.877   0.605   8.583 -0.2692 -0.4639  1.1661
 3639THY    HA690975   3.850   0.681   8.511  0.5369 -1.9176 -0.7412
 3640THY      O90976   2.505   4.551   8.987 -0.0626  0.3174 -0.5548
 3640THY     HO90977   2.430   4.613   8.982 -0.4172 -0.0019  0.4987
 3640THY    CA190978   2.602   4.625   9.044 -0.4249 -0.6912 -0.5183
 3640THY    CA290979   2.738   4.583   9.056 -1.0618 -0.5038 -0.1879
 3640THY    CP190980   2.785   4.445   9.004 -0.2084  0.6685  0.3617
 3640THY    HP190981   2.699   4.377   9.005 -0.9934  1.5905 -0.9782
 3640THY    CP290982   2.830   4.460   8.857  0.1639  0.9236  0.6498
 3640THY    HP290983   2.890   4.552   8.848  0.4633  0.8827  1.9937
 3640THY    HP390984   2.873   4.370   8.811  1.1372  1.6651  0.0586
 3640THY    HP490985   2.738   4.486   8.804 -1.8414 -0.7533  3.0904
 3640THY    CP390986   2.893   4.390   9.092 -0.1053  0.0629  0.4149
 3640THY    HP590987   2.902   4.281   9.086  0.1079  0.0488  0.9749
 3640THY    HP690988   2.987   4.443   9.073 -0.1648 -0.3219 -1.0682
 3640THY    HP790989   2.880   4.407   9.199 -0.9698 -1.2836  0.5443
 3640THY    CA390990   2.824   4.664   9.130  0.0225 -0.4803 -0.3585
 3640THY    HA390991   2.921   4.639   9.171 -0.7517  0.0661  1.9376
 3640THY    CA490992   2.777   4.792   9.172  0.7191 -0.5185  1.1548
 3640THY    HA490993   2.841   4.862   9.224 -1.1885  1.6297  0.7334
 3640THY    CA590994   2.643   4.833   9.163  0.1829  0.1871  0.4470
 3640THY    CM190995   2.601   4.962   9.229 -0.4494 -0.3129  0.1182
 3640THY    HM190996   2.605   5.052   9.167  1.0386  0.7581  1.6578
 3640THY    HM290997   2.507   4.950   9.284  0.7123 -0.8971  2.0961
 3640THY    HM390998   2.679   4.985   9.302  2.0624  0.0543 -2.5047
 3640THY    CA690999   2.556   4.753   9.089  0.1875 -0.2609  0.8079
 3640THY    HA691000   2.456   4.791   9.074  0.2387 -0.9156 -1.5919
 3641THY      O91001   6.935   8.030   8.687  0.0664  0.6212 -0.3830
 3641THY     HO91002   6.998   8.086   8.639  0.5123 -0.0457 -0.5891
 3641THY    CA191003   6.895   8.126   8.778  0.8942 -0.4486  0.0469
 3641THY    CA291004   6.830   8.088   8.898 -0.1008  0.0680 -0.2395
 3641THY    CP191005   6.819   7.943   8.956 -0.1601  0.5487  1.2268
 3641THY    HP191006   6.866   7.880   8.879 -1.6401 -0.2259  0.9071
 3641THY    CP291007   6.889   7.918   9.083  0.0213 -0.2777 -0.8162
 3641THY    HP291008   6.862   7.817   9.117 -0.8589  0.0203 -0.6151
 3641THY    HP391009   6.994   7.927   9.052 -0.0905  0.8508 -0.8860
 3641THY    HP491010   6.867   7.985   9.166  0.2068 -0.1542 -0.8664
 3641THY    CP391011   6.673   7.898   8.960 -0.1591 -0.0460 -0.1489
 3641THY    HP591012   6.621   7.966   9.029  1.1374 -0.6841  1.5336
 3641THY    HP691013   6.623   7.920   8.865 -0.9677  1.3351  0.5655
 3641THY    HP791014   6.658   7.794   8.991  0.3003  0.3346  1.4723
 3641THY    CA391015   6.775   8.195   8.979 -0.2506  0.5385  0.1532
 3641THY    HA391016   6.725   8.167   9.071 -0.1301 -1.6853 -0.4112
 3641THY    CA491017   6.771   8.330   8.928 -0.5954 -0.2783  0.4321
 3641THY    HA491018   6.719   8.407   8.984 -2.0330  0.7651 -2.1557
 3641THY    CA591019   6.838   8.359   8.808 -0.0794  0.1265  0.2905
 3641THY    CM191020   6.857   8.500   8.754 -0.3025 -0.1805  0.4074
 3641THY    HM191021   6.964   8.521   8.764  0.6127 -4.3097  0.9033
 3641THY    HM291022   6.829   8.503   8.648  1.9849 -2.1066 -0.3324
 3641THY    HM391023   6.787   8.571   8.800 -2.0765  0.9573 -3.5658
 3641THY    CA691024   6.900   8.258   8.736  0.7099  0.0178  0.6699
 3641THY    HA691025   6.943   8.285   8.641 -0.1153  0.5754  0.4476
 3642THY      O91026   1.857   7.396   7.987  0.2027  0.5766 -0.5948
 3642THY     HO91027   1.873   7.419   8.080  4.5528 -0.4070 -0.8624
 3642THY    CA191028   1.729   7.360   7.964 -0.0464  0.6055  0.5366
 3642THY    CA291029   1.684   7.315   7.835  0.4279  0.1149 -0.2008
 3642THY    CP191030   1.775   7.323   7.713 -0.0733  0.3003  0.0163
 3642THY    HP191031   1.861   7.389   7.725  0.7025 -0.3000 -1.9051
 3642THY    CP291032   1.825   7.181   7.672 -0.5303  0.0420  0.1927
 3642THY    HP291033   1.748   7.121   7.623  0.2397 -0.6131 -0.2374
 3642THY    HP391034   1.906   7.179   7.599 -1.9979  1.3597 -1.5685
 3642THY    HP491035   1.866   7.121   7.754 -0.1628  0.2042  0.1271
 3642THY    CP391036   1.724   7.391   7.588 -0.3548  0.2520  0.5036
 3642THY    HP591037   1.798   7.391   7.508  0.3109  2.0469  1.0803
 3642THY    HP691038   1.637   7.333   7.556  0.2510 -0.9818  1.0104
 3642THY    HP791039   1.687   7.490   7.618  0.6014  0.4605  1.0254
 3642THY    CA391040   1.549   7.263   7.822 -0.6871 -0.3158  0.1073
 3642THY    HA391041   1.520   7.235   7.721  2.2029  0.6463 -1.0739
 3642THY    CA491042   1.457   7.275   7.932  0.9218  0.0263 -0.0675
 3642THY    HA491043   1.354   7.253   7.905  0.7031 -1.4180  1.7790
 3642THY    CA591044   1.504   7.325   8.050  0.3404 -0.1079 -0.0859
 3642THY    CM191045   1.402   7.324   8.165 -0.1299  0.1963  0.3333
 3642THY    HM191046   1.337   7.412   8.161 -0.5551 -0.1819 -1.9930
 3642THY    HM291047   1.341   7.232   8.164 -1.7111  1.2210 -0.0654
 3642THY    HM391048   1.458   7.325   8.259  0.7060  0.1261 -0.1593
 3642THY    CA691049   1.640   7.356   8.074 -0.5648 -0.4034  1.2109
 3642THY    HA691050   1.672   7.384   8.174 -0.8348 -0.1053  1.2149
 3643THY      O91051   9.756   3.584   7.973 -0.1400 -0.3007  0.1892
 3643THY     HO91052   9.778   3.644   7.900 -0.5907  0.3096  0.5433
 3643THY    CA191053   9.654   3.626   8.044  0.2570  0.3603 -0.3684
 3643THY    CA291054   9.609   3.557   8.163 -0.7490 -0.7222  0.3865
 3643THY    CP191055   9.670   3.417   8.198  0.1123  0.0401 -0.6269
 3643THY    HP191056   9.772   3.403   8.161  0.6535 -0.8943  1.1713
 3643THY    CP291057   9.684   3.396   8.350  0.4142 -0.2156 -0.3120
 3643THY    HP291058   9.598   3.351   8.400 -1.0081  0.6476 -1.8759
 3643THY    HP391059   9.776   3.340   8.368  1.9143  1.5430 -2.0290
 3643THY    HP491060   9.708   3.485   8.409 -1.4714  0.2151 -0.1341
 3643THY    CP391061   9.584   3.299   8.146  0.4450  0.3405  0.2703
 3643THY    HP591062   9.484   3.287   8.188 -0.6658 -2.6704 -2.7791
 3643THY    HP691063   9.566   3.301   8.038  1.7391  1.4191  0.0482
 3643THY    HP791064   9.634   3.203   8.167  0.7721  0.4287 -0.0944
 3643THY    CA391065   9.494   3.604   8.232 -0.3235  0.5888 -0.2377
 3643THY    HA391066   9.463   3.556   8.325  0.5693 -1.3782 -0.9095
 3643THY    CA491067   9.437   3.726   8.195 -0.5162 -0.4570 -0.3050
 3643THY    HA491068   9.373   3.778   8.266 -0.4732 -0.1927 -0.4597
 3643THY    CA591069   9.488   3.800   8.090 -0.1799 -0.1342  0.3257
 3643THY    CM191070   9.443   3.942   8.057  0.7644 -0.3917  0.6987
 3643THY    HM191071   9.478   3.956   7.954 -0.0757 -0.3952  0.4117
 3643THY    HM291072   9.335   3.947   8.069  0.9571  1.3021  2.1362
 3643THY    HM391073   9.484   4.019   8.123 -1.3248 -1.3427  3.2618
 3643THY    CA691074   9.589   3.749   8.007  0.4765  1.3630 -0.4565
 3643THY    HA691075   9.618   3.798   7.914  1.2025  0.1640 -0.8866
 3644THY      O91076   8.302   6.875   7.583 -0.1902 -0.4697  0.3247
 3644THY     HO91077   8.350   6.876   7.498  0.4942  1.0541  0.6846
 3644THY    CA191078   8.191   6.943   7.580  0.7730 -0.2330 -0.1355
 3644THY    CA291079   8.076   6.915   7.662 -0.6100  0.0584  0.5548
 3644THY    CP191080   8.080   6.795   7.761 -0.2503  0.1342 -0.2410
 3644THY    HP191081   8.168   6.731   7.755 -0.9220 -0.7775 -0.5011
 3644THY    CP291082   8.065   6.835   7.906  0.8409  0.0840 -0.2232
 3644THY    HP291083   8.142   6.908   7.933  1.5126 -0.4214 -0.7392
 3644THY    HP391084   7.963   6.872   7.920  0.6492 -0.4778 -0.1051
 3644THY    HP491085   8.067   6.742   7.965  0.0167 -0.7568 -1.4543
 3644THY    CP391086   7.973   6.686   7.726 -0.1101 -0.7223 -0.0453
 3644THY    HP591087   7.878   6.737   7.708  0.6875  0.3709 -1.3927
 3644THY    HP691088   8.000   6.661   7.623  1.4942 -0.2529  0.2367
 3644THY    HP791089   7.966   6.592   7.783  0.1292 -0.6156  0.1636
 3644THY    CA391090   7.961   6.994   7.649 -0.1666  0.4210 -0.0470
 3644THY    HA391091   7.873   6.984   7.712  0.5605  0.2574  0.9709
 3644THY    CA491092   7.967   7.106   7.563 -0.2086  0.9793 -0.5290
 3644THY    HA491093   7.876   7.163   7.548 -2.2152 -2.1633 -1.4275
 3644THY    CA591094   8.084   7.132   7.487  0.1330 -0.5185 -0.6308
 3644THY    CM191095   8.087   7.246   7.392 -0.2575  0.0287  0.1749
 3644THY    HM191096   7.994   7.303   7.400  0.3172  0.8367  1.2698
 3644THY    HM291097   8.171   7.306   7.427  0.4931 -1.4739  1.0474
 3644THY    HM391098   8.106   7.210   7.290  0.5713 -1.7705  0.9079
 3644THY    CA691099   8.192   7.049   7.496  0.0435  0.0339 -0.0532
 3644THY    HA691100   8.280   7.065   7.434 -0.9458  1.9806 -1.0484
 3645THY      O91101   4.623   6.036   3.489  0.0582 -0.7418 -0.0431
 3645THY     HO91102   4.713   6.069   3.472  0.3535 -1.8814 -0.7562
 3645THY    CA191103   4.569   6.041   3.366 -0.6358  0.0654  0.5893
 3645THY    CA291104   4.434   6.021   3.338 -0.5982  0.6291 -0.8460
 3645THY    CP191105   4.343   5.990   3.456 -0.2425  0.1091 -0.1336
 3645THY    HP191106   4.402   5.933   3.529 -2.3856 -1.1886  0.6872
 3645THY    CP291107   4.297   6.113   3.529  0.6982 -0.6425  0.2214
 3645THY    HP291108   4.383   6.146   3.588  0.1127 -1.2712  1.4649
 3645THY    HP391109   4.262   6.179   3.449  0.1002 -2.3718 -1.0178
 3645THY    HP491110   4.220   6.095   3.605  0.7135  0.6592  0.5664
 3645THY    CP391111   4.215   5.909   3.415 -0.5807  0.3712  0.5476
 3645THY    HP591112   4.138   5.975   3.372  1.0184  0.6889 -2.0268
 3645THY    HP691113   4.249   5.823   3.356  0.0919  0.3665  0.9271
 3645THY    HP791114   4.162   5.873   3.503  0.0944  0.3565  0.9570
 3645THY    CA391115   4.376   6.047   3.212 -0.4748  0.1668  0.8092
 3645THY    HA391116   4.270   6.041   3.190 -0.3053  0.2915 -0.0739
 3645THY    CA491117   4.463   6.097   3.112 -0.4532  0.1074  0.1706
 3645THY    HA491118   4.433   6.111   3.008  0.7241 -1.3971 -0.4206
 3645THY    CA591119   4.603   6.103   3.133 -0.2942 -0.0802  0.0662
 3645THY    CM191120   4.697   6.123   3.015 -0.2791  0.5009 -0.1927
 3645THY    HM191121   4.657   6.183   2.933 -2.6591 -2.0593 -1.0704
 3645THY    HM291122   4.797   6.158   3.044 -0.0753 -0.3337  0.1730
 3645THY    HM391123   4.702   6.025   2.965  0.2340 -0.2670  1.2835
 3645THY    CA691124   4.646   6.083   3.258 -1.1923  0.0348 -0.5384
 3645THY    HA691125   4.754   6.087   3.274 -1.3057 -0.1264  0.3147
 3646THY      O91126   4.587   8.377   0.625  0.1834 -0.3457 -0.1066
 3646THY     HO91127   4.620   8.353   0.537  1.2756 -1.5186  0.5827
 3646THY    CA191128   4.699   8.372   0.703  0.7067  0.6907  0.1229
 3646THY    CA291129   4.689   8.345   0.844 -0.7844 -0.5524 -0.1870
 3646THY    CP191130   4.548   8.338   0.914 -0.1466 -0.4955 -0.0215
 3646THY    HP191131   4.467   8.333   0.839  0.9790  3.3148 -1.7165
 3646THY    CP291132   4.531   8.201   0.991  0.1914  0.4969 -0.4605
 3646THY    HP291133   4.550   8.113   0.929  2.9084 -0.5707  1.6594
 3646THY    HP391134   4.612   8.190   1.065  0.9009 -0.7423 -1.3827
 3646THY    HP491135   4.433   8.205   1.040 -0.0264  3.2064 -0.9900
 3646THY    CP391136   4.506   8.458   1.012 -0.5736 -0.6713  0.0086
 3646THY    HP591137   4.417   8.437   1.073 -1.1125  0.5680 -0.3179
 3646THY    HP691138   4.581   8.474   1.090 -1.4064 -0.1847  0.7368
 3646THY    HP791139   4.483   8.555   0.966 -1.0802 -0.1755  1.2357
 3646THY    CA391140   4.812   8.342   0.927 -0.0057  0.0870  0.8109
 3646THY    HA391141   4.802   8.336   1.035 -1.1471  0.1747  0.7195
 3646THY    CA491142   4.933   8.350   0.857  0.7085  0.4147 -0.7454
 3646THY    HA491143   5.026   8.344   0.913  1.0158  1.2309 -1.1537
 3646THY    CA591144   4.930   8.382   0.718  0.4358  0.0895 -0.9409
 3646THY    CM191145   5.064   8.394   0.657 -0.0985  0.5577 -0.5473
 3646THY    HM191146   5.127   8.433   0.738 -0.8516 -1.1490  0.9039
 3646THY    HM291147   5.099   8.295   0.627  0.8161  0.2889  1.2697
 3646THY    HM391148   5.078   8.464   0.573  0.4621  1.6980  0.4507
 3646THY    CA691149   4.819   8.384   0.641  0.1210 -0.0138  0.1136
 3646THY    HA691150   4.826   8.392   0.533  0.1886  3.1558  0.2561
 3647THY      O91151   4.639   7.989   7.009  0.6149  0.1635 -0.0112
 3647THY     HO91152   4.696   7.921   6.970  0.8723  0.0270  0.5929
 3647THY    CA191153   4.715   8.064   7.083  0.6884 -0.0482 -0.2106
 3647THY    CA291154   4.686   8.075   7.221  0.3097  0.0274 -0.1930
 3647THY    CP191155   4.569   7.995   7.291 -0.5930  0.3069 -0.3739
 3647THY    HP191156   4.540   7.906   7.234  3.2526 -1.7378  0.5050
 3647THY    CP291157   4.621   7.940   7.439  0.1861 -0.1728  0.6130
 3647THY    HP291158   4.565   7.853   7.473  1.0178 -1.4798 -1.1571
 3647THY    HP391159   4.717   7.888   7.431 -0.1214 -0.5827 -0.9019
 3647THY    HP491160   4.631   8.019   7.514 -1.7083  1.2456 -0.5285
 3647THY    CP391161   4.451   8.091   7.326  0.1098 -0.5566 -0.3741
 3647THY    HP591162   4.365   8.026   7.346 -1.4515  2.0785  2.2147
 3647THY    HP691163   4.469   8.155   7.413  0.7769 -0.0417 -0.8787
 3647THY    HP791164   4.430   8.155   7.239 -0.6545 -1.6383 -1.0175
 3647THY    CA391165   4.772   8.148   7.306  0.5797 -0.1987  0.5925
 3647THY    HA391166   4.758   8.160   7.413  1.4466  1.8490  0.5267
 3647THY    CA491167   4.880   8.218   7.245 -0.0375  0.3083 -0.0164
 3647THY    HA491168   4.946   8.270   7.313 -1.9362 -0.3588  2.5384
 3647THY    CA591169   4.907   8.198   7.106 -0.4108  0.9278  0.4101
 3647THY    CM191170   5.022   8.275   7.035  0.5692 -0.1309  0.0150
 3647THY    HM191171   5.068   8.216   6.954 -2.1254 -1.0604 -0.9654
 3647THY    HM291172   4.988   8.367   6.988  0.3152  0.0179  0.4895
 3647THY    HM391173   5.103   8.298   7.105  0.5160 -1.6318  0.6214
 3647THY    CA691174   4.831   8.111   7.030  0.0837 -0.6943  0.6583
 3647THY    HA691175   4.844   8.104   6.922  0.7267  0.1588  0.6674
 3648THY      O91176   1.029   4.058   4.881 -0.1640 -0.6921 -0.3031
 3648THY     HO91177   0.935   4.055   4.856 -0.0579  0.5393 -0.9111
 3648THY    CA191178   1.099   4.014   4.780 -0.7676  0.3471  0.4571
 3648THY    CA291179   1.236   3.993   4.780  0.4106  0.2285 -0.2585
 3648THY    CP191180   1.322   4.056   4.888 -0.3916 -0.0946 -0.6133
 3648THY    HP191181   1.264   4.110   4.964 -1.4717 -2.5338  0.4432
 3648THY    CP291182   1.395   3.950   4.979  0.3662  0.1392 -0.2203
 3648THY    HP291183   1.346   3.951   5.077 -0.0315  0.2775 -0.4156
 3648THY    HP391184   1.380   3.850   4.938 -0.4553  0.0129  0.3591
 3648THY    HP491185   1.501   3.976   4.992  1.3353 -1.7362 -3.3294
 3648THY    CP391186   1.420   4.155   4.826  0.0860 -0.3955  0.1710
 3648THY    HP591187   1.499   4.175   4.899  2.6425 -1.0131 -2.2697
 3648THY    HP691188   1.463   4.135   4.727  1.5492  0.4062  0.6166
 3648THY    HP791189   1.366   4.250   4.817 -0.7149 -1.0152 -2.3048
 3648THY    CA391190   1.298   3.919   4.674  0.3207  1.3023  0.3968
 3648THY    HA391191   1.406   3.904   4.674  0.1516 -0.0656  0.5071
 3648THY    CA491192   1.218   3.860   4.568 -0.2898  0.2050 -0.8887
 3648THY    HA491193   1.250   3.791   4.490 -1.8066  0.6467 -1.9686
 3648THY    CA591194   1.082   3.888   4.569  0.1464 -0.2951  0.5721
 3648THY    CM191195   0.988   3.826   4.465  0.3265  0.4873  0.6530
 3648THY    HM191196   0.994   3.889   4.376  2.4355 -0.9884 -0.3263
 3648THY    HM291197   1.036   3.735   4.426  0.6336 -0.2678  2.6719
 3648THY    HM391198   0.887   3.795   4.494  0.8178  0.4554  2.5044
 3648THY    CA691199   1.024   3.963   4.672 -0.5929  0.3003  0.2196
 3648THY    HA691200   0.918   3.988   4.672 -0.5009  0.7810 -1.3369
 3649THY      O91201   5.958   7.477   9.837  0.5389 -0.3324 -0.3455
 3649THY     HO91202   5.885   7.446   9.781 -2.1089 -1.2755  3.2355
 3649THY    CA191203   5.903   7.459   9.967 -0.4748  0.6486 -0.3895
 3649THY    CA291204   5.892   7.568  10.059 -0.1737  0.8769 -0.7213
 3649THY    CP191205   5.954   7.707  10.041 -0.6805  0.0216 -0.5211
 3649THY    HP191206   6.006   7.713   9.945  0.6035  1.2456  0.2158
 3649THY    CP291207   5.858   7.831  10.057 -0.5125  0.6488 -0.2772
 3649THY    HP291208   5.786   7.847   9.976 -0.3837 -2.1165 -1.0674
 3649THY    HP391209   5.805   7.831  10.153  2.7484 -1.3559  1.7296
 3649THY    HP491210   5.918   7.921  10.068  1.7154 -0.8603  0.6885
 3649THY    CP391211   6.068   7.721  10.150  0.2331  0.2180  0.3164
 3649THY    HP591212   6.127   7.812  10.135  2.8249 -1.1255  1.6429
 3649THY    HP691213   6.040   7.722  10.255 -1.7074  0.6970 -0.1678
 3649THY    HP791214   6.144   7.644  10.130 -1.1940 -0.8515 -1.3366
 3649THY    CA391215   5.824   7.546  10.182 -0.0896 -0.0182 -0.0846
 3649THY    HA391216   5.818   7.622  10.260 -0.0818 -1.3271  1.2559
 3649THY    CA491217   5.780   7.417  10.213 -0.8656 -0.5733 -0.2937
 3649THY    HA491218   5.736   7.393  10.310 -1.1921 -1.0224 -0.5514
 3649THY    CA591219   5.805   7.311  10.133  0.6541 -0.4401  0.3125
 3649THY    CM191220   5.755   7.170  10.181 -0.4146 -0.3284 -0.2224
 3649THY    HM191221   5.840   7.129  10.237  0.9945  2.3150 -0.3062
 3649THY    HM291222   5.666   7.176  10.245 -0.1695  0.7064  0.0364
 3649THY    HM391223   5.738   7.106  10.093 -2.9668 -2.2061  1.4657
 3649THY    CA691224   5.853   7.329  10.007  0.1101 -0.4574  0.1553
 3649THY    HA691225   5.860   7.242   9.943  3.5270 -0.0340 -0.2521
 3650THY      O91226   0.146   7.777   4.025 -0.2684 -0.1787 -0.2381
 3650THY     HO91227   0.235   7.743   4.002  0.7890  1.8686  0.5888
 3650THY    CA191228   0.176   7.911   4.037  0.2735  0.4716  0.5191
 3650THY    CA291229   0.078   8.008   4.055  0.1958  0.4778  0.0404
 3650THY    CP191230  -0.072   7.973   4.031  0.1562  0.4114 -0.3191
 3650THY    HP191231  -0.087   7.882   3.972 -0.7663 -0.6317  1.4176
 3650THY    CP291232  -0.134   7.939   4.164 -0.4258 -0.0531 -0.6104
 3650THY    HP291233  -0.133   8.026   4.231 -0.2011  0.8547 -1.7607
 3650THY    HP391234  -0.236   7.901   4.155  0.1639 -2.0099  0.3794
 3650THY    HP491235  -0.070   7.862   4.209 -0.8368 -0.4096 -0.6336
 3650THY    CP391236  -0.165   8.083   3.967  0.3734  0.0831 -0.0259
 3650THY    HP591237  -0.244   8.033   3.910  3.0501 -0.9339 -3.1612
 3650THY    HP691238  -0.183   8.156   4.047  0.9679 -1.2852  1.4160
 3650THY    HP791239  -0.114   8.122   3.879 -0.9304  0.3403 -0.6914
 3650THY    CA391240   0.122   8.135   4.101  0.2147  0.9131  0.2756
 3650THY    HA391241   0.043   8.206   4.124 -2.7658 -2.1079  0.1141
 3650THY    CA491242   0.261   8.166   4.116  0.6504 -0.0502 -0.2674
 3650THY    HA491243   0.296   8.247   4.179  0.2027 -0.5915  0.7240
 3650THY    CA591244   0.352   8.063   4.097 -0.0884 -0.5008 -1.1311
 3650THY    CM191245   0.499   8.087   4.126 -0.7812  0.0239  0.3553
 3650THY    HM191246   0.564   8.035   4.054 -2.0554 -1.7157  0.4244
 3650THY    HM291247   0.525   8.193   4.114 -0.4128 -0.1381 -0.3430
 3650THY    HM391248   0.522   8.059   4.229  0.9596  1.5153  0.4383
 3650THY    CA691249   0.308   7.937   4.052 -0.5992  0.0562 -0.2817
 3650THY    HA691250   0.377   7.854   4.037 -0.2025  0.0406  1.4572
 3651THY      O91251   8.281   1.608   8.193 -0.3411 -1.0437  0.0699
 3651THY     HO91252   8.260   1.559   8.275 -0.8972 -1.0965 -0.0961
 3651THY    CA191253   8.409   1.591   8.187  0.1624  0.0154 -0.1211
 3651THY    CA291254   8.491   1.653   8.097  0.0563 -0.4888 -0.3213
 3651THY    CP191255   8.439   1.737   7.980  0.2381  0.6591 -0.2806
 3651THY    HP191256   8.330   1.739   7.988  0.1284  0.5964 -1.6171
 3651THY    CP291257   8.495   1.886   7.985  0.4948  0.1117 -0.4318
 3651THY    HP291258   8.483   1.938   8.081 -0.7379 -0.9196  0.0082
 3651THY    HP391259   8.599   1.902   7.953  0.4330  2.4613  0.3770
 3651THY    HP491260   8.433   1.945   7.916 -0.4901  0.0807  0.3973
 3651THY    CP391261   8.478   1.670   7.849 -0.0289  0.1284  0.4180
 3651THY    HP591262   8.429   1.574   7.830  0.7673 -0.9064  3.0851
 3651THY    HP691263   8.445   1.731   7.765  0.3936 -3.3510 -2.5068
 3651THY    HP791264   8.586   1.663   7.828  0.2587  1.8238  1.1809
 3651THY    CA391265   8.636   1.639   8.109  0.5684  0.2110  0.0106
 3651THY    HA391266   8.705   1.670   8.030  1.2092 -1.1569  0.0015
 3651THY    CA491267   8.683   1.564   8.211 -0.5125  0.4906  0.2906
 3651THY    HA491268   8.791   1.554   8.213 -0.5537 -0.0179  0.2108
 3651THY    CA591269   8.594   1.489   8.293  0.3466 -0.0539 -0.2342
 3651THY    CM191270   8.641   1.382   8.397 -0.3242 -0.1326 -0.0685
 3651THY    HM191271   8.748   1.363   8.385 -0.4221 -0.9067  0.2208
 3651THY    HM291272   8.632   1.419   8.500 -0.6108 -1.4958  0.4145
 3651THY    HM391273   8.582   1.290   8.394 -2.2984  1.0986 -1.0042
 3651THY    CA691274   8.457   1.509   8.281  0.4741  0.0429  0.2853
 3651THY    HA691275   8.394   1.465   8.358  0.3170  0.8671  0.6487
 3652THY      O91276   5.248   8.007   6.275 -0.0111  0.4105 -0.3894
 3652THY     HO91277   5.293   7.932   6.232 -1.9833  0.0978 -2.0300
 3652THY    CA191278   5.207   7.971   6.400  0.6089 -0.7087 -0.0167
 3652THY    CA291279   5.137   8.059   6.486  0.6806  0.0631 -0.0193
 3652THY    CP191280   5.106   8.201   6.430  0.0423 -0.1389 -0.3225
 3652THY    HP191281   5.065   8.189   6.329 -1.0898  0.8370 -0.0114
 3652THY    CP291282   4.997   8.273   6.511  0.4760 -0.0602  0.0159
 3652THY    HP291283   5.017   8.273   6.618 -1.2122 -2.1501  0.4006
 3652THY    HP391284   4.986   8.378   6.483 -0.0334  0.0913  0.7762
 3652THY    HP491285   4.896   8.230   6.504  0.9836 -1.1918 -0.6388
 3652THY    CP391286   5.234   8.289   6.439 -0.3919 -0.3004 -0.5486
 3652THY    HP591287   5.319   8.243   6.387  0.3883  0.7273 -0.2307
 3652THY    HP691288   5.215   8.383   6.386 -0.4500  0.7038  1.1770
 3652THY    HP791289   5.273   8.301   6.541  1.8989 -1.8825 -1.1520
 3652THY    CA391290   5.104   8.009   6.618  0.0480 -0.2908 -0.1657
 3652THY    HA391291   5.063   8.081   6.687 -0.6091  0.3053 -1.1570
 3652THY    CA491292   5.121   7.870   6.654 -0.2676 -0.4170  0.6220
 3652THY    HA491293   5.085   7.825   6.746 -2.9092 -1.0743 -0.6496
 3652THY    CA591294   5.189   7.791   6.559 -0.1891 -0.0637 -0.1550
 3652THY    CM191295   5.202   7.645   6.591 -0.3743 -0.1158 -0.0714
 3652THY    HM191296   5.260   7.587   6.518  0.5593  0.4495  0.2044
 3652THY    HM291297   5.253   7.635   6.687  0.4505 -0.8399 -0.5750
 3652THY    HM391298   5.097   7.614   6.590 -0.9501  1.7136  0.4729
 3652THY    CA691299   5.231   7.840   6.438 -0.0598 -0.0350 -0.6190
 3652THY    HA691300   5.285   7.768   6.378 -1.0215 -1.4301  0.1150
 3653THY      O91301   4.256   1.604   4.492 -0.4817 -0.3032 -0.1191
 3653THY     HO91302   4.201   1.670   4.447 -0.5664  0.9187  1.6887
 3653THY    CA191303   4.372   1.605   4.422 -0.3493  0.3859 -0.1007
 3653THY    CA291304   4.499   1.593   4.483  0.4436  0.0489 -0.7848
 3653THY    CP191305   4.511   1.568   4.632  0.3568 -0.1468 -0.0130
 3653THY    HP191306   4.429   1.612   4.690  2.3553  2.3056  1.1359
 3653THY    CP291307   4.502   1.416   4.660 -0.4198  0.5242  0.6041
 3653THY    HP291308   4.408   1.373   4.624 -1.5100  0.3658  3.3914
 3653THY    HP391309   4.589   1.351   4.641 -1.6545 -1.3871  1.1832
 3653THY    HP491310   4.501   1.395   4.767  1.7572 -3.6408  0.0428
 3653THY    CP391311   4.623   1.638   4.694 -0.2894  0.1118 -0.3276
 3653THY    HP591312   4.619   1.741   4.657 -1.4321  0.4182  0.5799
 3653THY    HP691313   4.623   1.640   4.804 -2.3516 -1.9941 -0.2268
 3653THY    HP791314   4.713   1.587   4.659 -0.6471 -0.3263 -0.6123
 3653THY    CA391315   4.610   1.600   4.400 -0.4650 -0.2796 -0.0424
 3653THY    HA391316   4.708   1.578   4.442 -0.6917  1.0813  1.2782
 3653THY    CA491317   4.599   1.625   4.264  0.2249 -0.1997 -0.3335
 3653THY    HA491318   4.692   1.622   4.207  1.0886 -0.4678  1.0491
 3653THY    CA591319   4.467   1.644   4.209  0.3736 -0.1476  0.2326
 3653THY    CM191320   4.459   1.671   4.064  0.3977  0.5490  0.8278
 3653THY    HM191321   4.491   1.774   4.041  2.2866 -0.5438 -2.1066
 3653THY    HM291322   4.520   1.600   4.007 -1.7682 -1.3640  0.7532
 3653THY    HM391323   4.356   1.651   4.033  0.6125  1.1831 -0.3550
 3653THY    CA691324   4.356   1.635   4.286 -0.2931  0.1193 -0.1537
 3653THY    HA691325   4.255   1.645   4.248 -1.2983  1.2303  2.5182
 3654THY      O91326   4.325   3.655   1.079 -0.0437 -0.2141 -0.0801
 3654THY     HO91327   4.307   3.638   1.173  1.3365  3.0078  0.9114
 3654THY    CA191328   4.420   3.569   1.035 -0.2179  0.2642 -0.0186
 3654THY    CA291329   4.481   3.583   0.906  0.0300  0.2391  0.9332
 3654THY    CP191330   4.445   3.693   0.809  0.0420  0.6109  0.0595
 3654THY    HP191331   4.349   3.739   0.836 -0.5867 -0.4072 -0.4025
 3654THY    CP291332   4.540   3.807   0.809  0.4991 -0.2174 -0.7573
 3654THY    HP291333   4.556   3.851   0.908 -0.6265  1.5701 -1.3186
 3654THY    HP391334   4.633   3.780   0.757  1.7811 -0.0110  1.3154
 3654THY    HP491335   4.489   3.887   0.754  0.0128  1.9284  2.5298
 3654THY    CP391336   4.414   3.649   0.664  0.9921 -0.4095  0.2025
 3654THY    HP591337   4.326   3.583   0.656  0.0217  1.0384 -1.9830
 3654THY    HP691338   4.391   3.741   0.609 -0.0419  0.1776  1.5596
 3654THY    HP791339   4.494   3.591   0.617 -0.1270 -3.3579  1.6131
 3654THY    CA391340   4.576   3.484   0.866  0.3216 -1.0463  0.0722
 3654THY    HA391341   4.625   3.484   0.769  1.6433  1.9345  0.6304
 3654THY    CA491342   4.592   3.372   0.945  0.0973 -0.0941 -0.9456
 3654THY    HA491343   4.654   3.286   0.923  1.5489  0.2044  1.6082
 3654THY    CA591344   4.543   3.365   1.076  0.8230 -0.3002 -0.2723
 3654THY    CM191345   4.584   3.243   1.163  0.1717  0.4356  0.0149
 3654THY    HM191346   4.556   3.155   1.103 -2.2765  0.0012  1.6357
 3654THY    HM291347   4.689   3.251   1.193 -0.2496 -0.5756  1.9202
 3654THY    HM391348   4.512   3.236   1.245 -0.0695 -1.5535 -0.3229
 3654THY    CA691349   4.457   3.467   1.118  0.6096 -0.2097 -0.8794
 3654THY    HA691350   4.421   3.463   1.220 -0.4067  0.3029 -1.2083
 3655THY      O91351   5.121   8.626   3.466  0.3723 -0.5096  0.8600
 3655THY     HO91352   5.133   8.608   3.561 -0.2606 -0.8257  0.8829
 3655THY    CA191353   5.126   8.759   3.448 -0.2336 -0.3477  0.2021
 3655THY    CA291354   5.172   8.817   3.325 -0.3760 -0.5932  0.5105
 3655THY    CP191355   5.216   8.742   3.209 -0.3286 -0.1334 -0.3591
 3655THY    HP191356   5.207   8.633   3.211  0.7684 -0.2246  0.9121
 3655THY    CP291357   5.133   8.776   3.081  0.0620  0.2140 -0.1736
 3655THY    HP291358   5.151   8.877   3.043 -2.6486 -0.5665 -4.2140
 3655THY    HP391359   5.178   8.712   3.004 -3.4936 -1.3266 -1.2080
 3655THY    HP491360   5.025   8.759   3.081  0.1851 -0.8434 -1.7754
 3655THY    CP391361   5.364   8.774   3.180  0.1598  0.0035  0.0962
 3655THY    HP591362   5.393   8.711   3.096 -1.6800 -1.8548  0.7476
 3655THY    HP691363   5.391   8.874   3.145 -0.0675 -0.7540 -2.4048
 3655THY    HP791364   5.413   8.749   3.275 -0.4884  0.1041  0.4655
 3655THY    CA391365   5.177   8.959   3.323  0.6451  0.9021 -0.8506
 3655THY    HA391366   5.196   9.017   3.234 -1.7682  2.8323 -0.2121
 3655THY    CA491367   5.149   9.029   3.436 -0.0446 -1.0542  0.3573
 3655THY    HA491368   5.156   9.137   3.429 -1.7569 -1.0037 -1.2382
 3655THY    CA591369   5.104   8.972   3.555  0.4616  0.4943 -0.3067
 3655THY    CM191370   5.077   9.059   3.676  0.0927 -0.0847 -0.4811
 3655THY    HM191371   5.173   9.056   3.729  0.1316 -0.1137 -0.5520
 3655THY    HM291372   5.054   9.162   3.648  1.8462  0.7488  0.9455
 3655THY    HM391373   4.994   9.011   3.729  0.7195 -1.2798 -0.5400
 3655THY    CA691374   5.089   8.835   3.562  0.4424 -0.5053 -0.0120
 3655THY    HA691375   5.048   8.788   3.651 -0.7472 -0.7004 -0.6473
 3656THY      O91376   0.147   2.170   3.694 -0.4816  0.3306 -0.5094
 3656THY     HO91377   0.219   2.135   3.749 -2.5661 -2.2139  0.8473
 3656THY    CA191378   0.191   2.168   3.567 -0.8159  0.2249  0.3277
 3656THY    CA291379   0.106   2.215   3.460  0.1312  0.2418 -0.2058
 3656THY    CP191380  -0.037   2.261   3.494  0.4428 -0.0971  0.2666
 3656THY    HP191381  -0.014   2.332   3.575  2.4048  1.3618 -1.4468
 3656THY    CP291382  -0.118   2.346   3.394 -0.1186  0.1700  0.1020
 3656THY    HP291383  -0.205   2.394   3.442  0.6402  3.2980 -1.3854
 3656THY    HP391384  -0.056   2.431   3.364  1.0674  0.4218  3.0120
 3656THY    HP491385  -0.141   2.292   3.301 -0.2559  2.7801 -1.4793
 3656THY    CP391386  -0.120   2.142   3.545  0.0734  0.3596  0.1582
 3656THY    HP591387  -0.078   2.098   3.637  0.4318  0.6175  0.1218
 3656THY    HP691388  -0.214   2.173   3.590 -0.0609 -1.4544  1.2166
 3656THY    HP791389  -0.149   2.071   3.467 -0.9214  1.6109 -0.6593
 3656THY    CA391390   0.161   2.212   3.330  0.0470 -0.3611  0.4191
 3656THY    HA391391   0.099   2.238   3.245  1.3401 -0.3326 -0.5334
 3656THY    CA491392   0.293   2.165   3.300 -0.2791 -0.5201  0.1174
 3656THY    HA491393   0.326   2.171   3.197 -2.8999  1.8042 -0.7301
 3656THY    CA591394   0.369   2.123   3.405 -0.5890 -0.4045 -0.2534
 3656THY    CM191395   0.489   2.053   3.376 -0.2364 -0.2207 -0.4887
 3656THY    HM191396   0.481   1.944   3.374  1.5457 -0.4209  0.7490
 3656THY    HM291397   0.534   2.086   3.282  1.2354  1.9873  0.8766
 3656THY    HM391398   0.563   2.084   3.451  0.1028 -1.1307 -0.4400
 3656THY    CA691399   0.316   2.124   3.535 -0.9324 -0.4370 -0.1426
 3656THY    HA691400   0.385   2.097   3.615 -2.3265 -0.6232  1.0476
 3657THY      O91401   5.236   5.701   0.405  0.2227 -0.2486  0.3269
 3657THY     HO91402   5.276   5.613   0.414 -1.3216 -1.0567 -0.3163
 3657THY    CA191403   5.148   5.724   0.500  0.2484 -0.1882  1.0232
 3657THY    CA291404   5.029   5.789   0.466  0.5747 -0.4957  0.1033
 3657THY    CP191405   4.974   5.816   0.326  0.4544  0.2573  0.1657
 3657THY    HP191406   4.886   5.881   0.335  2.0630  2.7314 -0.9728
 3657THY    CP291407   5.055   5.891   0.221  0.4198  1.0417  0.0040
 3657THY    HP291408   5.106   5.971   0.276 -1.8795  2.3249  0.4101
 3657THY    HP391409   5.130   5.826   0.174 -0.6440 -0.1857 -0.0369
 3657THY    HP491410   5.007   5.938   0.134  2.3808  1.0113 -1.1667
 3657THY    CP391411   4.934   5.674   0.274  0.1731  0.2626 -0.8987
 3657THY    HP591412   5.016   5.604   0.293  1.9173  2.6047  0.7766
 3657THY    HP691413   4.856   5.637   0.341  0.6135 -1.0465 -1.0812
 3657THY    HP791414   4.903   5.661   0.170  0.0490  0.1287 -0.8451
 3657THY    CA391415   4.943   5.836   0.574 -0.0358  0.2023  0.3283
 3657THY    HA391416   4.851   5.891   0.555 -0.4606 -1.1519 -1.9760
 3657THY    CA491417   4.974   5.814   0.700 -0.6957 -0.3829  0.6765
 3657THY    HA491418   4.913   5.857   0.778 -0.3904  2.6109 -0.5792
 3657THY    CA591419   5.086   5.737   0.726 -0.3050  0.7911 -0.3265
 3657THY    CM191420   5.121   5.699   0.869  0.4948 -0.4352 -0.7222
 3657THY    HM191421   5.222   5.729   0.900 -0.7873  2.8581  0.7235
 3657THY    HM291422   5.054   5.742   0.945  0.0625 -3.0298  0.4669
 3657THY    HM391423   5.116   5.590   0.879  1.7538 -0.3384  1.7815
 3657THY    CA691424   5.170   5.686   0.628  0.0136 -0.6630  0.6892
 3657THY    HA691425   5.259   5.634   0.663 -1.3372 -2.9458  0.9334
 3658THY      O91426   3.504   8.514   4.896  0.1579  0.1051  0.4247
 3658THY     HO91427   3.512   8.532   4.991  0.3765  1.3085  0.2001
 3658THY    CA191428   3.629   8.462   4.874 -0.4564 -0.4320 -0.1459
 3658THY    CA291429   3.657   8.374   4.770 -0.4546  0.4915 -0.6737
 3658THY    CP191430   3.548   8.312   4.683  0.6567 -0.0053 -0.3335
 3658THY    HP191431   3.451   8.346   4.720  1.3397 -1.5190  3.2778
 3658THY    CP291432   3.569   8.351   4.535 -0.0746 -0.4626  0.8513
 3658THY    HP291433   3.507   8.287   4.472 -0.9646  1.3483 -0.1922
 3658THY    HP391434   3.542   8.454   4.508  4.3726  1.0584  1.4084
 3658THY    HP491435   3.672   8.343   4.498 -0.7125  1.6438 -1.7364
 3658THY    CP391436   3.539   8.153   4.690 -0.3988 -0.0498  0.6688
 3658THY    HP591437   3.611   8.104   4.623 -1.5296 -1.2578  0.2944
 3658THY    HP691438   3.568   8.116   4.789  1.1732 -0.9790 -0.0975
 3658THY    HP791439   3.441   8.111   4.662 -0.3963  0.4360 -0.1058
 3658THY    CA391440   3.791   8.332   4.755 -0.8591 -0.1417  0.1206
 3658THY    HA391441   3.821   8.268   4.673  3.5651 -0.1936  1.4922
 3658THY    CA491442   3.885   8.384   4.845 -0.3149 -0.1963 -0.6575
 3658THY    HA491443   3.991   8.363   4.834  0.2090  1.3494  0.8967
 3658THY    CA591444   3.847   8.464   4.956  0.4629  0.7764 -0.2302
 3658THY    CM191445   3.944   8.508   5.061  0.4829 -0.1737 -0.2443
 3658THY    HM191446   3.960   8.426   5.132  2.2487  1.4326  1.3167
 3658THY    HM291447   4.039   8.526   5.009  1.2641 -2.2453  0.3331
 3658THY    HM391448   3.910   8.589   5.126 -0.0986 -1.4334  1.0790
 3658THY    CA691449   3.715   8.510   4.966  0.5331  0.3761  0.1163
 3658THY    HA691450   3.692   8.575   5.050 -0.4465 -0.6751  0.6893
 3659THY      O91451   6.550   5.111   0.710  0.0315 -0.3458  0.1330
 3659THY     HO91452   6.532   5.029   0.759 -1.5994 -0.1706 -0.1224
 3659THY    CA191453   6.521   5.201   0.807  0.2488  0.1417 -0.6528
 3659THY    CA291454   6.599   5.305   0.845 -0.7089  0.0749 -0.5085
 3659THY    CP191455   6.715   5.347   0.756 -0.4428 -0.0433  0.5845
 3659THY    HP191456   6.693   5.337   0.649 -0.9460  0.6382  0.6190
 3659THY    CP291457   6.738   5.500   0.768 -1.1198  0.4595 -0.3160
 3659THY    HP291458   6.655   5.559   0.729  0.7744  1.1525 -3.7257
 3659THY    HP391459   6.771   5.517   0.871 -0.4860  0.8159 -0.5726
 3659THY    HP491460   6.827   5.536   0.714 -2.2448  3.2004 -0.4892
 3659THY    CP391461   6.839   5.265   0.794  0.2474  0.3442 -0.1415
 3659THY    HP591462   6.860   5.308   0.892 -3.6547  2.8372 -0.1823
 3659THY    HP691463   6.818   5.158   0.793 -1.1205  0.5896 -1.0614
 3659THY    HP791464   6.920   5.287   0.723 -0.3710 -0.6066 -1.1699
 3659THY    CA391465   6.564   5.374   0.961  0.4872  0.6894  0.2730
 3659THY    HA391466   6.630   5.451   1.000  1.0962  0.8493 -1.0361
 3659THY    CA491467   6.449   5.339   1.028  0.2472  0.3890 -0.3404
 3659THY    HA491468   6.415   5.405   1.107  0.2464  2.5406 -2.0569
 3659THY    CA591469   6.366   5.231   0.989 -0.3540  0.2806  0.7746
 3659THY    CM191470   6.251   5.186   1.068  0.3258  0.4720  0.1432
 3659THY    HM191471   6.267   5.080   1.092 -1.6428  0.1435  0.1533
 3659THY    HM291472   6.246   5.244   1.161  0.2959  1.7749 -0.6514
 3659THY    HM391473   6.158   5.206   1.014  0.2309  3.9842  1.3915
 3659THY    CA691474   6.412   5.160   0.886 -0.0836  0.0769  0.7256
 3659THY    HA691475   6.355   5.073   0.853  2.5692 -0.8194 -1.8896
 3660THY      O91476   1.682   6.987   1.659  0.1514  0.7211  0.1564
 3660THY     HO91477   1.615   7.024   1.599  1.3555 -0.1364 -1.8018
 3660THY    CA191478   1.774   7.090   1.682 -0.1432  0.6829  0.1901
 3660THY    CA291479   1.876   7.120   1.592  0.6174 -0.2453 -0.0260
 3660THY    CP191480   1.890   7.035   1.464  0.0612 -0.3470  0.8233
 3660THY    HP191481   1.798   6.976   1.459  0.9668 -1.9870  2.3346
 3660THY    CP291482   1.909   7.115   1.332 -0.4416 -0.1930  0.4701
 3660THY    HP291483   1.994   7.181   1.353 -1.0339 -0.0281  2.6439
 3660THY    HP391484   1.924   7.041   1.254  0.7328  1.3426 -0.8307
 3660THY    HP491485   1.816   7.172   1.318  0.6730  1.7452  0.5238
 3660THY    CP391486   2.010   6.939   1.483  0.0065  0.4841  0.4262
 3660THY    HP591487   2.032   6.886   1.390  1.2867  0.7780  0.5341
 3660THY    HP691488   2.100   6.995   1.512  0.0041  0.7485 -0.0580
 3660THY    HP791489   1.972   6.879   1.566  2.9998 -0.0423  1.5332
 3660THY    CA391490   1.967   7.222   1.630  0.7761  0.0820  0.4207
 3660THY    HA391491   2.055   7.243   1.569 -0.5985 -2.0758 -2.6236
 3660THY    CA491492   1.959   7.278   1.757  0.8953 -0.3652 -0.0344
 3660THY    HA491493   2.036   7.343   1.797 -0.6332  1.3949  0.1651
 3660THY    CA591494   1.849   7.246   1.840  0.0528 -1.1745  0.2667
 3660THY    CM191495   1.838   7.320   1.971 -0.2182 -0.0859  0.2372
 3660THY    HM191496   1.743   7.373   1.979 -0.4625 -0.6089  0.8603
 3660THY    HM291497   1.837   7.247   2.054  0.4862 -1.7321 -1.1402
 3660THY    HM391498   1.922   7.390   1.975 -0.9404  0.7929  0.2130
 3660THY    CA691499   1.756   7.157   1.802  1.2264 -0.0165  0.6290
 3660THY    HA691500   1.681   7.128   1.875  0.2198  0.6405 -0.1110
 3661THY      O91501   5.052   0.436   4.209 -0.0106 -0.3180 -0.2616
 3661THY     HO91502   4.960   0.438   4.242  0.5824 -3.6284  2.0603
 3661THY    CA191503   5.135   0.432   4.314 -0.0169 -0.3844 -0.2131
 3661THY    CA291504   5.271   0.400   4.309 -0.1136 -0.1975 -0.1321
 3661THY    CP191505   5.336   0.376   4.171  0.4779 -0.0524 -0.2331
 3661THY    HP191506   5.266   0.413   4.096 -2.1023 -1.0236  1.5525
 3661THY    CP291507   5.460   0.447   4.140 -0.2131  0.0249 -0.3953
 3661THY    HP291508   5.486   0.460   4.034 -0.6404 -2.1238 -0.7974
 3661THY    HP391509   5.459   0.548   4.182  0.4699 -0.1792  0.1204
 3661THY    HP491510   5.549   0.392   4.173 -1.1744 -2.0972 -1.1641
 3661THY    CP391511   5.350   0.226   4.146 -0.5364 -0.2051  0.2436
 3661THY    HP591512   5.249   0.187   4.126 -1.1101  1.3793 -0.1282
 3661THY    HP691513   5.416   0.195   4.064 -0.4278  1.2486 -0.2441
 3661THY    HP791514   5.378   0.168   4.234 -1.5085  1.6506  1.8669
 3661THY    CA391515   5.347   0.394   4.429  0.3832  0.5825  0.2349
 3661THY    HA391516   5.454   0.379   4.413 -0.3350 -1.9587 -3.0687
 3661THY    CA491517   5.289   0.410   4.553 -0.2782 -0.0569 -0.3527
 3661THY    HA491518   5.335   0.407   4.651  0.9037  1.9998 -0.8034
 3661THY    CA591519   5.151   0.450   4.556  0.3361 -0.3535 -1.1964
 3661THY    CM191520   5.078   0.454   4.688 -0.3249 -1.0484 -0.3321
 3661THY    HM191521   5.050   0.353   4.721 -2.2479 -0.7084 -0.7973
 3661THY    HM291522   5.143   0.479   4.773  0.5337  0.6756 -1.4606
 3661THY    HM391523   4.989   0.517   4.698  0.0204 -0.8685  2.6626
 3661THY    CA691524   5.080   0.459   4.436  0.4769  0.4316  0.6447
 3661THY    HA691525   4.974   0.482   4.436 -0.2336 -2.3622 -1.0849
 3662THY      O91526   3.769   8.496   8.599 -0.1533 -0.0766  0.1277
 3662THY     HO91527   3.813   8.454   8.524 -2.5818 -1.1468 -0.7821
 3662THY    CA191528   3.720   8.404   8.677 -0.1035  0.1945  0.1650
 3662THY    CA291529   3.606   8.430   8.755  0.4366  0.0090 -0.0503
 3662THY    CP191530   3.555   8.573   8.785 -0.8750  0.3344  0.1104
 3662THY    HP191531   3.596   8.640   8.708 -2.5626 -1.3900 -2.4550
 3662THY    CP291532   3.407   8.593   8.768  0.1404  0.2920  0.1064
 3662THY    HP291533   3.370   8.564   8.670  0.2999 -2.5111  0.8086
 3662THY    HP391534   3.349   8.548   8.849 -0.1430 -0.4778 -0.5221
 3662THY    HP491535   3.380   8.699   8.779 -1.9458 -0.1768 -0.1190
 3662THY    CP391536   3.592   8.622   8.924 -0.2265  0.0729 -0.8001
 3662THY    HP591537   3.565   8.545   8.997 -0.2221  0.5352 -0.3125
 3662THY    HP691538   3.699   8.638   8.941 -0.0556 -0.1320 -1.6306
 3662THY    HP791539   3.534   8.704   8.968  0.5540 -0.9909  2.4715
 3662THY    CA391540   3.533   8.320   8.810  0.5228  0.4949 -0.1573
 3662THY    HA391541   3.434   8.334   8.852  0.2610  1.8953 -1.1624
 3662THY    CA491542   3.583   8.187   8.794  0.0184 -0.0862 -0.4168
 3662THY    HA491543   3.524   8.102   8.824  0.7826 -1.4874 -2.6059
 3662THY    CA591544   3.711   8.166   8.729 -0.3287 -0.2309 -0.3416
 3662THY    CM191545   3.755   8.027   8.702  0.6511 -0.0450 -0.6698
 3662THY    HM191546   3.758   8.003   8.595  0.3437  0.8308 -0.8859
 3662THY    HM291547   3.851   8.008   8.750 -1.3524 -1.7662  3.0726
 3662THY    HM391548   3.692   7.956   8.758  1.2267 -0.7511 -0.9090
 3662THY    CA691549   3.770   8.275   8.661 -0.5650 -0.3209 -0.3033
 3662THY    HA691550   3.856   8.250   8.599  0.8208  2.4884  0.3164
 3663THY      O91551   0.536   9.058   5.678  0.6921  0.0210 -0.6998
 3663THY     HO91552   0.583   9.103   5.751 -1.7696 -1.1617  1.8078
 3663THY    CA191553   0.596   8.937   5.661 -0.4987  0.0399  0.0240
 3663THY    CA291554   0.554   8.844   5.568  0.2274  0.3408 -0.2601
 3663THY    CP191555   0.433   8.862   5.485 -0.0617 -0.3954  1.1126
 3663THY    HP191556   0.393   8.960   5.513  2.1029  0.5228  1.2123
 3663THY    CP291557   0.470   8.879   5.342 -0.2340  0.3543  0.3469
 3663THY    HP291558   0.543   8.961   5.339  1.6039 -1.2271 -0.8534
 3663THY    HP391559   0.516   8.787   5.305 -1.4495 -0.2417  0.2972
 3663THY    HP491560   0.380   8.892   5.281  0.1999  0.3654 -0.2981
 3663THY    CP391561   0.333   8.746   5.504  0.1981  0.5245 -0.2865
 3663THY    HP591562   0.241   8.755   5.445  0.5659 -0.5051 -1.0552
 3663THY    HP691563   0.371   8.645   5.483 -0.5254  0.3395 -0.7254
 3663THY    HP791564   0.297   8.745   5.607 -1.0047  1.0547 -0.6900
 3663THY    CA391565   0.631   8.729   5.555  0.5270 -0.3526  0.2784
 3663THY    HA391566   0.602   8.661   5.475 -1.4995  2.4512 -1.5790
 3663THY    CA491567   0.738   8.704   5.640 -0.3984  0.2112 -0.4345
 3663THY    HA491568   0.794   8.612   5.628 -3.1746 -1.6279 -0.2587
 3663THY    CA591569   0.768   8.783   5.746 -0.2605 -0.0365 -0.1844
 3663THY    CM191570   0.874   8.739   5.850  0.3193  0.2104  0.0533
 3663THY    HM191571   0.937   8.826   5.874 -0.2718  0.5585  0.3767
 3663THY    HM291572   0.833   8.709   5.947 -0.8282 -2.9475 -1.2845
 3663THY    HM391573   0.937   8.655   5.821  1.5194  0.9941  0.3039
 3663THY    CA691574   0.703   8.910   5.749 -0.5522  0.1075 -0.3474
 3663THY    HA691575   0.730   8.977   5.830 -1.2927 -2.1487  1.9516
 3664THY      O91576   0.762   9.903   5.358 -0.1138 -0.3117  0.3677
 3664THY     HO91577   0.685   9.962   5.357  0.8592  1.0968  1.9607
 3664THY    CA191578   0.861   9.994   5.342 -0.3630 -0.7038 -0.2732
 3664THY    CA291579   0.995   9.960   5.373  0.0732  0.4951  0.4625
 3664THY    CP191580   1.033   9.821   5.434 -0.0972 -0.0694 -0.2077
 3664THY    HP191581   0.947   9.765   5.473  0.5552  0.1036  1.5689
 3664THY    CP291582   1.101   9.731   5.324 -0.2744  0.2193  0.4858
 3664THY    HP291583   1.140   9.641   5.372 -1.7705 -0.6225  0.2002
 3664THY    HP391584   1.044   9.703   5.234 -0.2164  1.9956 -0.1665
 3664THY    HP491585   1.191   9.773   5.277 -0.6425  0.6603  0.1633
 3664THY    CP391586   1.128   9.825   5.551  0.0282 -0.3327  0.6442
 3664THY    HP591587   1.228   9.859   5.521  2.0389 -3.5328  3.1034
 3664THY    HP691588   1.085   9.896   5.623 -1.6837  1.4005 -1.9217
 3664THY    HP791589   1.156   9.725   5.584  1.3213 -1.2985 -2.9506
 3664THY    CA391590   1.095  10.061   5.345  0.1013  0.4260 -0.1062
 3664THY    HA391591   1.199  10.033   5.361  0.2919  1.2551  0.1217
 3664THY    CA491592   1.059  10.190   5.301 -0.2815  0.2255 -0.1318
 3664THY    HA491593   1.138  10.264   5.291 -0.1878  0.1669  0.1799
 3664THY    CA591594   0.936  10.219   5.257  0.5527 -0.4172 -0.1102
 3664THY    CM191595   0.909  10.357   5.198  0.0946  0.0738  0.4391
 3664THY    HM191596   0.816  10.355   5.139  0.5373 -0.1610 -0.2582
 3664THY    HM291597   0.887  10.429   5.278  2.2258  0.5731  0.6331
 3664THY    HM391598   0.993  10.391   5.136  0.6243  0.2911  1.2629
 3664THY    CA691599   0.835  10.124   5.286 -0.0122 -0.1789  0.2833
 3664THY    HA691600   0.732  10.154   5.270 -0.2199 -1.1594 -0.3144
 3665THY      O91601   6.084   5.994   7.439 -0.0321  0.1200  0.7274
 3665THY     HO91602   6.005   5.985   7.384  0.4551 -0.9010  0.1567
 3665THY    CA191603   6.111   6.119   7.472 -0.3358  0.1391 -0.7439
 3665THY    CA291604   6.179   6.148   7.593  0.6597 -0.2528  0.4686
 3665THY    CP191605   6.219   6.041   7.693  0.3048  0.8189  0.2599
 3665THY    HP191606   6.170   5.945   7.673  2.7130  0.0438 -2.5655
 3665THY    CP291607   6.365   5.998   7.666 -0.2451  0.0470 -0.1813
 3665THY    HP291608   6.369   5.951   7.567  0.2439  1.1221 -0.6879
 3665THY    HP391609   6.423   6.087   7.641 -3.1401  2.2620  0.4834
 3665THY    HP491610   6.409   5.932   7.742 -1.1940 -2.0171 -1.3382
 3665THY    CP391611   6.195   6.081   7.834  0.1142 -0.0666 -0.0021
 3665THY    HP591612   6.199   5.991   7.896  1.2588 -0.2486 -0.3185
 3665THY    HP691613   6.277   6.147   7.866  0.4517 -0.0926 -0.7893
 3665THY    HP791614   6.100   6.135   7.846  0.6188  0.5855  1.2996
 3665THY    CA391615   6.214   6.282   7.623  0.0765 -0.6313  0.2660
 3665THY    HA391616   6.272   6.309   7.711  1.2228 -3.1410  0.3631
 3665THY    CA491617   6.182   6.385   7.536 -0.7535 -0.2073  0.0754
 3665THY    HA491618   6.216   6.485   7.561  2.6300 -1.0874 -0.5322
 3665THY    CA591619   6.102   6.354   7.421  0.0364 -0.4251 -0.4373
 3665THY    CM191620   6.062   6.470   7.326  0.0245  0.3601 -0.2622
 3665THY    HM191621   6.017   6.550   7.386 -1.7415  1.1768 -2.5445
 3665THY    HM291622   6.152   6.511   7.277 -0.0867 -0.3154 -1.0440
 3665THY    HM391623   5.984   6.448   7.253 -1.7339  2.2764  0.9183
 3665THY    CA691624   6.068   6.226   7.388  0.3834  0.4560 -0.2634
 3665THY    HA691625   6.006   6.201   7.303 -2.1924 -2.4445  2.2351
 3666THY      O91626   3.579   5.940   7.918  0.4241  0.0649  0.5921
 3666THY     HO91627   3.532   5.908   7.839  2.5809  1.1094 -1.2502
 3666THY    CA191628   3.485   6.014   7.980  0.6691 -0.2890 -0.1712
 3666THY    CA291629   3.509   6.079   8.107 -0.6313  0.3419 -0.8744
 3666THY    CP191630   3.642   6.076   8.175 -0.2825 -0.1192 -0.4725
 3666THY    HP191631   3.726   6.066   8.106  1.0437 -0.4373  1.1334
 3666THY    CP291632   3.674   6.202   8.256  0.2868  0.5443 -0.2628
 3666THY    HP291633   3.643   6.289   8.198 -1.5651 -1.1948 -2.0422
 3666THY    HP391634   3.615   6.203   8.348  0.8134 -1.2239  0.1508
 3666THY    HP491635   3.780   6.208   8.284  1.4580  0.5668 -4.1457
 3666THY    CP391636   3.665   5.962   8.272  0.1677 -0.2136 -0.3963
 3666THY    HP591637   3.763   5.944   8.318 -1.2338 -1.4666  2.3359
 3666THY    HP691638   3.587   5.941   8.346 -0.6793 -0.5150 -1.3597
 3666THY    HP791639   3.660   5.871   8.210 -2.5055 -1.7084  1.7626
 3666THY    CA391640   3.402   6.149   8.168  0.2794  0.6033 -0.6488
 3666THY    HA391641   3.414   6.193   8.266 -0.0170  0.3723 -0.5040
 3666THY    CA491642   3.282   6.156   8.095 -1.1798 -0.1045  0.2903
 3666THY    HA491643   3.201   6.221   8.128 -1.7197  0.1368 -1.3982
 3666THY    CA591644   3.259   6.091   7.976  0.5293  0.1634 -0.5864
 3666THY    CM191645   3.123   6.097   7.914  0.5161  0.5291 -0.3259
 3666THY    HM191646   3.083   6.199   7.923 -0.7140  0.0485 -0.1459
 3666THY    HM291647   3.104   6.068   7.810 -2.7692  0.2429  0.2370
 3666THY    HM391648   3.056   6.028   7.967 -1.5968  0.0144 -3.4323
 3666THY    CA691649   3.358   6.024   7.918 -0.4571  0.0419 -0.4131
 3666THY    HA691650   3.339   5.963   7.830  0.2278 -2.8896  1.3363
 3667THY      O91651   3.438   0.060   5.601  0.0631  0.4331  0.4080
 3667THY     HO91652   3.353   0.024   5.631  0.0054  0.7471  0.6185
 3667THY    CA191653   3.412   0.188   5.596 -0.1270  0.1642  0.5412
 3667THY    CA291654   3.514   0.285   5.590 -0.2926  0.2893 -0.1358
 3667THY    CP191655   3.670   0.244   5.602 -0.0429 -0.8546 -0.3969
 3667THY    HP191656   3.679   0.157   5.667 -2.6749 -1.4228 -0.6854
 3667THY    CP291657   3.711   0.204   5.469 -0.1375 -0.2768 -0.0744
 3667THY    HP291658   3.810   0.156   5.472  1.6155  3.0886  1.0748
 3667THY    HP391659   3.642   0.128   5.429  0.0047 -0.5211  0.1384
 3667THY    HP491660   3.719   0.284   5.395  0.5958 -0.0127  0.2862
 3667THY    CP391661   3.760   0.353   5.666 -0.8061 -0.6685  0.3020
 3667THY    HP591662   3.863   0.317   5.668 -0.4090  0.4342  0.1768
 3667THY    HP691663   3.759   0.443   5.604  2.3331 -0.3284  0.6163
 3667THY    HP791664   3.716   0.399   5.756 -2.4801  0.2299 -0.9133
 3667THY    CA391665   3.472   0.421   5.571 -0.1213 -0.0178 -0.0918
 3667THY    HA391666   3.543   0.502   5.560 -0.9657  1.1961  2.6149
 3667THY    CA491667   3.334   0.450   5.581  0.3226  0.0046 -0.2135
 3667THY    HA491668   3.309   0.554   5.562 -1.0797 -0.4113 -0.7679
 3667THY    CA591669   3.237   0.350   5.601 -0.5892 -0.3167  0.3024
 3667THY    CM191670   3.098   0.380   5.606  0.1952  0.0743 -0.3724
 3667THY    HM191671   3.087   0.489   5.606  3.0597  0.4989  2.2963
 3667THY    HM291672   3.038   0.340   5.524  1.1898 -0.0115 -1.0753
 3667THY    HM391673   3.050   0.350   5.700  1.9810 -0.5036  0.3884
 3667THY    CA691674   3.275   0.220   5.596 -0.0897  0.4061 -1.2124
 3667THY    HA691675   3.198   0.144   5.597  1.3602 -1.1059 -0.5673
 3668THY      O91676   8.418   2.362   1.132  0.1298 -0.1196  0.1413
 3668THY     HO91677   8.400   2.352   1.037  0.7955 -1.4814  0.1294
 3668THY    CA191678   8.445   2.484   1.184 -0.0808  0.2871  0.1002
 3668THY    CA291679   8.499   2.502   1.315 -0.3507  0.3898 -0.7900
 3668THY    CP191680   8.526   2.379   1.408 -0.7735  0.2853  0.5108
 3668THY    HP191681   8.464   2.295   1.376 -1.6355  0.6319  1.2355
 3668THY    CP291682   8.672   2.329   1.395 -0.6932 -0.6318  0.1232
 3668THY    HP291683   8.744   2.410   1.412  0.6499 -1.5691 -0.8564
 3668THY    HP391684   8.694   2.248   1.465  2.3148 -0.6139 -0.6584
 3668THY    HP491685   8.691   2.285   1.296 -1.0855 -1.7623  0.5414
 3668THY    CP391686   8.500   2.392   1.560  0.9052 -0.4574 -0.1274
 3668THY    HP591687   8.400   2.436   1.575 -0.4211 -2.8219 -1.4391
 3668THY    HP691688   8.485   2.297   1.612 -1.3078  0.5586  1.2772
 3668THY    HP791689   8.577   2.453   1.608 -1.2321  1.9723  0.4565
 3668THY    CA391690   8.521   2.631   1.357  0.4442  0.4099  0.1461
 3668THY    HA391691   8.546   2.643   1.463  2.4369 -2.4987  0.1237
 3668THY    CA491692   8.493   2.745   1.274 -0.5142  0.1331 -0.1746
 3668THY    HA491693   8.509   2.845   1.312 -2.5709 -0.1281  1.6347
 3668THY    CA591694   8.440   2.721   1.139 -0.6269  0.5599 -1.0387
 3668THY    CM191695   8.419   2.847   1.048  0.1896 -0.4102  0.3150
 3668THY    HM191696   8.324   2.852   0.993 -0.4243 -0.3523  1.3655
 3668THY    HM291697   8.421   2.942   1.102  0.7530 -0.8304  1.0482
 3668THY    HM391698   8.495   2.845   0.969  0.4079  0.3021  0.5044
 3668THY    CA691699   8.410   2.590   1.094 -1.2279 -0.5059  0.0440
 3668THY    HA691700   8.376   2.576   0.992  0.1414  0.9126 -0.6522
 3669THY      O91701   9.191   1.231   2.608  0.3540  0.1014  0.1962
 3669THY     HO91702   9.258   1.168   2.574  1.5063  0.4776  1.6418
 3669THY    CA191703   9.186   1.336   2.529  1.0915  0.2144  0.1077
 3669THY    CA291704   9.113   1.448   2.554  0.1044 -0.3075 -0.2999
 3669THY    CP191705   9.025   1.447   2.683  0.1007 -0.3610 -0.2169
 3669THY    HP191706   9.059   1.373   2.756  1.8951  0.8868  0.2895
 3669THY    CP291707   9.021   1.582   2.761 -0.0114 -0.8004 -0.1940
 3669THY    HP291708   8.935   1.587   2.828 -0.4416 -0.4678 -0.7572
 3669THY    HP391709   9.100   1.601   2.835 -0.4482 -0.8118  0.2801
 3669THY    HP491710   9.015   1.669   2.694  1.0361  0.9497  1.8533
 3669THY    CP391711   8.879   1.411   2.653 -0.6672 -0.1146  0.1386
 3669THY    HP591712   8.815   1.470   2.719  0.4509  1.3645 -0.0416
 3669THY    HP691713   8.848   1.427   2.549  0.7300  0.1160 -0.2600
 3669THY    HP791714   8.865   1.304   2.674  0.9447 -0.4069 -0.1316
 3669THY    CA391715   9.120   1.553   2.464  0.4005 -0.7926 -0.4718
 3669THY    HA391716   9.059   1.642   2.474 -0.8919 -1.3518 -2.6975
 3669THY    CA491717   9.205   1.546   2.359 -0.1287 -0.4692  1.3279
 3669THY    HA491718   9.217   1.628   2.289 -0.0687 -0.8977  0.8306
 3669THY    CA591719   9.280   1.436   2.341 -0.4687  0.0213  0.1731
 3669THY    CM191720   9.384   1.432   2.230  0.1105  0.2266 -0.0168
 3669THY    HM191721   9.428   1.331   2.230 -0.2231  0.0771 -0.7806
 3669THY    HM291722   9.343   1.447   2.130  0.8711  1.4947 -0.1581
 3669THY    HM391723   9.460   1.509   2.248 -0.8199  1.3600 -0.8243
 3669THY    CA691724   9.271   1.324   2.426  0.2293 -0.5181 -0.0161
 3669THY    HA691725   9.322   1.230   2.412  1.7109 -0.0390  1.7946
 3670THY      O91726   5.729   5.287   0.740  0.4102  0.2950 -0.1894
 3670THY     HO91727   5.726   5.348   0.664 -0.7863 -1.6046 -1.7558
 3670THY    CA191728   5.843   5.214   0.726 -0.4616 -0.3327 -0.4343
 3670THY    CA291729   5.849   5.080   0.756 -0.1428 -0.0974 -0.6792
 3670THY    CP191730   5.726   5.011   0.821 -0.0077 -0.2710 -0.1676
 3670THY    HP191731   5.630   5.052   0.788  0.0671 -0.6251 -0.8460
 3670THY    CP291732   5.716   4.862   0.795  0.1157 -0.6393 -0.2249
 3670THY    HP291733   5.614   4.822   0.796 -0.4193  0.5969 -1.3784
 3670THY    HP391734   5.741   4.846   0.689 -1.7660 -1.3278 -0.6001
 3670THY    HP491735   5.789   4.808   0.856  1.0161  0.6488 -0.1354
 3670THY    CP391736   5.731   5.043   0.974  0.0406  0.1937 -0.5355
 3670THY    HP591737   5.718   5.152   0.982 -0.8993  0.3515 -3.0555
 3670THY    HP691738   5.647   4.985   1.015  0.3776  0.9989  1.4076
 3670THY    HP791739   5.817   5.008   1.031 -0.6925  0.3262  0.6874
 3670THY    CA391740   5.975   5.017   0.757  0.4664 -0.2152  0.8767
 3670THY    HA391741   5.984   4.912   0.783 -3.4933 -1.2687 -1.2372
 3670THY    CA491742   6.093   5.093   0.724  0.0429 -0.0933  0.1275
 3670THY    HA491743   6.189   5.044   0.722 -0.0492 -0.2830  0.3881
 3670THY    CA591744   6.077   5.224   0.671 -0.2396  0.4027  0.0099
 3670THY    CM191745   6.189   5.302   0.612  0.7524 -0.9122  0.0173
 3670THY    HM191746   6.233   5.248   0.528  0.3097 -0.3199 -0.6062
 3670THY    HM291747   6.155   5.404   0.586 -2.2077 -1.0315  2.7633
 3670THY    HM391748   6.267   5.308   0.688  0.9521 -4.4609  0.2266
 3670THY    CA691749   5.953   5.283   0.680  0.1056 -0.6276  0.1556
 3670THY    HA691750   5.944   5.387   0.652  1.4870  0.3085  2.8177
 3671THY      O91751   2.481   5.906   8.033  0.1843  0.2027  0.0031
 3671THY     HO91752   2.418   5.919   7.960  0.4129  0.5079 -0.1420
 3671THY    CA191753   2.542   5.793   7.994 -0.8689  0.3041 -0.6108
 3671THY    CA291754   2.675   5.753   8.044  0.9436 -0.4247  0.5267
 3671THY    CP191755   2.754   5.834   8.145 -0.0062 -0.2199 -0.7222
 3671THY    HP191756   2.685   5.854   8.228  1.7377 -0.5749  0.8773
 3671THY    CP291757   2.871   5.755   8.214  0.5773 -0.3863 -0.5974
 3671THY    HP291758   2.902   5.823   8.294  1.2820 -0.6536 -0.6432
 3671THY    HP391759   2.830   5.661   8.251 -0.8866 -0.0752 -1.3239
 3671THY    HP491760   2.956   5.732   8.150  1.2841 -1.6252  0.7340
 3671THY    CP391761   2.811   5.960   8.086 -0.2847 -0.3209 -0.0051
 3671THY    HP591762   2.858   5.932   7.991 -0.5605  2.1570 -0.9412
 3671THY    HP691763   2.734   6.038   8.079  0.8849  0.8158 -0.9257
 3671THY    HP791764   2.879   6.012   8.154 -0.4884 -0.1660  0.0808
 3671THY    CA391765   2.733   5.638   7.980 -0.8173 -0.1144  0.8086
 3671THY    HA391766   2.832   5.608   8.012 -0.7933  0.1004  0.9397
 3671THY    CA491767   2.662   5.558   7.885 -0.1215 -0.7414 -0.1736
 3671THY    HA491768   2.700   5.462   7.851 -0.6269 -1.9075  2.2652
 3671THY    CA591769   2.536   5.602   7.843  1.0478  0.0473 -0.1618
 3671THY    CM191770   2.474   5.525   7.731 -0.4293 -0.4705  0.0997
 3671THY    HM191771   2.496   5.586   7.642 -1.1528 -0.8392 -0.3386
 3671THY    HM291772   2.512   5.423   7.723 -1.0507 -0.5562 -3.1067
 3671THY    HM391773   2.366   5.539   7.745 -0.1760  1.7684  0.2376
 3671THY    CA691774   2.479   5.717   7.900 -0.4669  0.3572 -0.1458
 3671THY    HA691775   2.378   5.745   7.870 -1.3723  0.1707  2.4901
 3672THY      O91776   7.911   9.063   4.281 -0.4104  0.0826  0.2582
 3672THY     HO91777   7.817   9.058   4.259 -0.5011 -0.5157  0.7435
 3672THY    CA191778   7.946   8.946   4.217 -0.1377  0.0927  0.7852
 3672THY    CA291779   8.068   8.875   4.245 -0.1394  0.2711  0.2117
 3672THY    CP191780   8.172   8.947   4.338 -0.3293  0.3959 -0.2353
 3672THY    HP191781   8.137   9.046   4.370 -1.4903 -0.2351  0.5448
 3672THY    CP291782   8.191   8.860   4.464  0.0247 -0.4241 -0.1317
 3672THY    HP291783   8.273   8.899   4.526  0.3068  0.9050 -1.2758
 3672THY    HP391784   8.104   8.843   4.528  0.1556 -0.1338  0.1272
 3672THY    HP491785   8.211   8.758   4.428 -0.5082 -0.3093 -0.7696
 3672THY    CP391786   8.305   8.964   4.259  0.0951 -0.2267 -0.6319
 3672THY    HP591787   8.391   8.990   4.323 -1.6528  2.2871  0.8757
 3672THY    HP691788   8.327   8.861   4.227 -0.5293 -0.6968  0.4110
 3672THY    HP791789   8.308   9.029   4.171 -2.8550  0.9666  0.0519
 3672THY    CA391790   8.096   8.754   4.176 -0.1750 -0.8236 -0.0972
 3672THY    HA391791   8.195   8.714   4.195 -0.6150 -0.9193  2.1948
 3672THY    CA491792   8.000   8.689   4.096  0.4910 -0.5069  0.2450
 3672THY    HA491793   8.025   8.594   4.050 -0.1000 -0.3334 -0.4505
 3672THY    CA591794   7.872   8.758   4.077 -0.7777  0.7641  0.4669
 3672THY    CM191795   7.762   8.706   3.985  0.1251 -0.5612 -0.5346
 3672THY    HM191796   7.679   8.678   4.050  0.0863 -0.3495 -0.4920
 3672THY    HM291797   7.733   8.787   3.916  0.0708  0.7429  0.9780
 3672THY    HM391798   7.786   8.618   3.923  0.9785  0.0222 -1.0514
 3672THY    CA691799   7.848   8.883   4.138 -0.6377  0.6842  0.4516
 3672THY    HA691800   7.747   8.920   4.122 -0.7954 -0.2996 -1.0303
 3673THY      O91801   4.256   6.336   7.720 -0.3749  1.0964  0.0904
 3673THY     HO91802   4.332   6.361   7.665 -1.1151  0.4497 -1.2612
 3673THY    CA191803   4.257   6.403   7.837  0.3289  0.2218  0.2550
 3673THY    CA291804   4.177   6.363   7.951  0.8070 -0.2737  0.4017
 3673THY    CP191805   4.110   6.221   7.944 -0.0990  0.1335  0.3131
 3673THY    HP191806   4.120   6.169   7.848 -2.1638  2.4573 -1.2766
 3673THY    CP291807   4.171   6.130   8.048 -0.1768 -0.0960  0.2350
 3673THY    HP291808   4.263   6.081   8.014 -0.4149 -0.8520  0.6805
 3673THY    HP391809   4.201   6.177   8.143  2.3924 -1.0509 -0.0126
 3673THY    HP491810   4.109   6.041   8.062  0.9895 -1.3078 -1.8236
 3673THY    CP391811   3.967   6.228   7.968  0.1619 -0.2695  0.1423
 3673THY    HP591812   3.945   6.254   8.072  0.5933  0.7492 -0.0133
 3673THY    HP691813   3.916   6.300   7.904 -0.3377 -2.5440 -2.1879
 3673THY    HP791814   3.930   6.129   7.939  1.7489 -0.9833  0.4418
 3673THY    CA391815   4.168   6.459   8.057 -0.6820 -0.1598  0.5194
 3673THY    HA391816   4.115   6.429   8.147 -1.8754 -2.0849 -0.7574
 3673THY    CA491817   4.245   6.579   8.056 -0.4757 -0.6198  0.0995
 3673THY    HA491818   4.235   6.652   8.136  0.2225  0.9042 -1.1404
 3673THY    CA591819   4.320   6.613   7.947 -0.1910  0.5020 -0.1097
 3673THY    CM191820   4.373   6.752   7.951 -0.4374  0.3596 -0.1582
 3673THY    HM191821   4.449   6.775   7.875 -1.1343 -0.4850 -1.1377
 3673THY    HM291822   4.292   6.823   7.934 -1.0648 -0.1923  0.4812
 3673THY    HM391823   4.409   6.779   8.051 -2.6614  0.3659  0.6970
 3673THY    CA691824   4.333   6.524   7.840 -0.1387 -0.1913  0.9081
 3673THY    HA691825   4.389   6.552   7.751  1.1416  3.0029  2.5708
 3674THY      O91826   6.436   8.175   0.000 -0.0217  0.0042 -0.0206
 3674THY     HO91827   6.395   8.247   0.051 -0.3266 -1.2240  1.5503
 3674THY    CA191828   6.412   8.064   0.069 -0.3671  1.0854  0.0288
 3674THY    CA291829   6.449   7.935   0.018  0.1547 -0.0442  0.3382
 3674THY    CP191830   6.506   7.923  -0.118  0.1782 -0.6054  0.9214
 3674THY    HP191831   6.480   8.010  -0.179 -0.9513 -2.1948 -0.9721
 3674THY    CP291832   6.657   7.922  -0.110 -0.6084  0.6584  0.9360
 3674THY    HP291833   6.702   7.954  -0.204 -0.8416  0.7585  0.8569
 3674THY    HP391834   6.689   7.993  -0.032  2.6616  0.4706 -0.0993
 3674THY    HP491835   6.700   7.823  -0.094  2.1024  1.6770  0.4204
 3674THY    CP391836   6.447   7.810  -0.208  0.4539  0.4774  0.0793
 3674THY    HP591837   6.479   7.712  -0.172 -3.0005 -1.1169 -0.8471
 3674THY    HP691838   6.338   7.814  -0.201  0.2906 -0.4949 -1.3918
 3674THY    HP791839   6.481   7.819  -0.312 -0.2952 -0.8611 -0.3013
 3674THY    CA391840   6.427   7.823   0.095  0.1324 -0.8704 -0.4819
 3674THY    HA391841   6.443   7.725   0.052 -1.3316 -1.0217 -0.7495
 3674THY    CA491842   6.389   7.839   0.230  0.0315  0.0837 -0.5993
 3674THY    HA491843   6.379   7.749   0.290 -0.0110  0.1774 -0.4660
 3674THY    CA591844   6.351   7.958   0.287 -0.2224 -0.6426  0.8409
 3674THY    CM191845   6.320   7.957   0.435 -0.0350 -0.0716  0.3325
 3674THY    HM191846   6.409   7.916   0.484 -0.4747  0.4525  1.6164
 3674THY    HM291847   6.315   8.061   0.469  0.7785 -0.2175  0.9174
 3674THY    HM391848   6.230   7.912   0.478  1.0239 -0.3322  2.4217
 3674THY    CA691849   6.362   8.075   0.205 -0.0624 -0.5920  0.9553
 3674THY    HA691850   6.334   8.175   0.236 -0.0819  0.4134 -2.0006
 3675THY      O91851   9.933   4.163   8.746  0.0395  0.0138 -0.0542
 3675THY     HO91852   9.875   4.143   8.821  0.5393 -2.1484 -0.1831
 3675THY    CA191853   9.915   4.064   8.649 -0.3434  0.4567  0.4469
 3675THY    CA291854  10.015   3.999   8.580  0.0798  0.2026 -0.1530
 3675THY    CP191855  10.157   4.056   8.598  0.3838  0.7348 -0.2197
 3675THY    HP191856  10.163   4.097   8.699 -1.4508  1.1787 -0.2508
 3675THY    CP291857  10.274   3.957   8.576 -0.1646  0.7987  0.2160
 3675THY    HP291858  10.267   3.918   8.474  0.4372  1.5678 -0.1290
 3675THY    HP391859  10.373   4.003   8.581  0.7315 -1.0034 -0.1857
 3675THY    HP491860  10.260   3.873   8.644 -0.8769  0.5028 -0.2770
 3675THY    CP391861  10.168   4.177   8.501  0.0120 -0.1844 -0.2666
 3675THY    HP591862  10.268   4.218   8.520 -0.7802  1.3443  0.8703
 3675THY    HP691863  10.152   4.143   8.398 -0.1212 -2.0891  0.3456
 3675THY    HP791864  10.091   4.252   8.523  1.7916  1.5163  0.4541
 3675THY    CA391865   9.991   3.883   8.492 -0.2598  0.4367  0.4513
 3675THY    HA391866  10.072   3.835   8.439  1.0364  0.5840  2.2000
 3675THY    CA491867   9.862   3.836   8.478 -0.3615  0.4527  0.0217
 3675THY    HA491868   9.840   3.744   8.425 -0.4454  0.3238  0.2796
 3675THY    CA591869   9.765   3.907   8.552  0.1682  0.2163 -0.1895
 3675THY    CM191870   9.617   3.857   8.545  0.0805 -0.0020 -0.6475
 3675THY    HM191871   9.598   3.860   8.437 -0.6144 -1.2426 -0.5759
 3675THY    HM291872   9.615   3.761   8.596 -0.9930 -0.2803 -1.1723
 3675THY    HM391873   9.543   3.930   8.582  1.2654  1.1601 -0.5021
 3675THY    CA691874   9.783   4.020   8.629 -0.0659 -0.0299  0.0977
 3675THY    HA691875   9.698   4.065   8.679  1.0523  1.8221  0.4491
 3676THY      O91876   8.936   7.544   1.178  0.6303  0.2605  0.4993
 3676THY     HO91877   8.932   7.552   1.081 -0.2400  1.7813  0.6329
 3676THY    CA191878   8.961   7.670   1.203  0.4107 -0.1032 -0.3216
 3676THY    CA291879   9.024   7.708   1.324  0.1198 -0.0307  0.4836
 3676THY    CP191880   9.073   7.601   1.418 -0.2487 -0.1623 -0.5009
 3676THY    HP191881   9.065   7.497   1.384  1.9808 -1.6119  2.8378
 3676THY    CP291882   9.219   7.612   1.471  0.1377  0.2242  0.1026
 3676THY    HP291883   9.286   7.645   1.390  1.3504 -1.4215  0.3610
 3676THY    HP391884   9.225   7.686   1.551  1.3036  0.2803 -0.0140
 3676THY    HP491885   9.252   7.514   1.509  2.5447  0.2417 -1.6935
 3676THY    CP391886   8.977   7.587   1.542 -0.4247  0.6344  0.0284
 3676THY    HP591887   8.984   7.666   1.617  1.3274  0.0455  0.5198
 3676THY    HP691888   8.876   7.590   1.499  0.3965  3.3894 -1.9633
 3676THY    HP791889   8.992   7.488   1.586 -0.3771 -0.2680 -1.8772
 3676THY    CA391890   9.051   7.838   1.344 -0.2344 -0.2714  0.4200
 3676THY    HA391891   9.082   7.877   1.441 -1.6007  1.9887  0.0250
 3676THY    CA491892   9.025   7.930   1.240 -0.1502  1.1935  0.1416
 3676THY    HA491893   9.047   8.036   1.251  0.5044  1.0211  0.5776
 3676THY    CA591894   8.968   7.894   1.115  0.6564  0.0528 -0.3070
 3676THY    CM191895   8.951   7.988   1.003  0.2252  0.3983 -0.4187
 3676THY    HM191896   8.846   8.019   0.994 -0.1181 -0.0658  1.6391
 3676THY    HM291897   9.007   8.081   1.018 -0.0738  0.4898  0.1528
 3676THY    HM391898   8.987   7.949   0.907  1.7795  2.8623 -0.9329
 3676THY    CA691899   8.938   7.760   1.100  0.1720 -0.6589  0.3524
 3676THY    HA691900   8.883   7.739   1.009  0.0063 -2.3429  0.8144
 3677THY      O91901   1.224   2.813   2.601  0.4032  0.5134 -0.1945
 3677THY     HO91902   1.170   2.763   2.538 -0.8906  0.3338  1.0001
 3677THY    CA191903   1.130   2.862   2.685 -0.5731  0.2934  0.2636
 3677THY    CA291904   1.142   3.002   2.713  0.2484  0.1695  0.7109
 3677THY    CP191905   1.242   3.088   2.636  0.3328  0.1914 -0.2409
 3677THY    HP191906   1.329   3.030   2.602  0.4067  0.5235 -0.6363
 3677THY    CP291907   1.185   3.156   2.520 -0.1013 -0.3237 -0.4796
 3677THY    HP291908   1.125   3.089   2.457  1.6219 -1.0002 -1.4679
 3677THY    HP391909   1.131   3.244   2.558 -0.0787 -0.6669  0.3592
 3677THY    HP491910   1.264   3.189   2.451 -0.9720 -2.0072 -2.3973
 3677THY    CP391911   1.301   3.197   2.736 -0.6520 -0.0248 -0.0913
 3677THY    HP591912   1.368   3.271   2.690  0.3875  0.1961  1.7022
 3677THY    HP691913   1.225   3.262   2.781 -2.5086  0.5414 -3.6410
 3677THY    HP791914   1.365   3.151   2.811  2.0119  0.6998 -1.7710
 3677THY    CA391915   1.046   3.052   2.803  0.1963 -0.3202  0.4242
 3677THY    HA391916   1.043   3.158   2.826 -2.2461  0.2055 -1.8943
 3677THY    CA491917   0.947   2.970   2.863  0.1492  0.0577  0.5015
 3677THY    HA491918   0.861   3.013   2.913 -1.5230 -0.3162 -1.8766
 3677THY    CA591919   0.948   2.834   2.838  0.5547  0.6602  0.3193
 3677THY    CM191920   0.850   2.743   2.900 -0.3949  1.0776  0.5475
 3677THY    HM191921   0.876   2.637   2.897 -1.5363  0.8064 -0.8515
 3677THY    HM291922   0.826   2.775   3.002 -0.3292  1.4305  0.4561
 3677THY    HM391923   0.755   2.754   2.846 -0.5016 -0.9023  0.2761
 3677THY    CA691924   1.041   2.783   2.748 -0.5560 -0.3239 -0.9822
 3677THY    HA691925   1.036   2.675   2.736 -0.2348 -0.4839  0.1708
 3678THY      O91926   2.682   6.014   6.166 -0.0510 -0.4185  0.4159
 3678THY     HO91927   2.636   5.928   6.169 -0.3425 -0.2363  1.5190
 3678THY    CA191928   2.612   6.107   6.231  0.0142 -0.3904 -0.1705
 3678THY    CA291929   2.644   6.247   6.224 -0.0065  0.0396 -0.5859
 3678THY    CP191930   2.758   6.291   6.131 -0.5812  0.2261 -0.4690
 3678THY    HP191931   2.830   6.209   6.126 -0.9902 -0.1026 -1.1098
 3678THY    CP291932   2.714   6.320   5.988  0.2336 -0.5582  0.4121
 3678THY    HP291933   2.622   6.378   5.994  1.0420  0.8991 -0.7338
 3678THY    HP391934   2.797   6.374   5.942 -0.5184 -0.4049 -0.8111
 3678THY    HP491935   2.688   6.231   5.930 -0.9742 -0.0955  0.2080
 3678THY    CP391936   2.827   6.411   6.189 -0.5639  0.5383 -0.2004
 3678THY    HP591937   2.887   6.459   6.111  0.1491  1.7335  1.0361
 3678THY    HP691938   2.767   6.499   6.216 -1.5321  0.2288 -1.3073
 3678THY    HP791939   2.914   6.380   6.250  0.0537 -2.0707 -2.2230
 3678THY    CA391940   2.559   6.337   6.297 -0.7114  0.1360  0.2894
 3678THY    HA391941   2.575   6.443   6.280 -0.1971 -0.2598 -1.9654
 3678THY    CA491942   2.462   6.286   6.382  0.5169 -0.2026  0.2814
 3678THY    HA491943   2.410   6.360   6.442  0.2882  0.1735 -0.3779
 3678THY    CA591944   2.453   6.155   6.401  0.4334 -0.0370 -0.6793
 3678THY    CM191945   2.353   6.110   6.511  0.0192  0.7220 -0.3843
 3678THY    HM191946   2.253   6.102   6.466  0.4381 -0.4774 -1.1403
 3678THY    HM291947   2.379   6.012   6.552 -1.2591  0.2358 -0.6808
 3678THY    HM391948   2.347   6.182   6.593 -2.5074  0.3871 -0.1744
 3678THY    CA691949   2.515   6.063   6.323 -0.2212  0.3949 -0.4695
 3678THY    HA691950   2.506   5.960   6.356  0.0327  0.6554  0.4376
 3679THY      O91951   3.390   2.608   7.009 -0.8109 -0.0077 -0.4889
 3679THY     HO91952   3.336   2.580   7.084 -2.7800  0.3943 -1.6959
 3679THY    CA191953   3.453   2.490   6.970  0.1580 -0.3027 -0.2223
 3679THY    CA291954   3.553   2.494   6.871 -0.5036 -0.4983 -0.5427
 3679THY    CP191955   3.575   2.613   6.778 -0.4692 -0.5450 -0.9202
 3679THY    HP191956   3.526   2.701   6.822 -0.2893 -1.1022  0.4439
 3679THY    CP291957   3.715   2.656   6.754 -0.7075  0.2046 -0.6707
 3679THY    HP291958   3.780   2.666   6.842 -2.3000  1.2033  0.4375
 3679THY    HP391959   3.765   2.575   6.698 -2.3433 -2.6782  1.7725
 3679THY    HP491960   3.712   2.750   6.698  1.0464  0.1328 -0.9534
 3679THY    CP391961   3.498   2.580   6.651 -0.1172  0.4174  0.0703
 3679THY    HP591962   3.397   2.541   6.667  0.4759 -1.2708 -0.0783
 3679THY    HP691963   3.493   2.678   6.602 -2.7713  1.6825  2.5663
 3679THY    HP791964   3.568   2.509   6.604  0.1719 -1.0046  2.5165
 3679THY    CA391965   3.621   2.374   6.851 -0.4847 -0.3647  0.9790
 3679THY    HA391966   3.696   2.361   6.775 -1.5484  0.0366 -0.1730
 3679THY    CA491967   3.581   2.265   6.924 -0.3765  0.2690  0.0827
 3679THY    HA491968   3.627   2.169   6.904  1.1292  0.6438  1.5540
 3679THY    CA591969   3.496   2.270   7.034  0.5817  0.3759  0.7945
 3679THY    CM191970   3.471   2.141   7.116  0.2333 -0.1716 -0.4787
 3679THY    HM191971   3.557   2.130   7.183 -0.9039 -0.7539  0.9543
 3679THY    HM291972   3.378   2.150   7.174  0.0769  0.7178 -0.8564
 3679THY    HM391973   3.468   2.049   7.056  1.2952 -0.2139 -0.4850
 3679THY    CA691974   3.431   2.387   7.054 -0.2219 -0.8115 -0.2819
 3679THY    HA691975   3.351   2.397   7.127  0.0570 -0.4908 -0.0123
 3680THY      O91976   2.695   5.411   1.534 -0.3000  0.4948  0.0031
 3680THY     HO91977   2.741   5.495   1.554  0.7576  0.2739 -1.3628
 3680THY    CA191978   2.659   5.418   1.399  0.2552 -0.3697 -0.3142
 3680THY    CA291979   2.692   5.310   1.315  0.6462  0.3710  0.2550
 3680THY    CP191980   2.760   5.190   1.369  0.5856  0.8077 -0.0222
 3680THY    HP191981   2.802   5.211   1.468  1.8228 -2.5557  0.3077
 3680THY    CP291982   2.673   5.066   1.385 -0.5530  0.7333  0.4479
 3680THY    HP291983   2.598   5.076   1.465 -0.6900  0.4142  0.3622
 3680THY    HP391984   2.618   5.035   1.295  0.1480 -0.3992  0.3916
 3680THY    HP491985   2.729   4.974   1.405 -1.2165  0.6604  2.1718
 3680THY    CP391986   2.879   5.148   1.292  0.4390  0.0372  0.6280
 3680THY    HP591987   2.963   5.116   1.354 -0.1211 -1.0694  0.8480
 3680THY    HP691988   2.847   5.077   1.215 -1.6111  1.6875 -0.1511
 3680THY    HP791989   2.907   5.241   1.241 -2.8287 -0.2408 -2.0810
 3680THY    CA391990   2.646   5.310   1.179  0.2033 -0.3210  0.5654
 3680THY    HA391991   2.653   5.225   1.112 -2.0624 -0.2278  0.1402
 3680THY    CA491992   2.586   5.426   1.129 -0.4046  0.3208 -0.0239
 3680THY    HA491993   2.554   5.442   1.026 -2.4553 -0.3312  0.4640
 3680THY    CA591994   2.555   5.540   1.218 -0.3665  0.1751  0.2200
 3680THY    CM191995   2.503   5.667   1.156 -0.4559  0.1603 -0.3406
 3680THY    HM191996   2.461   5.658   1.056 -0.4291  1.6531 -0.5041
 3680THY    HM291997   2.424   5.711   1.218 -1.3393 -3.1274  1.1401
 3680THY    HM391998   2.585   5.733   1.124 -0.9440  0.4957 -0.9119
 3680THY    CA691999   2.599   5.532   1.352 -0.3377 -0.4148  0.3269
 3680THY    HA692000   2.581   5.617   1.417 -0.4617  0.5448 -0.9340
 3681THY      O92001   1.114   8.593   9.916  0.1584  0.2017 -0.0809
 3681THY     HO92002   1.171   8.524   9.955 -0.8611 -1.0374 -0.7445
 3681THY    CA192003   1.159   8.612   9.790  0.4785  0.4158  0.1839
 3681THY    CA292004   1.087   8.683   9.689  0.2024  0.4664  0.0663
 3681THY    CP192005   0.960   8.763   9.723 -0.1529 -0.2578 -0.5342
 3681THY    HP192006   0.927   8.755   9.827  0.5396 -0.3667 -0.3138
 3681THY    CP292007   0.989   8.911   9.705  0.5830  0.5520 -1.5264
 3681THY    HP292008   1.082   8.937   9.757 -0.8046 -1.4256  2.4505
 3681THY    HP392009   0.993   8.926   9.597 -3.8402  2.0096 -1.6590
 3681THY    HP492010   0.912   8.978   9.744  1.8555  0.4230  1.4837
 3681THY    CP392011   0.838   8.725   9.638 -0.4347  0.2536  0.6531
 3681THY    HP592012   0.740   8.753   9.680 -0.3221  1.7231 -0.0063
 3681THY    HP692013   0.847   8.778   9.543 -1.1625 -0.0720  0.3918
 3681THY    HP792014   0.832   8.619   9.613 -1.1015  1.1073 -3.5133
 3681THY    CA392015   1.136   8.688   9.557 -0.2310  0.0056  0.1935
 3681THY    HA392016   1.077   8.744   9.486 -0.3310  0.6432  0.7716
 3681THY    CA492017   1.262   8.621   9.527 -0.0042  0.3851 -0.3928
 3681THY    HA492018   1.301   8.620   9.425 -1.1184  0.9097 -0.8424
 3681THY    CA592019   1.330   8.557   9.629 -0.4245  0.2051 -0.4386
 3681THY    CM192020   1.454   8.490   9.581 -0.4459 -1.3025  0.4848
 3681THY    HM192021   1.445   8.439   9.485 -0.2741  0.1094 -0.3032
 3681THY    HM292022   1.539   8.558   9.566  0.4675 -1.7711  3.0368
 3681THY    HM392023   1.482   8.415   9.656  0.6024  0.3033  1.7644
 3681THY    CA692024   1.278   8.543   9.755 -0.0639  0.2344 -0.4395
 3681THY    HA692025   1.330   8.493   9.835 -1.8260  0.0333  0.6193
 3682THY      O92026   2.077   3.233   6.637  0.0240  0.3338 -0.6411
 3682THY     HO92027   2.064   3.138   6.619  3.0100 -0.8379  2.3668
 3682THY    CA192028   2.158   3.276   6.535 -0.3432  0.3457 -0.7237
 3682THY    CA292029   2.223   3.400   6.534  0.3758  0.4716  0.1797
 3682THY    CP192030   2.188   3.512   6.638 -0.3591 -0.4402  0.2959
 3682THY    HP192031   2.087   3.511   6.681  0.1624 -1.2139  1.5645
 3682THY    CP292032   2.277   3.497   6.751  0.1531  0.4787 -0.7164
 3682THY    HP292033   2.237   3.556   6.834  1.1712  1.3970 -0.8492
 3682THY    HP392034   2.292   3.392   6.781  0.5311  0.5541 -0.6337
 3682THY    HP492035   2.379   3.532   6.730  0.4649  0.9252  1.3478
 3682THY    CP392036   2.205   3.658   6.594  0.1348  0.4280  0.0968
 3682THY    HP592037   2.311   3.681   6.579  0.3472 -0.6559 -0.1721
 3682THY    HP692038   2.146   3.682   6.505  0.3061  2.2543  0.4411
 3682THY    HP792039   2.169   3.723   6.674  0.4145  0.7748 -0.0547
 3682THY    CA392040   2.321   3.424   6.431  0.5341  0.1182  0.4692
 3682THY    HA392041   2.383   3.513   6.421  1.4709 -0.3103  2.1679
 3682THY    CA492042   2.334   3.329   6.333 -0.2588  0.5398  0.0991
 3682THY    HA492043   2.385   3.337   6.238 -1.0306  0.5048 -0.3225
 3682THY    CA592044   2.274   3.210   6.336 -0.2070 -0.0292 -0.1817
 3682THY    CM192045   2.309   3.104   6.234  0.3101  0.0129  0.2232
 3682THY    HM192046   2.253   3.112   6.140 -2.8128 -3.6347  1.5062
 3682THY    HM292047   2.415   3.111   6.205  0.5970  0.0360  1.2584
 3682THY    HM392048   2.296   2.999   6.263  0.0000 -0.3764 -1.2468
 3682THY    CA692049   2.198   3.176   6.442  0.3170  0.4125 -0.4853
 3682THY    HA692050   2.158   3.075   6.450  0.4427  0.4446  0.7803
 3683THY      O92051   8.775   1.730   3.551 -0.1931 -0.4889  0.1442
 3683THY     HO92052   8.758   1.717   3.646 -0.3042 -2.6652 -0.1183
 3683THY    CA192053   8.672   1.676   3.491  0.6664 -0.9710  0.1422
 3683THY    CA292054   8.680   1.607   3.372 -0.4495 -0.9302  0.4787
 3683THY    CP192055   8.808   1.565   3.300 -0.2430 -0.0841 -0.6000
 3683THY    HP192056   8.892   1.597   3.362 -0.0228  1.2183 -1.5327
 3683THY    CP292057   8.813   1.412   3.293  0.0060  0.4146 -0.0517
 3683THY    HP292058   8.911   1.390   3.249 -0.1142  3.0026 -1.8036
 3683THY    HP392059   8.811   1.377   3.397  2.8589  1.0906  0.3093
 3683THY    HP492060   8.736   1.356   3.239  0.3533 -2.2536  2.0239
 3683THY    CP392061   8.835   1.629   3.160  0.2704  0.6007 -0.2147
 3683THY    HP592062   8.822   1.738   3.167  0.3550  0.6073 -0.1499
 3683THY    HP692063   8.937   1.605   3.128  0.6766  2.2883 -0.3066
 3683THY    HP792064   8.773   1.581   3.084  1.5134  0.7351 -1.3531
 3683THY    CA392065   8.561   1.559   3.315 -0.4103 -0.0423  0.2338
 3683THY    HA392066   8.571   1.495   3.228  1.6170 -1.2320  1.2573
 3683THY    CA492067   8.437   1.588   3.377  0.0727 -0.3875 -0.8825
 3683THY    HA492068   8.344   1.543   3.344  0.2315 -1.3428 -0.0754
 3683THY    CA592069   8.429   1.673   3.488  0.2301 -0.1015  0.1688
 3683THY    CM192070   8.290   1.704   3.556 -0.2987  0.0892  0.5368
 3683THY    HM192071   8.240   1.780   3.496  0.4293 -0.9550 -1.4854
 3683THY    HM292072   8.219   1.620   3.557 -0.6930  0.4262  1.5962
 3683THY    HM392073   8.298   1.757   3.652 -4.7100  3.9975 -0.9120
 3683THY    CA692074   8.550   1.713   3.545 -0.7739 -0.1818 -0.5318
 3683THY    HA692075   8.553   1.781   3.630 -0.7027 -1.2309  0.3248
 3684THY      O92076   4.186   5.694   1.799  0.5154 -0.0887 -0.1545
 3684THY     HO92077   4.148   5.653   1.879 -1.3435 -0.6261 -1.2548
 3684THY    CA192078   4.257   5.598   1.735  0.0279  0.3892 -0.5205
 3684THY    CA292079   4.380   5.625   1.674 -0.1237  0.2389 -0.5451
 3684THY    CP192080   4.433   5.769   1.667 -1.0840  0.2422 -0.1104
 3684THY    HP192081   4.346   5.836   1.665 -0.9644  0.3981 -0.2228
 3684THY    CP292082   4.532   5.802   1.786 -0.1120  0.0132 -0.3374
 3684THY    HP292083   4.630   5.756   1.770  0.2616  1.1870 -1.6164
 3684THY    HP392084   4.553   5.909   1.795  0.7636  0.1132 -2.8447
 3684THY    HP492085   4.482   5.763   1.876 -1.5251  2.1043 -0.1504
 3684THY    CP392086   4.504   5.813   1.544  0.0206 -0.4285  0.6359
 3684THY    HP592087   4.605   5.772   1.536  0.0669 -0.0926 -0.7273
 3684THY    HP692088   4.456   5.774   1.453  1.5425  0.1640 -0.4611
 3684THY    HP792089   4.503   5.922   1.536  0.9239 -0.3575  1.3917
 3684THY    CA392090   4.455   5.517   1.622  0.6043  0.0082  0.2891
 3684THY    HA392091   4.556   5.539   1.586  0.2359 -0.2576 -0.9570
 3684THY    CA492092   4.404   5.387   1.619 -0.1908 -0.1436 -0.6339
 3684THY    HA492093   4.469   5.305   1.589  0.8789  1.3922 -2.8167
 3684THY    CA592094   4.284   5.363   1.682  0.4369  0.3650  0.0234
 3684THY    CM192095   4.237   5.229   1.702  0.6359  0.7128  0.9034
 3684THY    HM192096   4.202   5.180   1.610  0.4360 -0.6476  1.6703
 3684THY    HM292097   4.310   5.172   1.760  0.2519 -0.3416  0.3748
 3684THY    HM392098   4.149   5.216   1.767 -0.4156  1.3882 -0.3256
 3684THY    CA692099   4.210   5.468   1.746 -0.2455  0.0201  0.4006
 3684THY    HA692100   4.115   5.451   1.796  0.4077  0.1343  1.6948
 3685THY      O92101   1.359   4.228   3.404 -0.6601  0.2227 -0.3404
 3685THY     HO92102   1.383   4.254   3.495 -4.2621  4.4185 -0.2419
 3685THY    CA192103   1.225   4.256   3.412  0.0707  0.1022  0.0577
 3685THY    CA292104   1.169   4.343   3.317 -0.1974  0.1371  0.2746
 3685THY    CP192105   1.250   4.405   3.200 -0.8006 -0.0748 -0.0901
 3685THY    HP192106   1.352   4.367   3.212 -0.8253  0.2418  1.2381
 3685THY    CP292107   1.204   4.368   3.063  0.2514  0.0180  0.6387
 3685THY    HP292108   1.211   4.259   3.046 -0.9943  0.2765 -2.0810
 3685THY    HP392109   1.097   4.392   3.059  0.2362  0.0369  1.0760
 3685THY    HP492110   1.262   4.426   2.991 -0.1766  0.3658  0.5696
 3685THY    CP392111   1.240   4.566   3.208 -0.5982  0.3317  0.1272
 3685THY    HP592112   1.283   4.594   3.305  1.1075 -1.0097 -0.2150
 3685THY    HP692113   1.307   4.621   3.141  1.9347 -0.2626  2.0106
 3685THY    HP792114   1.134   4.593   3.199 -0.7821 -0.6309 -0.6624
 3685THY    CA392115   1.031   4.375   3.325  0.3001  0.2664  0.6347
 3685THY    HA392116   0.986   4.435   3.246 -1.9653 -1.4492  0.5051
 3685THY    CA492117   0.952   4.323   3.430 -0.0991 -0.5656 -0.3058
 3685THY    HA492118   0.844   4.336   3.431 -0.0925 -0.4265 -0.8962
 3685THY    CA592119   1.014   4.243   3.531  0.0277  0.4715  0.1927
 3685THY    CM192120   0.928   4.195   3.650 -0.3920 -0.7092  0.1022
 3685THY    HM192121   0.993   4.195   3.739 -0.0508  0.5200 -0.1346
 3685THY    HM292122   0.858   4.272   3.683 -0.0978  0.0578 -0.9889
 3685THY    HM392123   0.885   4.100   3.616 -0.8383 -0.1872 -0.8334
 3685THY    CA692124   1.146   4.204   3.511  0.0605  0.0825  0.2461
 3685THY    HA692125   1.204   4.136   3.573 -0.5052 -1.0246 -0.4150
 3686THY      O92126   0.923   6.304   4.733  0.2572 -0.1777  0.2897
 3686THY     HO92127   0.980   6.250   4.790  2.8645  1.0345 -0.9684
 3686THY    CA192128   0.807   6.240   4.702  0.3407  0.2996  0.4776
 3686THY    CA292129   0.717   6.299   4.605 -0.6837  0.1994 -0.0261
 3686THY    CP192130   0.745   6.435   4.535  0.6370  1.0944 -0.4700
 3686THY    HP192131   0.850   6.460   4.553  0.6459 -0.1335  1.5134
 3686THY    CP292132   0.737   6.419   4.385  0.4299 -0.1866 -0.4658
 3686THY    HP292133   0.824   6.363   4.347  0.7245  1.0669 -1.6860
 3686THY    HP392134   0.645   6.367   4.355  1.3145 -0.3169 -3.2463
 3686THY    HP492135   0.741   6.520   4.343 -0.5681 -0.5617 -1.5028
 3686THY    CP392136   0.656   6.548   4.589  0.7710 -0.0812 -0.3574
 3686THY    HP592137   0.706   6.636   4.547  0.9519  0.4855  0.9991
 3686THY    HP692138   0.550   6.544   4.559  0.5907 -0.1978  0.2953
 3686THY    HP792139   0.666   6.548   4.698  0.2742 -1.7395 -0.2900
 3686THY    CA392140   0.582   6.243   4.594  0.2847 -0.7508 -0.2712
 3686THY    HA392141   0.511   6.312   4.549 -0.6259 -0.4636  1.5191
 3686THY    CA492142   0.540   6.126   4.673 -0.3031 -0.3659  0.1841
 3686THY    HA492143   0.436   6.096   4.663 -0.5936  0.4244  0.7039
 3686THY    CA592144   0.638   6.069   4.759  0.3362 -0.4053  0.0301
 3686THY    CM192145   0.596   5.942   4.835  0.1439 -0.4125  0.6996
 3686THY    HM192146   0.511   5.962   4.901  0.5355  0.7334  0.8792
 3686THY    HM292147   0.572   5.865   4.761 -0.2300  0.9293 -0.6109
 3686THY    HM392148   0.678   5.894   4.891  2.2754 -0.1949 -2.0432
 3686THY    CA692149   0.768   6.130   4.776  0.3083 -0.4393 -0.8131
 3686THY    HA692150   0.833   6.080   4.848  0.2702 -1.2863 -1.3499
 3687THY      O92151   5.702   3.747   9.799 -0.4859 -0.5114  0.0324
 3687THY     HO92152   5.770   3.688   9.763  0.6488  0.0483  1.1858
 3687THY    CA192153   5.604   3.749   9.710 -0.2802  0.1806  1.2155
 3687THY    CA292154   5.619   3.803   9.582 -0.3421  0.9715 -0.0113
 3687THY    CP192155   5.752   3.869   9.541 -0.3125 -0.8921  0.7391
 3687THY    HP192156   5.833   3.815   9.593  0.5626 -0.6336 -0.3030
 3687THY    CP292157   5.787   3.876   9.392 -0.7981 -0.1957  0.7999
 3687THY    HP292158   5.896   3.884   9.383 -0.6440 -1.9061  0.8263
 3687THY    HP392159   5.760   3.795   9.324 -0.4404  1.5268 -1.5321
 3687THY    HP492160   5.741   3.962   9.342 -0.0222 -0.2145  0.0349
 3687THY    CP392161   5.757   4.014   9.598  0.3689  1.2084  0.2895
 3687THY    HP592162   5.747   4.013   9.707 -2.1971 -2.7894  0.2440
 3687THY    HP692163   5.854   4.059   9.572  1.4197 -2.0193 -2.1091
 3687THY    HP792164   5.675   4.073   9.555 -0.5164 -1.1249 -1.4446
 3687THY    CA392165   5.511   3.786   9.491 -0.1857 -0.5647 -0.8682
 3687THY    HA392166   5.523   3.816   9.387 -3.3532 -0.0878 -1.1834
 3687THY    CA492167   5.392   3.732   9.527  0.6058  0.6885 -0.6332
 3687THY    HA492168   5.311   3.722   9.456  0.1908  0.4079 -0.1292
 3687THY    CA592169   5.376   3.684   9.658 -0.4383  0.6071  0.1663
 3687THY    CM192170   5.253   3.618   9.697  0.0947  0.4900 -0.4902
 3687THY    HM192171   5.244   3.580   9.800  1.1711 -0.4964 -0.7350
 3687THY    HM292172   5.165   3.675   9.666 -0.2970 -0.3664 -0.9732
 3687THY    HM392173   5.236   3.535   9.628  0.5416  0.3368 -0.4197
 3687THY    CA692174   5.477   3.702   9.753  0.6258  0.3666 -0.1165
 3687THY    HA692175   5.470   3.667   9.856 -2.6730 -1.5498 -0.8480
 3688THY      O92176   1.764   5.557   3.335  0.4833 -0.0094 -0.4826
 3688THY     HO92177   1.776   5.469   3.375  0.0196  0.4259  0.6537
 3688THY    CA192178   1.881   5.628   3.345  0.0956 -0.0599 -0.3084
 3688THY    CA292179   1.894   5.756   3.286  0.0558  0.4319  0.5398
 3688THY    CP192180   1.785   5.827   3.207 -0.3794 -0.0668 -0.6781
 3688THY    HP192181   1.694   5.765   3.209 -1.5928  1.6602  0.7076
 3688THY    CP292182   1.738   5.946   3.293  0.6357  0.5024 -0.4096
 3688THY    HP292183   1.629   5.945   3.279  1.0108 -0.2236 -4.5223
 3688THY    HP392184   1.769   5.943   3.398  1.0999 -0.4854 -0.5579
 3688THY    HP492185   1.767   6.047   3.263 -0.5337  1.7833  2.4349
 3688THY    CP392186   1.829   5.868   3.064  0.7579 -0.0733 -0.6863
 3688THY    HP592187   1.737   5.902   3.015 -1.4382  0.2365  3.2368
 3688THY    HP692188   1.893   5.955   3.077  1.1314 -0.2148 -1.5644
 3688THY    HP792189   1.869   5.778   3.016  0.3116 -0.4812 -0.3076
 3688THY    CA392190   2.017   5.823   3.311 -0.3044 -0.4443 -1.0119
 3688THY    HA392191   2.037   5.923   3.275  0.5671 -0.1554  0.2262
 3688THY    CA492192   2.120   5.765   3.386  0.4024  0.7992  0.1348
 3688THY    HA492193   2.203   5.828   3.414  1.0682 -0.2909  0.7000
 3688THY    CA592194   2.101   5.639   3.446 -0.2171  0.3430 -0.1029
 3688THY    CM192195   2.199   5.581   3.538 -0.8115  0.1263  0.1978
 3688THY    HM192196   2.279   5.656   3.538 -1.8332  1.2481 -0.0344
 3688THY    HM292197   2.163   5.568   3.640 -0.7159 -2.5161 -0.0358
 3688THY    HM392198   2.242   5.485   3.506 -0.7654  0.1719  0.1236
 3688THY    CA692199   1.980   5.572   3.426  0.2070 -0.1068 -0.6942
 3688THY    HA692200   1.967   5.475   3.472 -0.3435 -0.6632 -1.9711
 3689THY      O92201   3.094   0.867   1.762  0.7567 -0.2111  0.1537
 3689THY     HO92202   3.178   0.841   1.804 -0.1468 -2.3179  0.8227
 3689THY    CA192203   3.100   0.820   1.638  0.3726  0.6128 -0.0752
 3689THY    CA292204   3.093   0.680   1.616 -0.4994  1.0762 -0.4865
 3689THY    CP192205   3.078   0.580   1.730  0.1535  0.2075  0.7506
 3689THY    HP192206   3.118   0.611   1.828 -1.0453 -0.8281  1.5926
 3689THY    CP292207   2.932   0.562   1.752  0.3105 -0.4961 -0.0050
 3689THY    HP292208   2.883   0.517   1.665 -0.8317  0.7242 -0.0277
 3689THY    HP392209   2.911   0.501   1.841 -1.4569 -1.7587 -1.2112
 3689THY    HP492210   2.882   0.657   1.775 -0.9151 -1.2663  0.6278
 3689THY    CP392211   3.137   0.445   1.710 -0.2224 -0.1644  0.9322
 3689THY    HP592212   3.098   0.365   1.775  2.0656 -4.4236 -2.3901
 3689THY    HP692213   3.107   0.409   1.610  0.6605  0.3010  0.4856
 3689THY    HP792214   3.246   0.437   1.709 -0.1872  0.3155  0.4162
 3689THY    CA392215   3.067   0.636   1.477  0.2694 -0.6821 -0.0635
 3689THY    HA392216   3.045   0.537   1.438  0.0701 -0.0173 -1.6931
 3689THY    CA492217   3.067   0.733   1.379 -0.6776 -0.2921  0.3370
 3689THY    HA492218   3.036   0.712   1.277  2.2827 -0.3048 -0.6540
 3689THY    CA592219   3.095   0.867   1.403 -0.3201  0.3232  0.3511
 3689THY    CM192220   3.072   0.964   1.285  0.4955  0.9858  0.1008
 3689THY    HM192221   3.081   1.070   1.312 -0.8780  0.9820  0.6387
 3689THY    HM292222   3.127   0.942   1.193 -0.7756 -0.7048 -0.2856
 3689THY    HM392223   2.965   0.958   1.262  0.0445 -0.4502  2.2565
 3689THY    CA692224   3.106   0.907   1.534  0.7097 -0.5091  0.5946
 3689THY    HA692225   3.105   1.012   1.562  1.4472 -0.3106 -0.0769
 3690THY      O92226   3.017   8.433   9.049 -0.0552  0.2845 -0.1153
 3690THY     HO92227   2.966   8.354   9.024 -1.1960  0.3381  1.8117
 3690THY    CA192228   3.127   8.390   9.110  0.5901  0.0117 -0.0143
 3690THY    CA292229   3.214   8.463   9.193 -0.8184  0.3026  0.3470
 3690THY    CP192230   3.178   8.606   9.226 -0.0273  0.9310  0.3962
 3690THY    HP192231   3.084   8.625   9.173  1.4127  1.3490 -2.2131
 3690THY    CP292232   3.160   8.629   9.377  0.1876 -0.3143  0.1549
 3690THY    HP292233   3.249   8.638   9.439  0.3570  1.1457 -0.2678
 3690THY    HP392234   3.112   8.726   9.393 -0.2286 -0.8251  2.2265
 3690THY    HP492235   3.080   8.562   9.412 -0.2065 -0.0557 -0.2211
 3690THY    CP392236   3.291   8.695   9.177  0.2880 -0.2166  0.1765
 3690THY    HP592237   3.297   8.670   9.070  1.1478  1.7714 -0.2983
 3690THY    HP692238   3.266   8.802   9.178 -2.4138 -0.7533  2.0171
 3690THY    HP792239   3.385   8.678   9.229  0.3412 -0.6807 -0.0651
 3690THY    CA392240   3.329   8.400   9.243 -0.4736  0.2881 -0.0735
 3690THY    HA392241   3.398   8.452   9.309 -0.8879  1.1628 -0.3273
 3690THY    CA492242   3.353   8.264   9.227  0.3716 -0.0456 -0.3075
 3690THY    HA492243   3.448   8.227   9.263  0.9501  1.9871  0.3845
 3690THY    CA592244   3.263   8.193   9.150  0.5664 -0.8623 -0.4221
 3690THY    CM192245   3.278   8.050   9.132 -0.0266  0.3906 -0.1790
 3690THY    HM192246   3.371   8.029   9.076 -0.3687 -1.6876 -0.0429
 3690THY    HM292247   3.286   7.996   9.227  1.4212 -3.0712 -2.0473
 3690THY    HM392248   3.188   8.009   9.085  1.4950 -2.4033 -0.9450
 3690THY    CA692249   3.151   8.257   9.098 -0.2147 -0.4039  0.2116
 3690THY    HA692250   3.100   8.205   9.017  2.3218  0.1103 -1.8287
 3691THY      O92251   4.474   5.041   5.686 -0.4134 -0.2380  0.1749
 3691THY     HO92252   4.567   5.055   5.712 -0.6126  1.5677  0.0552
 3691THY    CA192253   4.453   4.917   5.635 -0.4715 -0.1665  0.5051
 3691THY    CA292254   4.353   4.836   5.681  0.4685  0.0325 -0.0410
 3691THY    CP192255   4.242   4.898   5.777  0.2765 -0.4154  0.2936
 3691THY    HP192256   4.288   4.985   5.825  0.7019 -0.1291 -0.6031
 3691THY    CP292257   4.110   4.940   5.703 -0.4641 -0.2617 -0.2661
 3691THY    HP292258   4.075   4.856   5.642  0.3068  1.4090 -3.1625
 3691THY    HP392259   4.034   4.975   5.774  0.6488 -0.2739  0.9599
 3691THY    HP492260   4.132   5.028   5.642  2.8736 -0.9728 -0.2590
 3691THY    CP392261   4.194   4.799   5.886 -0.0945  0.0111  0.0109
 3691THY    HP592262   4.132   4.831   5.970  1.9328  0.7874  1.2825
 3691THY    HP692263   4.136   4.717   5.842 -0.1223  0.2579 -0.4120
 3691THY    HP792264   4.283   4.755   5.932  0.4382  2.0613  1.0177
 3691THY    CA392265   4.352   4.711   5.618 -0.0329  0.5443 -0.4654
 3691THY    HA392266   4.264   4.651   5.641  0.4444  0.1815  0.4670
 3691THY    CA492267   4.444   4.667   5.523  0.1072  0.2773  0.4798
 3691THY    HA492268   4.420   4.578   5.465 -2.6946  0.3896  1.3099
 3691THY    CA592269   4.546   4.753   5.484 -0.0897 -0.2948 -0.4960
 3691THY    CM192270   4.656   4.721   5.387  0.0206 -0.1263 -0.8202
 3691THY    HM192271   4.721   4.639   5.421 -0.5716 -0.4356 -0.4214
 3691THY    HM292272   4.616   4.692   5.289  1.9706 -0.1471 -1.6632
 3691THY    HM392273   4.726   4.803   5.369  2.1951 -2.0185 -1.4673
 3691THY    CA692274   4.551   4.877   5.546  0.5801  0.3545 -1.0109
 3691THY    HA692275   4.626   4.951   5.517  2.2699 -0.9015 -0.0474
 3692THY      O92276   0.277   7.499   7.212 -0.0933  0.0240 -0.9291
 3692THY     HO92277   0.278   7.534   7.121 -2.8477  0.5383 -0.8604
 3692THY    CA192278   0.393   7.535   7.267 -0.1642  0.3604 -0.2988
 3692THY    CA292279   0.406   7.539   7.409  0.9367 -0.2564 -0.5533
 3692THY    CP192280   0.290   7.493   7.510  0.1438  0.3257  0.1254
 3692THY    HP192281   0.200   7.468   7.453 -0.6572 -1.4204  2.0139
 3692THY    CP292282   0.332   7.380   7.602  0.0407 -0.6729 -0.2734
 3692THY    HP292283   0.245   7.333   7.650  1.4098 -1.8318  1.1454
 3692THY    HP392284   0.379   7.305   7.538 -0.2155  0.2319 -1.5588
 3692THY    HP492285   0.403   7.426   7.672 -1.6800  1.6976  0.0654
 3692THY    CP392286   0.242   7.603   7.603 -0.1198  0.0209 -0.1455
 3692THY    HP592287   0.188   7.673   7.538 -1.5975 -2.2198 -1.4656
 3692THY    HP692288   0.184   7.559   7.685  3.4879 -3.6388  0.7894
 3692THY    HP792289   0.322   7.661   7.651  0.3850 -0.2380 -0.6726
 3692THY    CA392290   0.524   7.582   7.466  0.0073  0.5320  0.0163
 3692THY    HA392291   0.541   7.575   7.574  1.1177 -3.1495 -0.2522
 3692THY    CA492292   0.636   7.620   7.385 -0.0764  0.3331 -0.0680
 3692THY    HA492293   0.725   7.658   7.434 -0.0679 -0.7134  0.7806
 3692THY    CA592294   0.615   7.617   7.247 -0.7611  0.1560  0.0463
 3692THY    CM192295   0.722   7.653   7.157  0.2707 -0.6410  0.5984
 3692THY    HM192296   0.754   7.566   7.098  1.7990  0.9748 -1.0908
 3692THY    HM292297   0.693   7.745   7.105  0.4929 -0.3252  1.0228
 3692THY    HM392298   0.807   7.680   7.221  1.7147  0.5783 -1.6864
 3692THY    CA692299   0.495   7.577   7.190 -0.1552  0.1622  0.3686
 3692THY    HA692300   0.479   7.584   7.083  0.6179 -2.8771 -0.0418
 3693THY      O92301   4.712   9.577   1.214 -0.0629  0.2280 -0.0440
 3693THY     HO92302   4.636   9.609   1.162  2.7439  2.0615 -3.4573
 3693THY    CA192303   4.775   9.486   1.140 -0.0931  0.5004  0.1205
 3693THY    CA292304   4.793   9.504   1.003 -0.5068 -0.0397 -0.1049
 3693THY    CP192305   4.745   9.637   0.936  0.0936 -0.6645  0.0540
 3693THY    HP192306   4.712   9.712   1.010 -1.1174 -2.0134  0.9410
 3693THY    CP292307   4.870   9.715   0.872  0.8268  0.2937  0.2992
 3693THY    HP292308   4.912   9.651   0.794 -1.2222  0.0746 -0.6720
 3693THY    HP392309   4.823   9.802   0.826  0.0057 -1.1287 -1.6564
 3693THY    HP492310   4.945   9.753   0.943 -0.0088 -1.3620  2.1622
 3693THY    CP392311   4.650   9.618   0.823 -0.3779  0.4009  0.5734
 3693THY    HP592312   4.679   9.530   0.766  2.7986  0.4663  1.8606
 3693THY    HP692313   4.550   9.605   0.866 -1.2134  1.6259 -0.8792
 3693THY    HP792314   4.642   9.694   0.744  3.3858  0.7069  0.2917
 3693THY    CA392315   4.848   9.404   0.923 -0.3852  0.3144 -0.4207
 3693THY    HA392316   4.851   9.408   0.815 -0.3329 -2.5428 -0.5966
 3693THY    CA492317   4.881   9.279   0.982 -0.5398 -0.1280 -0.0179
 3693THY    HA492318   4.917   9.198   0.919  1.2158 -1.3507  2.4020
 3693THY    CA592319   4.853   9.259   1.117  0.6002 -0.1180 -0.7048
 3693THY    CM192320   4.883   9.123   1.181 -0.0344  0.3826  1.2128
 3693THY    HM192321   4.854   9.113   1.286  0.2646  0.1363  1.2734
 3693THY    HM292322   4.831   9.045   1.122 -0.0927  0.2605  1.4253
 3693THY    HM392323   4.987   9.097   1.157 -0.6873  0.2783 -2.0693
 3693THY    CA692324   4.806   9.364   1.197  0.4619 -0.2303 -0.0382
 3693THY    HA692325   4.783   9.351   1.302  2.4853  1.4549  0.6550
 3694THY      O92326   2.852   6.038   5.161  0.3172 -0.4615  0.1705
 3694THY     HO92327   2.863   6.017   5.255  0.3711 -0.6750  0.1177
 3694THY    CA192328   2.940   5.961   5.093  0.9374  0.8995 -0.2243
 3694THY    CA292329   2.972   5.984   4.959  0.1887 -0.6299 -0.4818
 3694THY    CP192330   2.915   6.109   4.886  0.1634 -0.1291  0.5332
 3694THY    HP192331   2.813   6.131   4.919 -0.0081 -1.0101  0.6373
 3694THY    CP292332   2.991   6.231   4.919 -0.6662 -0.6694 -0.3913
 3694THY    HP292333   2.950   6.314   4.860 -0.5366  1.8081  2.7636
 3694THY    HP392334   2.973   6.263   5.022  0.0867  1.1267 -0.7817
 3694THY    HP492335   3.099   6.229   4.898 -0.8362 -3.1264 -1.3879
 3694THY    CP392336   2.911   6.106   4.732  0.0523 -0.0415  0.1678
 3694THY    HP592337   2.845   6.023   4.704 -1.1963  0.6192  1.0490
 3694THY    HP692338   2.869   6.198   4.690 -1.2167 -0.0446  1.3593
 3694THY    HP792339   3.006   6.099   4.677 -0.3544  0.4006 -0.6103
 3694THY    CA392340   3.078   5.911   4.900  0.0723  0.6919 -0.2617
 3694THY    HA392341   3.108   5.925   4.797  0.5750 -0.0777 -0.2282
 3694THY    CA492342   3.144   5.817   4.976  0.1566  0.3355  0.1331
 3694THY    HA492343   3.220   5.761   4.922 -1.6857 -1.9788 -0.2071
 3694THY    CA592344   3.115   5.795   5.109 -0.2178 -0.2520  0.0677
 3694THY    CM192345   3.189   5.689   5.196  0.9328  0.3187 -0.0465
 3694THY    HM192346   3.271   5.637   5.147  1.9904  0.1437  1.8376
 3694THY    HM292347   3.223   5.728   5.293 -0.8536  1.3519  0.2206
 3694THY    HM392348   3.115   5.610   5.213 -2.2505  3.3185  1.4434
 3694THY    CA692349   3.009   5.871   5.169 -1.1226 -0.7797 -0.4537
 3694THY    HA692350   2.985   5.860   5.275 -2.0186  1.2308 -0.4051
 3695THY      O92351   7.907   8.622   8.728 -0.6825 -0.2149 -0.3022
 3695THY     HO92352   7.956   8.578   8.799  0.7690  1.4468 -0.2013
 3695THY    CA192353   7.889   8.527   8.633  0.5906  0.0417  1.3347
 3695THY    CA292354   7.780   8.542   8.541 -0.7222 -0.5748  0.5108
 3695THY    CP192355   7.690   8.661   8.538  0.0993 -0.4474 -0.0630
 3695THY    HP192356   7.757   8.746   8.556 -1.7083  1.3934 -1.5040
 3695THY    CP292357   7.608   8.691   8.411  0.0869  0.3232  0.4493
 3695THY    HP292358   7.664   8.733   8.327  0.1201 -1.5450 -0.5196
 3695THY    HP392359   7.553   8.601   8.380 -3.7109  2.0406  1.6038
 3695THY    HP492360   7.524   8.758   8.435  1.1126  0.6648  3.5823
 3695THY    CP392361   7.587   8.644   8.654  0.1000  0.3259  0.1149
 3695THY    HP592362   7.629   8.629   8.754  2.0374 -2.4554 -0.9914
 3695THY    HP692363   7.531   8.737   8.674 -0.2669 -0.0816  1.0194
 3695THY    HP792364   7.529   8.552   8.645 -0.1789  0.5476 -0.3997
 3695THY    CA392365   7.778   8.433   8.452 -0.3836  0.2452 -1.0492
 3695THY    HA392366   7.698   8.419   8.379  1.0151  0.3976 -2.6765
 3695THY    CA492367   7.872   8.326   8.463 -0.4721  0.9051 -0.2706
 3695THY    HA492368   7.860   8.237   8.401 -1.1070 -0.3007  1.5168
 3695THY    CA592369   7.976   8.322   8.551 -0.7987  0.1339  0.0480
 3695THY    CM192370   8.069   8.205   8.566  0.8163  0.1626  0.1979
 3695THY    HM192371   8.054   8.114   8.507  2.0798 -0.3730  0.6603
 3695THY    HM292372   8.175   8.233   8.560  1.1233 -1.0222 -0.0993
 3695THY    HM392373   8.060   8.157   8.664 -0.8310  1.2867  0.6378
 3695THY    CA692374   7.982   8.425   8.645 -0.5703  0.7232 -0.3243
 3695THY    HA692375   8.055   8.424   8.725 -1.5919  0.0045  0.6240
 3696THY      O92376   1.956   2.388   0.366  0.5439 -0.8681 -0.0654
 3696THY     HO92377   1.893   2.346   0.305  0.8204 -0.5644 -0.5791
 3696THY    CA192378   1.980   2.508   0.306  0.4733 -0.4696 -0.3681
 3696THY    CA292379   1.987   2.628   0.386  0.0645  0.6976  0.3491
 3696THY    CP192380   1.960   2.620   0.533  0.0496  0.4900 -0.7948
 3696THY    HP192381   1.992   2.522   0.571  1.2625  1.5244  0.9926
 3696THY    CP292382   2.033   2.729   0.611 -0.0960 -0.1955  0.0056
 3696THY    HP292383   2.028   2.720   0.720  0.7163  0.3690  0.0942
 3696THY    HP392384   2.136   2.743   0.578  0.3242 -1.4318  0.7318
 3696THY    HP492385   1.976   2.822   0.596 -2.2607 -1.6625 -1.6608
 3696THY    CP392386   1.806   2.613   0.569  0.3179 -0.3377 -0.4703
 3696THY    HP592387   1.762   2.714   0.562  2.4897  0.8325  1.4024
 3696THY    HP692388   1.746   2.544   0.509 -0.4521  0.0497 -0.1624
 3696THY    HP792389   1.787   2.591   0.674 -0.1353  1.2168 -0.1906
 3696THY    CA392390   2.010   2.750   0.315 -0.5349 -0.4453 -0.3119
 3696THY    HA392391   2.002   2.845   0.367  0.7133 -0.5519  0.0971
 3696THY    CA492392   2.025   2.752   0.175 -0.2445  0.5193 -0.0139
 3696THY    HA492393   2.032   2.850   0.128  1.8444  0.3186 -0.2077
 3696THY    CA592394   2.032   2.629   0.102  0.0611 -0.1675 -0.1753
 3696THY    CM192395   2.033   2.624  -0.047  0.1030  0.1383 -0.0691
 3696THY    HM192396   1.998   2.719  -0.089  2.4213  0.0315 -2.5077
 3696THY    HM292397   2.128   2.599  -0.096  0.6582 -0.9609  1.5143
 3696THY    HM392398   1.954   2.560  -0.090 -0.3326  2.5530 -3.2313
 3696THY    CA692399   2.015   2.511   0.172  0.1746 -0.6366  0.0472
 3696THY    HA692400   2.030   2.421   0.112 -0.7084 -1.4462  0.9856
 3697THY      O92401   6.115   0.374   3.508  0.5019  0.4761  0.2092
 3697THY     HO92402   6.108   0.335   3.419 -0.1815 -0.0503  0.4864
 3697THY    CA192403   6.210   0.308   3.578 -0.7958  0.0759 -0.3682
 3697THY    CA292404   6.237   0.342   3.710  0.0450  0.4645 -0.2993
 3697THY    CP192405   6.154   0.451   3.778  0.2689  0.0695 -0.5087
 3697THY    HP192406   6.104   0.509   3.699  0.4317 -0.3473 -0.9236
 3697THY    CP292407   6.034   0.388   3.855 -0.2365 -0.5457  0.4754
 3697THY    HP292408   5.949   0.357   3.792  1.0638 -0.0343 -1.6108
 3697THY    HP392409   6.071   0.300   3.909  0.0255  0.2455  1.6055
 3697THY    HP492410   5.987   0.456   3.928  0.4992  0.2601  0.2085
 3697THY    CP392411   6.237   0.535   3.878 -0.8591 -0.0736 -0.9610
 3697THY    HP592412   6.275   0.471   3.959 -0.9909  0.5215 -0.4148
 3697THY    HP692413   6.321   0.572   3.818  0.6260 -1.4856  0.1516
 3697THY    HP792414   6.181   0.619   3.921  0.3180  0.4159 -0.3062
 3697THY    CA392415   6.338   0.282   3.786 -0.5702  0.3551 -0.0366
 3697THY    HA392416   6.342   0.291   3.894 -3.0592 -0.7128  0.2133
 3697THY    CA492417   6.429   0.200   3.710 -0.0340  0.0355  0.3828
 3697THY    HA492418   6.512   0.145   3.755  0.7588 -1.8817 -3.0915
 3697THY    CA592419   6.410   0.178   3.572 -0.3962 -0.2825 -0.3270
 3697THY    CM192420   6.512   0.090   3.496 -0.4962  0.5539 -0.1972
 3697THY    HM192421   6.613   0.126   3.519 -0.9016  1.0204  0.9431
 3697THY    HM292422   6.492  -0.005   3.547 -0.0354  0.3334 -0.4281
 3697THY    HM392423   6.505   0.102   3.388  2.8912  2.1051 -0.3691
 3697THY    CA692424   6.297   0.223   3.506 -0.4274 -0.0623 -0.3667
 3697THY    HA692425   6.281   0.193   3.403  0.4214  1.1484 -0.8739
 3698THY      O92426   6.568   4.209   7.449  0.4658 -0.4606  0.6866
 3698THY     HO92427   6.557   4.188   7.355  1.0524 -0.7183  0.6721
 3698THY    CA192428   6.450   4.242   7.496  0.4933 -0.1349  0.0951
 3698THY    CA292429   6.434   4.332   7.609 -0.3164  0.4956  0.0322
 3698THY    CP192430   6.557   4.390   7.679  0.0467 -0.6411 -0.4426
 3698THY    HP192431   6.654   4.342   7.659  1.1810 -0.0685  2.9471
 3698THY    CP292432   6.574   4.535   7.643  0.3552 -0.1238  0.8219
 3698THY    HP292433   6.599   4.551   7.538 -1.5414  0.8906  0.4781
 3698THY    HP392434   6.482   4.591   7.668 -0.8494 -2.4372  1.9398
 3698THY    HP492435   6.655   4.572   7.706  0.3855  0.0444  0.6844
 3698THY    CP392436   6.544   4.369   7.832 -0.1205 -0.4307  0.3604
 3698THY    HP592437   6.637   4.384   7.888 -1.2052  0.0439  2.1134
 3698THY    HP692438   6.463   4.426   7.879 -1.3318 -1.5036 -0.3628
 3698THY    HP792439   6.508   4.266   7.848 -0.6807 -0.2115  0.5544
 3698THY    CA392440   6.304   4.363   7.648 -1.0360 -0.1568 -0.3390
 3698THY    HA392441   6.279   4.426   7.733 -2.0893  0.0338 -0.7832
 3698THY    CA492442   6.198   4.297   7.589  0.3648  0.1407  0.4508
 3698THY    HA492443   6.097   4.331   7.611  0.8048  0.2972  2.3677
 3698THY    CA592444   6.212   4.207   7.484 -0.1927 -0.5463  0.8228
 3698THY    CM192445   6.101   4.138   7.431  0.0322  0.8657  0.1302
 3698THY    HM192446   6.121   4.106   7.328 -0.5109  1.3233 -0.1312
 3698THY    HM292447   6.073   4.048   7.487 -0.5424  1.6440  1.1308
 3698THY    HM392448   6.014   4.204   7.419  0.7239  1.9500  0.9259
 3698THY    CA692449   6.339   4.184   7.436 -0.2656  0.2054 -0.2388
 3698THY    HA692450   6.358   4.119   7.351  4.4159 -0.5874  1.1615
 3699THY      O92451   4.428   9.437   9.038  0.4149 -0.2176  0.2426
 3699THY     HO92452   4.404   9.518   9.086  0.0840  0.1777 -0.5749
 3699THY    CA192453   4.535   9.460   8.964 -0.2326  0.3568 -0.5094
 3699THY    CA292454   4.601   9.356   8.892 -0.1438 -0.8655 -1.1584
 3699THY    CP192455   4.556   9.207   8.912 -0.7673  0.0287  0.0273
 3699THY    HP192456   4.466   9.200   8.975 -2.9021 -3.0694 -3.0106
 3699THY    CP292457   4.531   9.133   8.784 -0.5274 -0.2875  0.2965
 3699THY    HP292458   4.616   9.126   8.715 -1.7213 -1.2848 -1.1537
 3699THY    HP392459   4.499   9.029   8.793 -0.4335 -0.3472 -0.0292
 3699THY    HP492460   4.460   9.185   8.719  0.4580  0.6957 -0.0153
 3699THY    CP392461   4.661   9.136   9.001 -0.4500 -0.2165 -0.2238
 3699THY    HP592462   4.611   9.043   9.030  0.6636 -0.5857  0.5630
 3699THY    HP692463   4.748   9.116   8.938 -1.6952 -3.0582 -1.2207
 3699THY    HP792464   4.682   9.191   9.094  0.6845 -2.0492  0.6719
 3699THY    CA392465   4.707   9.386   8.810  0.1706  0.3031 -0.6393
 3699THY    HA392466   4.757   9.306   8.757  2.1792 -0.1291  1.7451
 3699THY    CA492467   4.736   9.524   8.779  0.1070 -0.1154  0.3475
 3699THY    HA492468   4.811   9.542   8.703  0.0048  1.6324  0.6358
 3699THY    CA592469   4.665   9.624   8.840 -0.5680  0.0109 -0.4250
 3699THY    CM192470   4.710   9.768   8.811  0.3882 -0.5105 -0.0308
 3699THY    HM192471   4.819   9.768   8.793  0.5064 -0.3304  0.6755
 3699THY    HM292472   4.655   9.803   8.722  0.3641 -0.0095  0.1755
 3699THY    HM392473   4.681   9.840   8.888  0.1138 -1.9012  1.1928
 3699THY    CA692474   4.572   9.592   8.941  0.2195  0.1868 -0.6787
 3699THY    HA692475   4.515   9.671   8.990 -0.7879 -0.1133 -1.3334
 3700THY      O92476   3.100   6.584   1.875 -0.2500 -0.3242  0.0950
 3700THY     HO92477   3.131   6.495   1.851 -1.2236 -0.8684  0.7947
 3700THY    CA192478   2.985   6.594   1.808  0.5733  1.1083 -0.3040
 3700THY    CA292479   2.891   6.696   1.818  0.2534 -0.3277 -0.0335
 3700THY    CP192480   2.927   6.826   1.908 -0.1463  0.4114  0.5001
 3700THY    HP192481   2.979   6.795   2.000 -0.7083 -2.6309 -0.0948
 3700THY    CP292482   3.019   6.926   1.830 -0.3215  0.7980 -0.3307
 3700THY    HP292483   3.014   7.021   1.885  0.0492  1.3782 -1.2850
 3700THY    HP392484   3.119   6.882   1.819 -0.3822  0.1704  1.2896
 3700THY    HP492485   2.981   6.949   1.730 -0.3731  0.1799 -0.4535
 3700THY    CP392486   2.802   6.904   1.952  0.1556 -0.0139 -0.3720
 3700THY    HP592487   2.754   6.950   1.864 -0.4548  0.3766  0.1569
 3700THY    HP692488   2.736   6.827   1.992  0.3164 -1.2993 -2.4147
 3700THY    HP792489   2.824   6.984   2.025 -2.2375  3.2638 -2.9107
 3700THY    CA392490   2.775   6.699   1.740 -0.2243  0.6709 -0.1051
 3700THY    HA392491   2.696   6.774   1.745 -1.5770 -0.7640  1.0397
 3700THY    CA492492   2.750   6.586   1.656  0.3114  0.8761 -0.4415
 3700THY    HA492493   2.657   6.576   1.601 -0.6877  1.3817  1.1011
 3700THY    CA592494   2.846   6.487   1.642  0.0437 -0.3090 -0.4161
 3700THY    CM192495   2.835   6.369   1.551  0.7821 -0.2607  0.2036
 3700THY    HM192496   2.930   6.343   1.503 -0.3507 -1.3601 -1.5382
 3700THY    HM292497   2.794   6.283   1.605  1.0348 -0.4166  0.1488
 3700THY    HM392498   2.763   6.387   1.471 -0.4418  2.2379  1.7275
 3700THY    CA692499   2.961   6.487   1.721 -0.3212 -0.6484 -0.3244
 3700THY    HA692500   3.026   6.400   1.717  0.9202  0.2881 -1.2948
 3701THY      O92501   4.705   0.167   6.056 -0.5266  0.2091 -0.6288
 3701THY     HO92502   4.647   0.114   5.998 -0.5379 -1.0064  0.4566
 3701THY    CA192503   4.671   0.295   6.034 -0.0415  0.2283  0.5895
 3701THY    CA292504   4.768   0.396   6.060 -0.5069  0.0698  0.5928
 3701THY    CP192505   4.901   0.369   6.121 -0.7224 -0.1713  0.1864
 3701THY    HP192506   4.892   0.279   6.183  0.1825 -1.5675 -1.6211
 3701THY    CP292507   4.999   0.337   6.006  0.0770  0.6794  0.2850
 3701THY    HP292508   4.963   0.243   5.961  0.6398 -0.1489  1.5106
 3701THY    HP392509   4.992   0.415   5.929 -2.3718  2.0256  1.7552
 3701THY    HP492510   5.104   0.325   6.037 -0.0279  2.5271  1.4377
 3701THY    CP392511   4.970   0.483   6.204  0.6930 -0.6767  0.6581
 3701THY    HP592512   4.902   0.543   6.265  0.1848  0.2763 -0.7874
 3701THY    HP692513   5.051   0.441   6.265  0.6994 -0.5372  0.7463
 3701THY    HP792514   5.015   0.561   6.142  1.7979 -2.1124 -0.4090
 3701THY    CA392515   4.735   0.527   6.028 -0.2114 -0.3021  0.2438
 3701THY    HA392516   4.813   0.598   6.052  1.1318 -0.9427 -1.8647
 3701THY    CA492517   4.612   0.560   5.976 -0.3742  0.2667  0.3579
 3701THY    HA492518   4.588   0.665   5.964 -0.4980  0.4459  1.9486
 3701THY    CA592519   4.515   0.458   5.949  0.5143  0.2405 -0.2671
 3701THY    CM192520   4.366   0.501   5.926  0.1145  0.6216  0.2918
 3701THY    HM192521   4.345   0.481   5.820  0.7943 -0.0727  0.2778
 3701THY    HM292522   4.309   0.437   5.995  0.6214  0.4173  0.5272
 3701THY    HM392523   4.346   0.602   5.963  0.7462  0.0528  2.3453
 3701THY    CA692524   4.554   0.321   5.972 -0.4525 -0.0911 -0.0699
 3701THY    HA692525   4.475   0.247   5.969 -1.5475  1.0361 -0.2013
 3702THY      O92526   5.177   1.388   8.172  0.6349 -0.0022 -1.1059
 3702THY     HO92527   5.129   1.361   8.252  0.7954 -0.9456 -1.3174
 3702THY    CA192528   5.301   1.423   8.223 -0.3682 -0.1108  0.5045
 3702THY    CA292529   5.403   1.456   8.134  0.3494  0.5169 -0.8383
 3702THY    CP192530   5.384   1.462   7.984  0.5119  0.8894  0.6739
 3702THY    HP192531   5.285   1.435   7.947  1.7746 -3.2494 -0.2584
 3702THY    CP292532   5.408   1.608   7.951 -0.1860  1.0104  0.2716
 3702THY    HP292533   5.412   1.636   7.845 -0.7812  0.8072  0.1930
 3702THY    HP392534   5.329   1.660   8.005 -0.6067  1.0910 -0.4043
 3702THY    HP492535   5.500   1.643   7.999  0.1297  0.7344 -0.1200
 3702THY    CP392536   5.475   1.367   7.899  1.0454  0.4130  0.6571
 3702THY    HP592537   5.454   1.383   7.793 -0.1142  0.0969  0.8271
 3702THY    HP692538   5.581   1.393   7.914  0.7071  0.7436  2.9097
 3702THY    HP792539   5.463   1.259   7.916 -1.3247  0.8868  2.4841
 3702THY    CA392540   5.529   1.474   8.189 -0.6013  0.1785 -0.6431
 3702THY    HA392541   5.614   1.501   8.126  1.0788  0.7231  1.7265
 3702THY    CA492542   5.550   1.457   8.332 -0.2567 -0.2962 -0.0501
 3702THY    HA492543   5.649   1.457   8.377 -1.2156 -0.8708  2.1788
 3702THY    CA592544   5.436   1.436   8.420  0.8895  0.5173 -0.1752
 3702THY    CM192545   5.445   1.428   8.573  0.3251  0.6400 -0.2584
 3702THY    HM192546   5.526   1.484   8.621  0.6604 -1.0945  1.3328
 3702THY    HM292547   5.353   1.474   8.612  0.5570  0.2448  0.8079
 3702THY    HM392548   5.450   1.329   8.619  0.4813 -0.5466 -2.6959
 3702THY    CA692549   5.311   1.415   8.362 -0.7743 -0.0788  0.8084
 3702THY    HA692550   5.232   1.380   8.427  0.7454  0.8659  3.3130
 3703THY      O92551   0.284   2.516   6.803 -0.0417 -0.3163  0.4964
 3703THY     HO92552   0.192   2.515   6.772  0.1925 -0.8405 -0.2039
 3703THY    CA192553   0.349   2.566   6.696 -0.6088 -0.0947 -0.3944
 3703THY    CA292554   0.476   2.627   6.708 -0.0555 -0.5044  0.2433
 3703THY    CP192555   0.535   2.653   6.847  0.1639  0.1350 -0.4913
 3703THY    HP192556   0.477   2.597   6.922 -1.2744 -0.9513 -2.3336
 3703THY    CP292557   0.681   2.614   6.855 -0.7649  0.4390  0.8361
 3703THY    HP292558   0.688   2.508   6.828  1.9124  0.0011  2.8790
 3703THY    HP392559   0.741   2.657   6.774 -1.6085  0.7838  0.3800
 3703THY    HP492560   0.726   2.607   6.954 -2.5813 -2.0154  1.5871
 3703THY    CP392561   0.524   2.798   6.883  0.1591  0.2202  0.2851
 3703THY    HP592562   0.437   2.813   6.947 -0.9341 -2.2750 -0.4837
 3703THY    HP692563   0.615   2.832   6.935 -0.0397 -0.4882  1.1265
 3703THY    HP792564   0.517   2.864   6.796  2.8635  0.3073  0.0394
 3703THY    CA392565   0.540   2.692   6.604  0.0077 -0.6073 -0.2416
 3703THY    HA392566   0.632   2.750   6.615 -0.7498  0.1305  3.4008
 3703THY    CA492567   0.478   2.675   6.478  1.1742 -0.7465 -0.3416
 3703THY    HA492568   0.529   2.721   6.394  2.2497  0.5481  0.9591
 3703THY    CA592569   0.352   2.606   6.458 -0.1294  0.4055 -0.8909
 3703THY    CM192570   0.282   2.611   6.328  0.1813 -0.3299  0.0659
 3703THY    HM192571   0.265   2.512   6.284 -0.0816  0.3227 -1.3664
 3703THY    HM292572   0.184   2.655   6.350 -0.2542 -1.0591 -0.3743
 3703THY    HM392573   0.327   2.679   6.255  1.0004 -0.1689  0.7031
 3703THY    CA692574   0.290   2.550   6.570 -0.0298  0.5921 -0.4341
 3703THY    HA692575   0.193   2.500   6.566  1.1539 -2.0902  1.0879
 3704THY      O92576   2.977   7.269   8.923  0.6282  0.6637  0.7532
 3704THY     HO92577   2.997   7.226   9.008 -0.0055  1.4159  1.3091
 3704THY    CA192578   3.085   7.337   8.886 -0.2952  0.2695  0.0729
 3704THY    CA292579   3.090   7.429   8.779 -0.1354 -0.4809 -0.1324
 3704THY    CP192580   2.974   7.452   8.683 -1.0352 -0.6237 -0.1197
 3704THY    HP192581   2.899   7.374   8.702  0.2824 -1.9122 -0.0190
 3704THY    CP292582   2.919   7.588   8.701  0.3804 -0.9835 -0.3043
 3704THY    HP292583   2.848   7.622   8.624  1.7301 -1.8231 -1.9927
 3704THY    HP392584   2.875   7.594   8.801  0.2026  1.3033 -0.4721
 3704THY    HP492585   3.002   7.659   8.702 -0.7729  0.4562  1.7976
 3704THY    CP392586   3.007   7.420   8.537  0.2558  0.1113 -0.4835
 3704THY    HP592587   2.910   7.402   8.488  0.8263 -1.6465 -1.0542
 3704THY    HP692588   3.063   7.502   8.491  0.4948 -0.7441 -1.7846
 3704THY    HP792589   3.073   7.332   8.532  0.8200  0.5450 -0.7527
 3704THY    CA392590   3.208   7.504   8.757  0.4056 -0.7063 -0.1492
 3704THY    HA392591   3.200   7.583   8.683 -0.2024  0.2105  0.8692
 3704THY    CA492592   3.318   7.499   8.844  0.1102 -0.4716 -0.2971
 3704THY    HA492593   3.403   7.562   8.821  0.4137 -0.5840  0.5090
 3704THY    CA592594   3.320   7.399   8.943 -0.8582  0.4236  0.0786
 3704THY    CM192595   3.439   7.392   9.030 -0.0757 -0.3512  0.1957
 3704THY    HM192596   3.500   7.301   9.019  0.3081 -0.0358 -0.3572
 3704THY    HM292597   3.503   7.480   9.025  0.0248 -0.4009  0.5356
 3704THY    HM392598   3.408   7.390   9.135 -2.2766  0.5759 -0.3923
 3704THY    CA692599   3.200   7.328   8.971  0.3642 -0.4767  0.2138
 3704THY    HA692600   3.195   7.263   9.058 -0.7112 -0.7237 -0.0193
 3705THY      O92601   2.359   7.936   2.975 -0.0537 -0.2739  0.5443
 3705THY     HO92602   2.393   7.984   2.898  1.3356 -1.1563  0.5645
 3705THY    CA192603   2.335   7.813   2.923  0.4664 -0.3316  0.5311
 3705THY    CA292604   2.303   7.701   3.000 -0.5618  0.1775  0.2745
 3705THY    CP192605   2.289   7.702   3.149  0.2941  0.0952 -0.3453
 3705THY    HP192606   2.329   7.793   3.195 -1.4211  0.1588  1.1500
 3705THY    CP292607   2.138   7.699   3.180 -0.3657 -0.3282 -0.6028
 3705THY    HP292608   2.101   7.775   3.111  0.0764  0.7039  0.2477
 3705THY    HP392609   2.096   7.599   3.163  0.5775 -0.6829 -0.9142
 3705THY    HP492610   2.115   7.734   3.282 -0.1921 -1.1227 -0.2797
 3705THY    CP392611   2.356   7.579   3.212 -0.0193  0.0879 -0.1126
 3705THY    HP592612   2.295   7.488   3.208  0.1165  0.0361 -2.6396
 3705THY    HP692613   2.453   7.546   3.175 -0.6499 -0.9124 -0.9468
 3705THY    HP792614   2.382   7.608   3.315  2.1557  2.0633 -1.1534
 3705THY    CA392615   2.269   7.577   2.938 -0.0316 -0.3723  0.5053
 3705THY    HA392616   2.224   7.496   2.995 -1.3342 -0.5748 -0.7628
 3705THY    CA492617   2.288   7.564   2.802  0.1690 -0.1490 -0.2139
 3705THY    HA492618   2.260   7.470   2.757  1.5121 -0.0840 -1.2550
 3705THY    CA592619   2.328   7.675   2.724  0.5120  0.0729  0.4250
 3705THY    CM192620   2.358   7.659   2.576 -0.2081 -0.0017 -0.3729
 3705THY    HM192621   2.382   7.748   2.516  0.1749 -0.5295 -1.0163
 3705THY    HM292622   2.439   7.588   2.558  1.5234  1.1481  2.2385
 3705THY    HM392623   2.269   7.615   2.529 -0.4733 -0.4333  0.5161
 3705THY    CA692624   2.352   7.798   2.785  0.8762 -0.2727  0.0047
 3705THY    HA692625   2.384   7.880   2.721  0.9840 -0.9753 -0.8604
 3706THY      O92626   8.057   0.216   2.275 -0.2744 -0.0197 -0.2250
 3706THY     HO92627   8.138   0.266   2.257 -0.3300  0.2520  0.2742
 3706THY    CA192628   7.984   0.271   2.372  0.4730 -0.3834  0.2738
 3706THY    CA292629   7.912   0.201   2.467 -0.2390 -0.0959  0.0024
 3706THY    CP192630   7.907   0.053   2.461  0.1733 -0.2216  0.4972
 3706THY    HP192631   8.004   0.024   2.419 -0.1366 -0.9965  0.2887
 3706THY    CP292632   7.895  -0.019   2.591 -0.0577  0.7007  0.0105
 3706THY    HP292633   7.799  -0.015   2.644 -0.8343 -4.7554 -0.3081
 3706THY    HP392634   7.909  -0.127   2.577  0.1306  0.6843  0.3156
 3706THY    HP492635   7.974   0.018   2.656 -0.4306  2.0772 -0.2938
 3706THY    CP392636   7.804   0.007   2.358  0.0473 -0.5109 -0.1232
 3706THY    HP592637   7.705   0.043   2.390  1.0366  0.8501  1.5928
 3706THY    HP692638   7.825   0.062   2.265 -0.1311 -0.0869  0.0832
 3706THY    HP792639   7.802  -0.102   2.348 -1.5132 -0.6368  1.1042
 3706THY    CA392640   7.855   0.271   2.576  0.1774  0.3040  0.1269
 3706THY    HA392641   7.808   0.222   2.661 -2.9272  2.6604 -0.0479
 3706THY    CA492642   7.873   0.414   2.578 -0.9332 -0.6132 -0.3361
 3706THY    HA492643   7.840   0.471   2.664  0.8469  1.1631 -0.7604
 3706THY    CA592644   7.930   0.475   2.468 -0.7275 -0.1506  0.3730
 3706THY    CM192645   7.940   0.625   2.462 -0.1239 -0.0330 -0.5033
 3706THY    HM192646   7.873   0.675   2.532  0.4225 -1.4615  1.1016
 3706THY    HM292647   8.043   0.659   2.481  0.1172 -2.0795  2.5606
 3706THY    HM392648   7.910   0.654   2.361  0.0515  0.7004 -0.3483
 3706THY    CA692649   7.986   0.405   2.365  0.7660  0.3750 -0.4180
 3706THY    HA692650   8.029   0.444   2.273 -0.1978 -2.4633 -2.1997
 3707THY      O92651   9.531   0.272   8.715  0.1302 -0.3450  0.3172
 3707THY     HO92652   9.545   0.232   8.802  0.7006 -0.2227  0.2852
 3707THY    CA192653   9.399   0.270   8.687 -0.1849  0.4469  0.0657
 3707THY    CA292654   9.353   0.335   8.573 -0.8573  0.0590  0.1963
 3707THY    CP192655   9.460   0.378   8.471 -0.0113 -0.2675  0.1270
 3707THY    HP192656   9.533   0.436   8.529 -0.4938 -0.4126  0.8910
 3707THY    CP292657   9.531   0.266   8.397 -0.5655  0.5617  0.4096
 3707THY    HP292658   9.599   0.310   8.324 -0.1449 -1.0264 -0.1997
 3707THY    HP392659   9.597   0.210   8.464 -0.3471  0.7969  0.3917
 3707THY    HP492660   9.457   0.204   8.344 -1.2998  2.1842 -0.5154
 3707THY    CP392661   9.409   0.482   8.371 -0.3179 -0.3439 -0.0992
 3707THY    HP592662   9.333   0.435   8.309  2.0618 -0.0079 -3.5448
 3707THY    HP692663   9.370   0.572   8.421  0.0171  0.4185 -1.1654
 3707THY    HP792664   9.499   0.503   8.311  0.0571 -0.9539  0.2361
 3707THY    CA392665   9.215   0.341   8.563  0.1006 -0.2188 -0.3152
 3707THY    HA392666   9.170   0.370   8.469  1.2761 -0.4369 -0.9771
 3707THY    CA492667   9.130   0.281   8.661 -0.4022 -0.2751  0.2943
 3707THY    HA492668   9.022   0.279   8.649 -0.3278 -2.1319 -0.5536
 3707THY    CA592669   9.179   0.225   8.779  0.3238 -0.3553  0.4826
 3707THY    CM192670   9.104   0.169   8.888  0.0739  0.0022 -0.5941
 3707THY    HM192671   9.129   0.072   8.932 -0.4419 -0.2382 -0.8207
 3707THY    HM292672   9.102   0.241   8.972  0.8533  0.4201 -0.9261
 3707THY    HM392673   8.996   0.156   8.873  0.0445 -0.7483  0.1847
 3707THY    CA692674   9.317   0.219   8.790 -0.6452  0.2611 -0.2378
 3707THY    HA692675   9.364   0.179   8.879  0.2240 -0.2166 -0.8922
 3708THY      O92676   6.123   1.177   4.809 -0.2352  0.4569 -0.2421
 3708THY     HO92677   6.045   1.139   4.851  0.6303  0.6809  1.6824
 3708THY    CA192678   6.152   1.288   4.875 -0.0386  0.2147 -0.4989
 3708THY    CA292679   6.195   1.407   4.807  0.1529 -0.1904 -0.5193
 3708THY    CP192680   6.218   1.407   4.660 -0.3857  0.2000  0.2749
 3708THY    HP192681   6.240   1.301   4.640 -0.2334  0.0783  1.0191
 3708THY    CP292682   6.102   1.439   4.580 -0.5149 -0.5858 -0.3026
 3708THY    HP292683   6.068   1.542   4.600 -0.6389 -1.3170  4.0189
 3708THY    HP392684   6.115   1.410   4.475 -1.2919 -1.5551 -0.1358
 3708THY    HP492685   6.019   1.374   4.606  0.6774 -1.7265  0.7806
 3708THY    CP392686   6.345   1.477   4.609  0.6015 -0.1452  0.8512
 3708THY    HP592687   6.356   1.468   4.500  1.9018  2.0343  0.7284
 3708THY    HP692688   6.342   1.585   4.625  0.5101  0.4316 -2.3162
 3708THY    HP792689   6.426   1.435   4.669 -0.3858 -0.8887  1.7002
 3708THY    CA392690   6.227   1.517   4.886 -0.7589 -0.2218  0.3051
 3708THY    HA392691   6.248   1.611   4.837  0.7244 -0.6385  0.0940
 3708THY    CA492692   6.204   1.517   5.023  0.0290 -0.4059  0.3992
 3708THY    HA492693   6.215   1.605   5.086  0.7441 -0.6206  0.5870
 3708THY    CA592694   6.170   1.401   5.088 -0.9494  0.9333  0.3082
 3708THY    CM192695   6.155   1.399   5.237 -0.1106  0.2540  0.3402
 3708THY    HM192696   6.121   1.303   5.278 -1.7976  0.3884 -0.6363
 3708THY    HM292697   6.252   1.420   5.283 -0.5006  1.9807  0.4236
 3708THY    HM392698   6.087   1.475   5.276 -0.0261 -0.1389  1.2878
 3708THY    CA692699   6.136   1.285   5.013 -0.0506 -0.1869  0.2498
 3708THY    HA692700   6.099   1.195   5.060  1.8742 -0.8178  0.6514
 3709THY      O92701   9.659   6.691   4.065  0.1773 -0.1817 -0.1762
 3709THY     HO92702   9.578   6.689   4.118 -0.5300  0.3301 -1.1999
 3709THY    CA192703   9.718   6.574   4.097  0.0676 -0.2405  0.1705
 3709THY    CA292704   9.852   6.547   4.065  0.0509 -0.2076  0.0925
 3709THY    CP192705   9.932   6.649   3.985 -0.0048  0.0825 -0.4131
 3709THY    HP192706   9.877   6.744   3.995  1.3563  0.6955  2.2919
 3709THY    CP292707  10.072   6.682   4.040 -0.4962 -0.0422 -0.4854
 3709THY    HP292708  10.069   6.711   4.146 -0.2587 -1.4019 -0.0888
 3709THY    HP392709  10.129   6.589   4.032  0.3605  0.2701  1.3722
 3709THY    HP492710  10.111   6.767   3.983 -2.2325  1.3204  0.2702
 3709THY    CP392711   9.939   6.611   3.840 -0.7132  0.0313 -0.6225
 3709THY    HP592712  10.030   6.553   3.823 -2.0290 -2.7508  1.1138
 3709THY    HP692713   9.862   6.536   3.815  2.5401 -3.4742 -0.9893
 3709THY    HP792714   9.934   6.695   3.769  0.2762 -0.5467 -1.3981
 3709THY    CA392715   9.900   6.416   4.096 -0.1607 -0.0419 -0.0917
 3709THY    HA392716  10.001   6.387   4.069  0.8300 -0.0464  3.1962
 3709THY    CA492717   9.820   6.321   4.156  0.2491  0.1250 -0.1496
 3709THY    HA492718   9.844   6.215   4.157 -3.4000 -0.9358 -2.6903
 3709THY    CA592719   9.690   6.355   4.194  0.3209 -0.0653  0.0289
 3709THY    CM192720   9.594   6.258   4.249  0.1322 -0.0425 -0.2299
 3709THY    HM192721   9.561   6.299   4.345  0.0182  1.4126 -0.8519
 3709THY    HM292722   9.507   6.243   4.183  0.2297  0.4722 -0.4806
 3709THY    HM392723   9.641   6.160   4.263 -1.1047 -0.4070  1.7236
 3709THY    CA692724   9.640   6.485   4.167  0.1122 -0.4500 -1.1115
 3709THY    HA692725   9.538   6.518   4.182  0.0736  0.2180 -2.6882
 3710THY      O92726   5.723   2.821   2.727  0.1962  0.0860 -0.0936
 3710THY     HO92727   5.804   2.874   2.717 -1.6166  2.8939 -0.7926
 3710THY    CA192728   5.632   2.908   2.688 -0.1811  0.2606  0.1215
 3710THY    CA292729   5.501   2.857   2.675  0.3001 -0.0684  0.1409
 3710THY    CP192730   5.459   2.715   2.692 -0.1415 -0.0900 -0.7591
 3710THY    HP192731   5.551   2.656   2.689 -0.2987 -0.3468 -0.5624
 3710THY    CP292732   5.376   2.710   2.819 -0.1602  0.4572 -0.8856
 3710THY    HP292733   5.346   2.613   2.860  0.4181  1.0350  1.0099
 3710THY    HP392734   5.436   2.734   2.908 -1.2135 -3.4426  1.1185
 3710THY    HP492735   5.280   2.763   2.826 -0.9015 -1.0184  1.1145
 3710THY    CP392736   5.383   2.673   2.568  0.0766 -0.3589 -0.1822
 3710THY    HP592737   5.427   2.701   2.472 -0.4125 -0.6071 -0.4761
 3710THY    HP692738   5.380   2.564   2.558  0.5144 -0.2154 -2.3288
 3710THY    HP792739   5.281   2.711   2.577 -0.5312 -2.2718  1.9376
 3710THY    CA392740   5.403   2.957   2.650  0.2540  0.1611  0.5335
 3710THY    HA392741   5.298   2.936   2.632  0.4586 -0.7242  0.3274
 3710THY    CA492742   5.440   3.089   2.642  0.6868 -0.3774 -0.2119
 3710THY    HA492743   5.365   3.167   2.636  0.1970 -0.1534  4.9113
 3710THY    CA592744   5.571   3.132   2.661 -0.2559  0.3614  0.8582
 3710THY    CM192745   5.603   3.281   2.658 -0.1984  0.4007  0.0753
 3710THY    HM192746   5.520   3.334   2.610  1.1890  1.8266 -0.8401
 3710THY    HM292747   5.615   3.327   2.757 -0.7864 -1.2790  0.9616
 3710THY    HM392748   5.683   3.310   2.589 -0.4503  0.2347 -0.2923
 3710THY    CA692749   5.664   3.040   2.683 -0.3577 -0.1124 -0.1233
 3710THY    HA692750   5.763   3.075   2.710 -0.1254 -1.4678  0.8954
 3711THY      O92751   8.568   7.831   8.839  0.1510 -0.0903  0.5178
 3711THY     HO92752   8.596   7.915   8.879  1.5534 -0.7050  0.8733
 3711THY    CA192753   8.585   7.743   8.931  0.1361 -0.1468 -0.7818
 3711THY    CA292754   8.553   7.605   8.908  0.9056 -0.8798 -0.7100
 3711THY    CP192755   8.513   7.544   8.779  0.5800  0.0076 -0.0943
 3711THY    HP192756   8.521   7.626   8.708  0.0691  2.4901  2.5272
 3711THY    CP292757   8.589   7.420   8.738 -0.6336  0.6083  0.3007
 3711THY    HP292758   8.562   7.336   8.804  2.0274  1.2870  2.3969
 3711THY    HP392759   8.573   7.409   8.630 -1.4376  0.9051  0.3786
 3711THY    HP492760   8.698   7.421   8.745 -0.3870 -0.4441 -2.1127
 3711THY    CP392761   8.368   7.508   8.762  0.2270 -0.3843  0.0346
 3711THY    HP592762   8.350   7.475   8.659 -0.8683 -1.2126  0.4701
 3711THY    HP692763   8.330   7.438   8.838 -2.7745  2.5173  1.4652
 3711THY    HP792764   8.308   7.596   8.785  1.1801  0.8315 -1.9103
 3711THY    CA392765   8.567   7.519   9.020 -0.1743  0.2914  0.2469
 3711THY    HA392766   8.534   7.416   9.018  1.6910 -0.3223 -0.4507
 3711THY    CA492767   8.601   7.568   9.149 -0.6386  0.5857  0.2155
 3711THY    HA492768   8.615   7.504   9.235  1.4648  0.6588 -0.0222
 3711THY    CA592769   8.637   7.702   9.166  0.0137  0.1802  0.7113
 3711THY    CM192770   8.652   7.751   9.308 -0.2424  0.2598  0.1017
 3711THY    HM192771   8.724   7.688   9.362 -0.9881 -0.1462  0.6544
 3711THY    HM292772   8.701   7.848   9.324  1.0944 -0.3580 -0.1277
 3711THY    HM392773   8.556   7.744   9.361  0.9232  1.8026  2.5912
 3711THY    CA692774   8.625   7.788   9.061 -0.7288 -0.3059  0.0566
 3711THY    HA692775   8.636   7.894   9.085  1.8051 -0.5676  0.3058
 3712THY      O92776   6.316   9.335   2.022 -0.0389 -0.3677 -0.1772
 3712THY     HO92777   6.300   9.243   2.047 -0.8364 -0.1292  0.2004
 3712THY    CA192778   6.269   9.409   2.127  0.1447  0.1955 -0.3687
 3712THY    CA292779   6.261   9.550   2.122  0.4312  0.5167 -0.2876
 3712THY    CP192780   6.318   9.620   1.994 -0.3457 -0.3476 -0.2946
 3712THY    HP192781   6.384   9.558   1.933  0.8739 -0.9855  1.5791
 3712THY    CP292782   6.211   9.665   1.902 -0.0449  0.2722  0.5153
 3712THY    HP292783   6.135   9.714   1.963  0.1939 -1.6081  2.4570
 3712THY    HP392784   6.242   9.732   1.821 -0.1590 -0.8812 -0.5246
 3712THY    HP492785   6.147   9.588   1.856  0.5261  1.0925 -1.7865
 3712THY    CP392786   6.407   9.739   2.038 -0.2124  0.0825 -0.2025
 3712THY    HP592787   6.347   9.811   2.096 -0.2054 -0.2254  0.1949
 3712THY    HP692788   6.491   9.706   2.101 -0.8059  1.3883  1.3699
 3712THY    HP792789   6.451   9.788   1.951  1.1545 -0.3378  0.2340
 3712THY    CA392790   6.213   9.614   2.234  0.7291 -0.1951  0.3043
 3712THY    HA392791   6.199   9.722   2.236  2.7680  0.1168  1.4696
 3712THY    CA492792   6.162   9.542   2.345  0.0429  0.5155  0.4000
 3712THY    HA492793   6.103   9.591   2.422  0.1787  0.3305  0.6249
 3712THY    CA592794   6.176   9.402   2.344  0.4612 -0.4561 -0.5491
 3712THY    CM192795   6.137   9.324   2.466 -0.0864 -0.2698 -0.3180
 3712THY    HM192796   6.090   9.391   2.539 -1.4872 -0.5725 -0.9103
 3712THY    HM292797   6.076   9.234   2.451  0.4857 -0.6482 -0.4051
 3712THY    HM392798   6.231   9.284   2.507  0.3528  1.0587  0.0378
 3712THY    CA692799   6.234   9.333   2.241 -0.2308 -0.4453  0.5805
 3712THY    HA692800   6.252   9.226   2.243  0.6963 -0.3051  0.1724
 3713THY      O92801   2.412   2.428   9.254 -0.2879  0.1033  0.1051
 3713THY     HO92802   2.446   2.430   9.345  2.3804  1.8941 -0.8243
 3713THY    CA192803   2.283   2.464   9.263 -0.4749  0.9603  0.6120
 3713THY    CA292804   2.209   2.500   9.153  0.5178 -0.6008  0.6121
 3713THY    CP192805   2.277   2.497   9.015 -0.0469  0.0439 -0.5545
 3713THY    HP192806   2.385   2.514   9.014  0.1493 -0.9957 -2.3608
 3713THY    CP292807   2.257   2.363   8.945  0.3120  0.2143  0.5321
 3713THY    HP292808   2.269   2.276   9.011 -1.0502 -0.6898 -0.3496
 3713THY    HP392809   2.156   2.352   8.903  1.3941  2.3929 -3.1916
 3713THY    HP492810   2.326   2.357   8.860 -1.3751 -1.7209 -0.8029
 3713THY    CP392811   2.212   2.602   8.922  0.3061 -0.1761  0.8899
 3713THY    HP592812   2.278   2.617   8.835  1.8175  0.9491  2.1497
 3713THY    HP692813   2.113   2.580   8.882 -0.1241 -0.5696  2.1341
 3713THY    HP792814   2.212   2.695   8.981 -0.3587  1.3510 -1.3786
 3713THY    CA392815   2.075   2.535   9.165  0.6060 -0.1511 -1.0253
 3713THY    HA392816   2.014   2.559   9.079 -1.4769  0.0519  0.4289
 3713THY    CA492817   2.011   2.525   9.294  0.2386 -0.2799  0.1101
 3713THY    HA492818   1.905   2.539   9.312  0.0034  0.6451 -1.6977
 3713THY    CA592819   2.090   2.490   9.409  0.2718  0.0309  0.0768
 3713THY    CM192820   2.028   2.470   9.548  0.5496 -0.2143  0.6977
 3713THY    HM192821   2.038   2.558   9.612  1.3842 -0.9118  1.5784
 3713THY    HM292822   1.923   2.439   9.542  0.2366  0.9671 -0.1475
 3713THY    HM392823   2.074   2.386   9.604  3.1184 -0.2970 -1.3306
 3713THY    CA692824   2.229   2.462   9.391 -0.0303 -0.7761  0.0317
 3713THY    HA692825   2.290   2.422   9.471 -1.7872 -1.4762  1.0701
 3714THY      O92826   2.704   6.160   1.101 -0.0284 -0.1239  0.1768
 3714THY     HO92827   2.749   6.133   1.019  0.3656  2.3866 -0.5097
 3714THY    CA192828   2.577   6.114   1.087  0.2712  0.5686  0.0905
 3714THY    CA292829   2.483   6.118   1.188  1.2890 -0.2443 -0.8541
 3714THY    CP192830   2.522   6.167   1.327  0.3586  0.3133 -0.0082
 3714THY    HP192831   2.629   6.195   1.322 -0.0849  1.9555 -2.4656
 3714THY    CP292832   2.439   6.288   1.371  0.3343 -0.0739  0.0492
 3714THY    HP292833   2.470   6.375   1.311  0.3566 -0.7455 -0.9427
 3714THY    HP392834   2.335   6.260   1.352 -0.0347  1.9506 -1.2189
 3714THY    HP492835   2.455   6.303   1.478  0.0698 -3.6401  0.7307
 3714THY    CP392836   2.524   6.045   1.425 -1.0088  0.6548 -0.8241
 3714THY    HP592837   2.577   5.965   1.373  0.5044  2.3106 -1.9699
 3714THY    HP692838   2.569   6.068   1.522 -0.0530  2.1796 -1.5839
 3714THY    HP792839   2.422   6.008   1.443  0.1368 -2.6392 -0.4621
 3714THY    CA392840   2.361   6.049   1.170  1.0069 -0.8955 -0.2304
 3714THY    HA392841   2.296   6.030   1.255  0.4478 -0.5301 -0.5740
 3714THY    CA492842   2.337   5.982   1.055  0.1598 -0.9261  0.0679
 3714THY    HA492843   2.251   5.916   1.057  0.9269 -1.9934  2.4230
 3714THY    CA592844   2.428   5.981   0.952  0.3527  0.1249  0.5064
 3714THY    CM192845   2.412   5.905   0.811 -0.4980  0.0254 -0.4382
 3714THY    HM192846   2.320   5.846   0.811 -1.3032  1.2330  0.7763
 3714THY    HM292847   2.416   5.981   0.731  1.7920  0.1451 -0.2990
 3714THY    HM392848   2.486   5.825   0.797 -1.0704 -0.5878 -0.0313
 3714THY    CA692849   2.549   6.054   0.969  0.5592 -0.1865 -1.0237
 3714THY    HA692850   2.625   6.044   0.892  0.9184 -1.9482 -0.4664
 3715THY      O92851   3.593   0.445   4.904 -0.1761 -0.1248 -0.3948
 3715THY     HO92852   3.546   0.362   4.885  0.2887 -0.3072 -0.7800
 3715THY    CA192853   3.684   0.466   4.804 -0.0402 -0.3086 -0.6781
 3715THY    CA292854   3.765   0.580   4.802 -0.7345  0.2165 -0.2692
 3715THY    CP192855   3.762   0.675   4.917  0.3708 -0.5030  0.4156
 3715THY    HP192856   3.742   0.619   5.009  1.5672  1.1049  1.7263
 3715THY    CP292857   3.895   0.730   4.961  0.3727  0.2621 -0.0595
 3715THY    HP292858   3.953   0.644   4.996 -1.1969 -1.6215 -1.8449
 3715THY    HP392859   3.950   0.786   4.884  2.0344 -0.1237  0.7839
 3715THY    HP492860   3.882   0.795   5.049 -2.8601 -0.7008  0.2989
 3715THY    CP392861   3.659   0.788   4.895  0.1357 -0.5882 -0.3383
 3715THY    HP592862   3.564   0.752   4.852  0.1802 -1.8173  0.5640
 3715THY    HP692863   3.648   0.836   4.992 -1.2124 -2.2488  0.3963
 3715THY    HP792864   3.693   0.868   4.828 -1.6432  0.2064 -0.3689
 3715THY    CA392865   3.852   0.595   4.694  0.2163 -1.0367 -0.3931
 3715THY    HA392866   3.912   0.686   4.691 -0.8895 -0.3151 -1.3709
 3715THY    CA492867   3.851   0.513   4.581  0.5309 -0.7309 -0.4637
 3715THY    HA492868   3.906   0.540   4.491 -0.1078  1.0879 -0.3526
 3715THY    CA592869   3.763   0.401   4.575 -0.3754 -0.5580 -0.2196
 3715THY    CM192870   3.754   0.312   4.451 -0.8939 -0.2486  0.4206
 3715THY    HM192871   3.734   0.374   4.363  1.5418  0.2409  0.1474
 3715THY    HM292872   3.854   0.270   4.433 -1.1568 -1.1194  0.9025
 3715THY    HM392873   3.690   0.224   4.466 -0.8237 -0.3389  0.1841
 3715THY    CA692874   3.684   0.380   4.689  0.0626  0.3732 -0.9084
 3715THY    HA692875   3.616   0.295   4.682 -0.9048  0.9404  0.9738
 3716THY      O92876   6.941   7.330   7.863 -0.5752  0.2466 -0.6540
 3716THY     HO92877   6.943   7.411   7.917  3.1538  0.3226 -0.6899
 3716THY    CA192878   7.012   7.378   7.757  0.4066  0.0174 -0.3059
 3716THY    CA292879   7.008   7.325   7.632 -0.5348  0.4885 -0.0573
 3716THY    CP192880   6.910   7.211   7.592 -0.0007 -0.2298  0.1473
 3716THY    HP192881   6.895   7.139   7.674 -1.0232 -0.0412  0.1407
 3716THY    CP292882   6.774   7.259   7.561  0.1222 -0.1485  0.4354
 3716THY    HP292883   6.764   7.305   7.462  1.5331 -2.8932 -1.1156
 3716THY    HP392884   6.717   7.167   7.545 -1.0318  0.7895 -1.0461
 3716THY    HP492885   6.735   7.335   7.630  1.2070  1.2646 -0.4379
 3716THY    CP392886   6.965   7.127   7.476  0.0847 -0.1432 -0.1571
 3716THY    HP592887   7.061   7.080   7.497  0.9777  2.3352  1.7858
 3716THY    HP692888   6.887   7.051   7.459 -0.8098  0.7611 -0.2215
 3716THY    HP792889   6.972   7.186   7.384 -1.0972 -2.1520 -1.6012
 3716THY    CA392890   7.096   7.385   7.533 -0.2623  0.1918 -0.2463
 3716THY    HA392891   7.090   7.357   7.428 -0.3183  0.7576 -0.3981
 3716THY    CA492892   7.179   7.490   7.563  0.7129  0.3606 -0.2454
 3716THY    HA492893   7.248   7.540   7.497  1.2360 -0.6375 -0.4707
 3716THY    CA592894   7.176   7.545   7.692 -0.0951 -1.3766  0.2962
 3716THY    CM192895   7.243   7.672   7.735 -0.2762 -0.0621 -0.1984
 3716THY    HM192896   7.332   7.695   7.675  0.0244 -1.8489 -0.4848
 3716THY    HM292897   7.178   7.760   7.720  1.0052  1.0700  0.6267
 3716THY    HM392898   7.283   7.673   7.836  1.9172 -0.3166 -1.0108
 3716THY    CA692899   7.092   7.484   7.783  0.3282 -0.2990 -0.3154
 3716THY    HA692900   7.091   7.526   7.884  1.6995 -1.0962  0.0618
 3717THY      O92901   3.570   2.402   8.642 -0.4940  0.1122  0.0899
 3717THY     HO92902   3.536   2.460   8.572 -0.2292 -0.9447 -0.9603
 3717THY    CA192903   3.567   2.274   8.593  0.2328 -0.4033 -0.4684
 3717THY    CA292904   3.622   2.170   8.678  0.1357 -0.2630  0.5170
 3717THY    CP192905   3.694   2.193   8.805  0.5490 -0.3519  0.0491
 3717THY    HP192906   3.723   2.298   8.802 -1.6542  0.3719  1.2306
 3717THY    CP292907   3.590   2.206   8.922  0.1982 -0.0214  0.5100
 3717THY    HP292908   3.523   2.289   8.900  2.4944  1.2753 -2.2480
 3717THY    HP392909   3.546   2.109   8.946  0.6560  0.2726  2.7849
 3717THY    HP492910   3.644   2.243   9.010  3.0869  0.4450 -1.3088
 3717THY    CP392911   3.816   2.111   8.849 -0.1559 -1.1375  0.0664
 3717THY    HP592912   3.798   2.007   8.880  0.9546 -0.9673  1.3651
 3717THY    HP692913   3.885   2.114   8.764  0.7064 -0.0147  0.7816
 3717THY    HP792914   3.852   2.163   8.938 -1.1813 -0.5150  0.1373
 3717THY    CA392915   3.608   2.041   8.619  0.0407  0.1977  0.4801
 3717THY    HA392916   3.666   1.965   8.669  0.5283  2.1961  3.1787
 3717THY    CA492917   3.548   2.018   8.494  0.0616  0.6333  0.4238
 3717THY    HA492918   3.553   1.922   8.444 -4.1296  0.2054  0.4674
 3717THY    CA592919   3.503   2.123   8.423  0.7439  0.5505  0.5439
 3717THY    CM192920   3.439   2.097   8.289  0.0558 -0.2481 -0.8497
 3717THY    HM192921   3.419   2.190   8.234  2.7534 -0.2602 -2.0231
 3717THY    HM292922   3.517   2.050   8.228  0.2486  0.6463 -1.3192
 3717THY    HM392923   3.350   2.037   8.309  0.7136 -0.5368  1.5841
 3717THY    CA692924   3.511   2.253   8.469 -0.0120 -0.9427  0.5224
 3717THY    HA692925   3.472   2.337   8.413 -0.4424 -0.4764  1.4967
 3718THY      O92926   9.196   4.647   0.042  0.0476  0.0333  0.2504
 3718THY     HO92927   9.201   4.550   0.047  4.8318 -0.2257 -3.0934
 3718THY    CA192928   9.275   4.672  -0.060  0.0657  0.6508 -0.5602
 3718THY    CA292929   9.350   4.796  -0.057 -0.2592  0.0976  0.3934
 3718THY    CP192930   9.357   4.890   0.064  0.7045  0.8069 -0.5908
 3718THY    HP192931   9.318   4.848   0.158  1.3054 -0.5540 -0.9357
 3718THY    CP292932   9.509   4.906   0.099 -0.6624 -0.3907  0.2908
 3718THY    HP292933   9.562   4.962   0.021 -1.1925 -0.0174  0.1894
 3718THY    HP392934   9.521   4.957   0.196  1.4957 -2.1509  1.0441
 3718THY    HP492935   9.557   4.808   0.107  3.5169  1.2529 -1.6986
 3718THY    CP392936   9.301   5.029   0.033  1.0103 -0.3043 -0.5534
 3718THY    HP592937   9.193   5.038   0.050  0.5481 -1.3488 -2.6162
 3718THY    HP692938   9.352   5.089   0.109  1.2107  0.8713 -1.5906
 3718THY    HP792939   9.323   5.056  -0.071 -0.8463 -0.2336 -0.9467
 3718THY    CA392940   9.428   4.830  -0.169 -0.0410  0.1096  0.4111
 3718THY    HA392941   9.488   4.920  -0.169  0.4603 -0.2067  1.5533
 3718THY    CA492942   9.429   4.743  -0.280  0.4268 -0.6463  0.3862
 3718THY    HA492943   9.484   4.774  -0.369 -1.4744  3.2544  0.3611
 3718THY    CA592944   9.351   4.629  -0.277 -0.2880  0.7962  0.1074
 3718THY    CM192945   9.347   4.538  -0.395  0.6850  0.0953  0.3136
 3718THY    HM192946   9.324   4.437  -0.358  0.4220  1.0606  2.9958
 3718THY    HM292947   9.279   4.569  -0.476 -0.6455 -2.0707  0.5144
 3718THY    HM392948   9.439   4.529  -0.453  1.4492 -2.4143  1.7508
 3718THY    CA692949   9.268   4.593  -0.171  0.0194  0.1045  0.5148
 3718THY    HA692950   9.209   4.502  -0.169  0.7474 -0.3703  1.3715
 3719THY      O92951   3.983   3.543   7.458 -0.6366 -0.1485 -0.2127
 3719THY     HO92952   3.967   3.621   7.402  2.9640  0.0753 -1.1612
 3719THY    CA192953   3.984   3.600   7.581 -0.0035 -0.2187  0.5720
 3719THY    CA292954   4.023   3.528   7.700  0.2727  0.1333  0.0569
 3719THY    CP192955   4.045   3.376   7.698 -0.1553  0.3511  0.6111
 3719THY    HP192956   4.077   3.356   7.595 -2.0227 -1.0830  0.2546
 3719THY    CP292957   4.157   3.325   7.797 -0.0941 -0.0378  0.2498
 3719THY    HP292958   4.240   3.396   7.806  0.1579 -0.1590 -0.9400
 3719THY    HP392959   4.120   3.305   7.899  2.0098 -0.8193  0.9044
 3719THY    HP492960   4.207   3.232   7.769  0.6150  0.9451 -1.9583
 3719THY    CP392961   3.920   3.289   7.711  0.9798  0.1044  0.5100
 3719THY    HP592962   3.945   3.183   7.697 -0.1679 -0.1624  0.3624
 3719THY    HP692963   3.871   3.296   7.809 -0.6551  0.9439 -0.3285
 3719THY    HP792964   3.848   3.321   7.634  0.1171 -0.9348  0.8502
 3719THY    CA392965   4.025   3.595   7.830 -0.2710 -0.2385 -0.1397
 3719THY    HA392966   4.049   3.540   7.921  1.0553  0.3348 -0.1166
 3719THY    CA492967   3.995   3.729   7.828  0.3512 -0.4437 -0.0870
 3719THY    HA492968   3.991   3.791   7.917  1.4099  2.3173 -1.8519
 3719THY    CA592969   3.944   3.793   7.710 -0.6281  0.4755 -0.2723
 3719THY    CM192970   3.875   3.928   7.727  0.3961  0.3647  0.3414
 3719THY    HM192971   3.890   3.993   7.640  0.5461 -0.5676 -0.3522
 3719THY    HM292972   3.767   3.918   7.737  0.1641 -0.2154 -1.9777
 3719THY    HM392973   3.904   3.980   7.819  0.1077  0.2486  0.4981
 3719THY    CA692974   3.947   3.733   7.587 -0.1946 -0.1149  0.8735
 3719THY    HA692975   3.915   3.782   7.495  0.1711 -1.5211 -0.0476
 3720THY      O92976   5.615   0.263   5.337  0.3656  0.0204 -0.5474
 3720THY     HO92977   5.540   0.231   5.390 -0.1162  0.4702 -0.9517
 3720THY    CA192978   5.558   0.326   5.234 -0.1472  0.2520 -0.0822
 3720THY    CA292979   5.611   0.446   5.177 -0.4287  0.4506  0.1719
 3720THY    CP192980   5.726   0.520   5.252  0.3102 -0.1059  0.2631
 3720THY    HP192981   5.705   0.502   5.358 -0.1867 -1.0101  0.0211
 3720THY    CP292982   5.861   0.469   5.209  0.3010  0.2518 -0.6050
 3720THY    HP292983   5.937   0.477   5.287  1.0102 -1.5417 -1.0656
 3720THY    HP392984   5.854   0.363   5.184 -0.3174  0.7311 -2.6652
 3720THY    HP492985   5.908   0.529   5.130 -1.1934  1.3616 -0.7176
 3720THY    CP392986   5.717   0.671   5.231  0.6020  0.0603  0.0352
 3720THY    HP592987   5.768   0.728   5.309 -1.8269  3.4662 -0.6228
 3720THY    HP692988   5.771   0.699   5.140  0.0317  1.8214  0.1887
 3720THY    HP792989   5.614   0.711   5.234  1.1118  1.3803  1.7682
 3720THY    CA392990   5.548   0.498   5.069  0.8070  0.1713  0.3096
 3720THY    HA392991   5.573   0.594   5.025  1.5566  0.3955  1.1999
 3720THY    CA492992   5.438   0.433   5.014 -0.3437  0.3499 -0.5764
 3720THY    HA492993   5.394   0.476   4.925 -3.1793  1.7525  1.3719
 3720THY    CA592994   5.384   0.316   5.072 -0.1019  0.1321 -0.0839
 3720THY    CM192995   5.273   0.241   4.999 -1.0069  0.0722 -0.3239
 3720THY    HM192996   5.305   0.196   4.905  0.7306 -0.4678  0.4807
 3720THY    HM292997   5.228   0.167   5.067  0.7273  0.8067  1.7369
 3720THY    HM392998   5.204   0.321   4.968  0.6457  2.3720  1.5764
 3720THY    CA692999   5.447   0.264   5.187 -0.0989  0.0692  0.2164
 3720THY    HA693000   5.420   0.168   5.228  1.7761 -0.7919 -0.4297
 3721THY      O93001   7.565   4.800   5.260  0.0240  0.2814 -0.0398
 3721THY     HO93002   7.583   4.863   5.333  0.2391 -1.4365  1.4592
 3721THY    CA193003   7.633   4.690   5.305 -0.0678 -0.5102 -1.0115
 3721THY    CA293004   7.603   4.558   5.270 -0.3225 -0.1674  0.0169
 3721THY    CP193005   7.474   4.537   5.191  0.0667 -0.4557 -0.2340
 3721THY    HP193006   7.402   4.614   5.220 -0.8974 -1.4151 -0.0177
 3721THY    CP293007   7.514   4.557   5.044  0.0853  0.4559  0.6702
 3721THY    HP293008   7.590   4.484   5.015 -0.4060  0.1714  0.0818
 3721THY    HP393009   7.427   4.535   4.981  1.7122  0.7825 -1.8087
 3721THY    HP493010   7.539   4.662   5.024 -1.3441  0.1638 -3.6797
 3721THY    CP393011   7.409   4.393   5.201  0.5467 -0.5876 -0.8011
 3721THY    HP593012   7.370   4.372   5.302  2.1980 -0.0603 -0.0079
 3721THY    HP693013   7.322   4.386   5.135 -0.7756 -0.7487  0.8986
 3721THY    HP793014   7.487   4.320   5.176  0.4570 -1.2166  0.6290
 3721THY    CA393015   7.677   4.449   5.325  0.3846 -0.5629 -0.1331
 3721THY    HA393016   7.645   4.347   5.305 -0.2229 -0.8304  2.0250
 3721THY    CA493017   7.789   4.480   5.405 -0.3648 -0.5154 -0.2901
 3721THY    HA493018   7.835   4.393   5.451 -0.3535 -0.7166 -0.6747
 3721THY    CA593019   7.821   4.614   5.437  0.1069 -0.0770  0.3475
 3721THY    CM193020   7.954   4.644   5.502  0.2600 -0.0770  0.7339
 3721THY    HM193021   7.998   4.549   5.535  0.3445 -0.7305 -1.1542
 3721THY    HM293022   8.020   4.690   5.428 -0.2545 -1.7690 -0.8609
 3721THY    HM393023   7.929   4.712   5.585 -1.7639  1.9068 -1.3437
 3721THY    CA693024   7.743   4.715   5.383  0.2409  0.2575  0.2216
 3721THY    HA693025   7.772   4.818   5.400 -1.9110  0.8689  0.5440
 3722THY      O93026   2.117   0.957   8.412  0.1806 -0.0970  0.3473
 3722THY     HO93027   2.182   0.885   8.398 -0.7596 -0.9982  0.4493
 3722THY    CA193028   2.019   0.890   8.484 -0.6367 -0.1327  0.9031
 3722THY    CA293029   1.896   0.956   8.511 -0.2656  0.2388 -0.5724
 3722THY    CP193030   1.879   1.107   8.484  0.0078 -0.3916 -0.1922
 3722THY    HP193031   1.939   1.139   8.398  0.5526  1.0655  0.6871
 3722THY    CP293032   1.722   1.135   8.462 -0.2974 -0.8383 -0.3452
 3722THY    HP293033   1.721   1.243   8.443 -1.0516 -0.6015  0.9247
 3722THY    HP393034   1.672   1.087   8.377 -3.1160  0.4694  0.4275
 3722THY    HP493035   1.663   1.122   8.554  1.4711  0.3006  1.0225
 3722THY    CP393036   1.924   1.189   8.605 -0.3081  0.4007  0.5368
 3722THY    HP593037   1.923   1.298   8.593 -0.4629  0.3225 -0.2303
 3722THY    HP693038   1.856   1.173   8.689 -0.6569  2.6057  0.7348
 3722THY    HP793039   2.026   1.155   8.626 -0.3522 -1.1591 -1.4134
 3722THY    CA393040   1.797   0.870   8.570 -0.0255 -0.5906 -0.4231
 3722THY    HA393041   1.701   0.918   8.588 -0.4607 -1.2068 -1.0426
 3722THY    CA493042   1.826   0.732   8.602  0.3610  0.1707 -0.4841
 3722THY    HA493043   1.752   0.658   8.630  0.8693 -0.6967 -1.3931
 3722THY    CA593044   1.956   0.681   8.579 -0.2967  0.5069  0.6606
 3722THY    CM193045   2.004   0.540   8.625  0.3733 -0.1894 -0.2724
 3722THY    HM193046   2.041   0.481   8.540 -1.0725 -0.9419 -0.4283
 3722THY    HM293047   2.081   0.549   8.702  1.3475  1.9134 -1.4173
 3722THY    HM393048   1.922   0.483   8.671  0.1399  1.6358  1.7124
 3722THY    CA693049   2.047   0.760   8.516  0.1960 -0.3362  0.5798
 3722THY    HA693050   2.143   0.715   8.492  0.2942 -0.9332  1.9883
 3723THY      O93051   2.827   9.542   0.995 -0.0045 -0.1019 -0.2704
 3723THY     HO93052   2.902   9.581   0.948 -0.2930 -0.0398 -0.6886
 3723THY    CA193053   2.764   9.464   0.902 -0.5266 -0.1639 -0.2377
 3723THY    CA293054   2.626   9.456   0.899 -0.6165  0.4950 -0.1141
 3723THY    CP193055   2.536   9.539   0.988 -0.5092 -0.0586 -1.0152
 3723THY    HP193056   2.594   9.618   1.038 -2.3241  1.5382 -1.3497
 3723THY    CP293057   2.439   9.626   0.904 -0.4646  0.6231 -0.1464
 3723THY    HP293058   2.395   9.704   0.967  2.4537  1.3541  1.1328
 3723THY    HP393059   2.502   9.677   0.830  2.7182 -1.4154  0.9744
 3723THY    HP493060   2.368   9.562   0.850  0.9542 -0.7350 -0.4808
 3723THY    CP393061   2.458   9.466   1.103  0.4361  0.1151  0.0703
 3723THY    HP593062   2.362   9.427   1.070 -0.3661  0.8480  1.4423
 3723THY    HP693063   2.500   9.370   1.137  0.5675 -0.3170 -1.2673
 3723THY    HP793064   2.430   9.527   1.190 -2.9813  1.0719 -1.5544
 3723THY    CA393065   2.569   9.354   0.818 -0.2271 -0.2952 -0.7486
 3723THY    HA393066   2.462   9.340   0.830 -0.7120  1.7155 -2.2635
 3723THY    CA493067   2.648   9.266   0.745  0.3543 -0.0045  0.0267
 3723THY    HA493068   2.604   9.180   0.695 -2.9260  1.2057  0.5846
 3723THY    CA593069   2.787   9.285   0.742 -0.0437 -0.3406  0.3802
 3723THY    CM193070   2.873   9.187   0.658  0.8425  0.1377  0.6503
 3723THY    HM193071   2.918   9.245   0.577  0.3996 -0.1366  0.1987
 3723THY    HM293072   2.952   9.144   0.720 -0.8428 -1.3118  1.8814
 3723THY    HM393073   2.808   9.105   0.625  0.4106  0.8217 -0.2572
 3723THY    CA693074   2.847   9.384   0.822 -0.4718  0.6082 -0.3685
 3723THY    HA693075   2.954   9.398   0.829 -0.8994  3.8938  1.2770
 3724THY      O93076   2.181   2.814   9.343 -0.3739 -0.2321  0.0478
 3724THY     HO93077   2.101   2.772   9.306 -1.6577  3.2081 -1.5497
 3724THY    CA193078   2.139   2.861   9.458 -0.8056  0.5581  0.7138
 3724THY    CA293079   2.226   2.934   9.535  0.5039  0.0265 -0.7106
 3724THY    CP193080   2.363   2.975   9.491 -0.0548  0.3764  0.4934
 3724THY    HP193081   2.389   2.944   9.390 -0.0903 -0.4890  0.7412
 3724THY    CP293082   2.380   3.130   9.502 -0.3456  0.6240  0.0167
 3724THY    HP293083   2.322   3.177   9.422 -2.2125  0.4748  1.2174
 3724THY    HP393084   2.354   3.177   9.597  0.2704  1.0758 -0.0313
 3724THY    HP493085   2.487   3.151   9.487 -0.0892 -0.7851 -0.2739
 3724THY    CP393086   2.463   2.919   9.583 -0.3398  0.1623 -0.5246
 3724THY    HP593087   2.474   2.962   9.684 -0.3601 -3.4939  1.2173
 3724THY    HP693088   2.461   2.810   9.599  1.1627  0.4207  2.0752
 3724THY    HP793089   2.563   2.922   9.538  0.5109 -2.2347  0.9668
 3724THY    CA393090   2.178   2.983   9.660 -0.1810 -0.5243 -0.0000
 3724THY    HA393091   2.243   3.038   9.727 -0.6296 -0.7537  0.6351
 3724THY    CA493092   2.048   2.961   9.689  0.1705 -1.3099  0.4336
 3724THY    HA493093   2.001   3.007   9.775  0.1561  2.4320 -1.3574
 3724THY    CA593094   1.971   2.877   9.615  0.3506  1.0304  0.3834
 3724THY    CM193095   1.821   2.858   9.659 -0.6084  0.2033  0.2103
 3724THY    HM193096   1.796   2.752   9.664  4.3181 -1.1705  0.9616
 3724THY    HM293097   1.808   2.906   9.757  0.9014 -0.4077  0.7395
 3724THY    HM393098   1.772   2.924   9.587 -1.8844  1.6521  2.2847
 3724THY    CA693099   2.015   2.826   9.495 -0.2985  0.3745  0.5077
 3724THY    HA693100   1.950   2.757   9.441 -1.0548 -0.6170  2.5506
 3725THY      O93101   7.643   0.234   2.910 -0.6870 -0.1765  0.4891
 3725THY     HO93102   7.598   0.147   2.912 -1.2033  0.0921  0.7028
 3725THY    CA193103   7.690   0.251   3.033 -0.4252 -0.8895  0.6771
 3725THY    CA293104   7.719   0.381   3.084 -0.1631 -0.2558  0.3887
 3725THY    CP193105   7.703   0.500   2.994 -0.5676  0.2173 -0.0320
 3725THY    HP193106   7.658   0.477   2.896  2.2843 -2.5708 -0.8306
 3725THY    CP293107   7.624   0.614   3.052 -0.0727 -0.0271  0.5727
 3725THY    HP293108   7.535   0.577   3.104  0.2004 -0.9117  0.4218
 3725THY    HP393109   7.678   0.675   3.125 -0.0707 -1.0831  1.4815
 3725THY    HP493110   7.578   0.682   2.979  0.1386  1.5622  1.8457
 3725THY    CP393111   7.841   0.553   2.954 -0.0797  0.0085 -0.3392
 3725THY    HP593112   7.816   0.636   2.887  2.1953 -0.2062 -1.5596
 3725THY    HP693113   7.895   0.585   3.044 -0.0912  0.4262 -0.4784
 3725THY    HP793114   7.901   0.486   2.892 -0.1235 -0.4306  0.0908
 3725THY    CA393115   7.759   0.395   3.221 -0.1873 -0.0656 -0.9155
 3725THY    HA393116   7.780   0.494   3.261  2.5670 -0.8531 -0.2478
 3725THY    CA493117   7.761   0.283   3.312 -0.2579 -0.0558  0.0219
 3725THY    HA493118   7.788   0.295   3.417  0.0702 -2.0232  0.2016
 3725THY    CA593119   7.730   0.155   3.262 -0.0780 -0.1818  0.5426
 3725THY    CM193120   7.748   0.039   3.354  0.3414 -0.1780  0.0063
 3725THY    HM193121   7.805   0.062   3.444  0.4809 -1.4896  0.2821
 3725THY    HM293122   7.654  -0.005   3.391  0.3965 -0.2217  0.0936
 3725THY    HM393123   7.799  -0.039   3.296  0.5589 -0.9693  1.2347
 3725THY    CA693124   7.702   0.142   3.119  0.3616 -0.1302  0.1310
 3725THY    HA693125   7.673   0.045   3.080  1.4646 -0.0445 -0.9441
 3726THY      O93126   5.100   6.374   0.333  0.0223 -0.3600 -0.1088
 3726THY     HO93127   5.136   6.338   0.416 -0.1048 -2.0680 -0.7504
 3726THY    CA193128   4.963   6.356   0.329  0.4665 -0.2016  0.3526
 3726THY    CA293129   4.885   6.387   0.219 -0.3697 -0.3043 -0.2373
 3726THY    CP193130   4.957   6.448   0.089  0.3308 -0.4567  0.3941
 3726THY    HP193131   5.060   6.476   0.115  0.1078  1.1117 -0.3214
 3726THY    CP293132   4.954   6.343  -0.028 -0.3536 -0.0702 -0.3548
 3726THY    HP293133   4.959   6.239   0.006  0.4849 -0.6593 -2.1837
 3726THY    HP393134   4.853   6.346  -0.071 -1.8085 -1.4539  2.6284
 3726THY    HP493135   5.033   6.367  -0.099 -1.4450  1.1339 -1.2090
 3726THY    CP393136   4.886   6.578   0.041 -0.1788 -0.1761 -0.1601
 3726THY    HP593137   4.959   6.630  -0.023  1.3315  0.1701  1.7564
 3726THY    HP693138   4.787   6.563  -0.004 -0.4469 -1.8533  0.9242
 3726THY    HP793139   4.879   6.645   0.127  1.1411  1.5210 -1.3046
 3726THY    CA393140   4.747   6.360   0.217  0.3203  0.6529 -0.0791
 3726THY    HA393141   4.690   6.380   0.127  1.3241  1.3316 -0.5774
 3726THY    CA493142   4.691   6.294   0.326  0.0122 -0.6747 -0.4480
 3726THY    HA493143   4.587   6.263   0.330  0.3434 -1.7895 -0.1375
 3726THY    CA593144   4.762   6.274   0.446 -0.1797 -0.2588 -0.1187
 3726THY    CM193145   4.700   6.205   0.561 -0.8978 -0.3301 -1.1152
 3726THY    HM193146   4.606   6.161   0.525 -0.1793 -1.1531 -2.0480
 3726THY    HM293147   4.759   6.120   0.597 -0.2357  0.7490  0.4194
 3726THY    HM393148   4.687   6.281   0.639 -0.7235  0.6258 -2.0063
 3726THY    CA693149   4.899   6.299   0.448  0.0153 -0.0383 -0.8410
 3726THY    HA693150   4.962   6.279   0.534  1.1887  0.9096 -1.4555
 3727THY      O93151   4.070   4.638   9.607 -0.5162  0.5297  0.2208
 3727THY     HO93152   4.114   4.647   9.521 -1.6848  0.5727 -0.3934
 3727THY    CA193153   3.946   4.599   9.590  1.0041 -0.1559  0.3415
 3727THY    CA293154   3.868   4.558   9.703 -0.0610 -0.0558 -0.2815
 3727THY    CP193155   3.921   4.565   9.848 -0.0995 -0.5256 -0.1362
 3727THY    HP193156   4.011   4.627   9.842  0.8141 -1.3820  2.9268
 3727THY    CP293157   3.816   4.639   9.931 -0.0758 -0.1647 -0.2530
 3727THY    HP293158   3.744   4.569   9.974  0.7425  0.1024  1.6545
 3727THY    HP393159   3.865   4.686  10.018 -0.0799  1.0467 -0.8865
 3727THY    HP493160   3.761   4.708   9.866 -0.2833 -0.0784  0.0121
 3727THY    CP393161   3.958   4.431   9.914  0.5352  0.2563  0.2975
 3727THY    HP593162   4.039   4.371   9.870 -1.1989 -3.9567  2.3173
 3727THY    HP693163   3.997   4.448  10.014  0.7503 -0.1857  0.2918
 3727THY    HP793164   3.873   4.362   9.915  1.1339 -0.5008 -0.1259
 3727THY    CA393165   3.738   4.522   9.683 -0.2560  0.3235 -0.2130
 3727THY    HA393166   3.677   4.477   9.761  1.3277 -2.5304 -0.4747
 3727THY    CA493167   3.685   4.534   9.553 -0.0503  0.3193 -0.3679
 3727THY    HA493168   3.579   4.512   9.541  0.3895 -2.1991 -0.2126
 3727THY    CA593169   3.761   4.576   9.449 -0.1851  1.2066  0.1988
 3727THY    CM193170   3.700   4.576   9.312  0.2313  0.5743 -0.4108
 3727THY    HM193171   3.749   4.646   9.244 -1.9240  0.4217 -2.2572
 3727THY    HM293172   3.695   4.479   9.262 -1.7642 -0.5383  1.7688
 3727THY    HM393173   3.605   4.630   9.321 -0.3032 -0.3128 -0.6486
 3727THY    CA693174   3.893   4.606   9.464 -0.5415 -0.7681 -0.2863
 3727THY    HA693175   3.955   4.634   9.380 -0.0187 -0.3546  0.2240
 3728THY      O93176   5.762   1.580   5.969  0.0464 -0.7276  0.6114
 3728THY     HO93177   5.671   1.615   5.959  0.2804 -0.5712 -1.4884
 3728THY    CA193178   5.752   1.478   6.057 -0.0848 -0.1668  0.2963
 3728THY    CA293179   5.867   1.443   6.139 -0.4440 -0.6039  0.0703
 3728THY    CP193180   5.993   1.527   6.143  0.0748 -0.2757 -0.1341
 3728THY    HP193181   6.001   1.588   6.052 -0.6445  0.3571  0.2102
 3728THY    CP293182   5.988   1.640   6.251  0.2236  0.2440 -1.3520
 3728THY    HP293183   6.067   1.712   6.228 -0.7870  1.3260 -1.5047
 3728THY    HP393184   5.893   1.693   6.255 -0.2223 -0.5313  2.7664
 3728THY    HP493185   5.992   1.591   6.350 -1.8498 -2.0076 -2.2829
 3728THY    CP393186   6.128   1.445   6.149  0.8573 -0.5175  0.0546
 3728THY    HP593187   6.122   1.380   6.061 -0.5255 -2.8058  1.7170
 3728THY    HP693188   6.209   1.518   6.147  0.6182 -0.2562 -0.2866
 3728THY    HP793189   6.137   1.380   6.237  0.0956  0.3540  0.7989
 3728THY    CA393190   5.857   1.331   6.232 -0.4204 -0.0984  1.0898
 3728THY    HA393191   5.937   1.308   6.301 -0.0200  1.0260  1.0352
 3728THY    CA493192   5.744   1.250   6.228 -0.8591 -0.2668  0.1959
 3728THY    HA493193   5.745   1.166   6.298  0.0561 -0.1789  0.3015
 3728THY    CA593194   5.630   1.297   6.152 -0.1514 -0.4227  0.4213
 3728THY    CM193195   5.501   1.228   6.181  0.3325 -0.5627 -0.0723
 3728THY    HM193196   5.487   1.154   6.102 -0.0000  1.5397 -2.1007
 3728THY    HM293197   5.509   1.176   6.277  1.9132 -0.2517 -0.0087
 3728THY    HM393198   5.418   1.299   6.173  0.2945 -0.4576  1.1835
 3728THY    CA693199   5.634   1.403   6.059  0.4266 -0.3346 -0.6315
 3728THY    HA693200   5.555   1.423   5.987  2.9398  1.4335 -3.1030
 3729THY      O93201   0.745   7.770   7.726 -0.5223  0.3166 -0.7702
 3729THY     HO93202   0.707   7.859   7.713 -0.7840  0.4583  0.7730
 3729THY    CA193203   0.647   7.694   7.798 -0.0962 -0.2085 -0.4218
 3729THY    CA293204   0.659   7.554   7.804 -0.2825 -0.3561 -0.3061
 3729THY    CP193205   0.784   7.481   7.752  0.4392  0.6481 -0.4807
 3729THY    HP193206   0.819   7.525   7.658  0.6256  0.2780 -0.5828
 3729THY    CP293207   0.889   7.461   7.865  1.1350 -0.7413  0.2996
 3729THY    HP293208   0.937   7.553   7.899  0.6566 -0.7428  1.0143
 3729THY    HP393209   0.847   7.412   7.954 -0.5834  1.8966  1.0700
 3729THY    HP493210   0.974   7.418   7.812  1.8504  1.4153 -0.3940
 3729THY    CP393211   0.738   7.337   7.708  0.2256  0.4833 -0.0535
 3729THY    HP593212   0.817   7.283   7.653 -0.8758 -4.2052  2.4399
 3729THY    HP693213   0.716   7.267   7.790  0.5788 -0.1044 -0.4500
 3729THY    HP793214   0.650   7.352   7.645 -0.6418 -0.5494  0.8809
 3729THY    CA393215   0.573   7.488   7.895  0.1339 -0.6884 -0.1334
 3729THY    HA393216   0.584   7.382   7.914 -2.7055 -1.1403 -0.5578
 3729THY    CA493217   0.471   7.557   7.953  0.1626 -0.3462  0.0023
 3729THY    HA493218   0.410   7.506   8.027  0.4855  0.7785  1.0955
 3729THY    CA593219   0.438   7.691   7.919  0.5339 -0.0369  0.4804
 3729THY    CM193220   0.318   7.762   7.981 -0.0815 -0.4921 -0.0874
 3729THY    HM193221   0.280   7.712   8.071 -1.0066 -0.5209 -0.4833
 3729THY    HM293222   0.352   7.861   8.011  1.5124 -1.5407  1.7976
 3729THY    HM393223   0.236   7.764   7.908 -2.4943  0.0756  2.5016
 3729THY    CA693224   0.533   7.757   7.837 -0.4348 -0.1409 -0.1014
 3729THY    HA693225   0.524   7.863   7.816  3.4838  0.4066  0.1646
 3730THY      O93226   6.740   8.780   8.674  0.0989  0.0535  0.1316
 3730THY     HO93227   6.812   8.829   8.718  0.5897  0.5392 -1.1817
 3730THY    CA193228   6.792   8.764   8.551  0.2591  0.5132  1.0305
 3730THY    CA293229   6.721   8.696   8.444 -0.2268  0.1820 -0.5372
 3730THY    CP193230   6.578   8.647   8.458  0.4950 -0.0287  0.1394
 3730THY    HP193231   6.560   8.618   8.562 -1.2753 -0.0414 -0.1450
 3730THY    CP293232   6.477   8.750   8.418 -0.4303  0.1028 -0.6396
 3730THY    HP293233   6.486   8.784   8.314  1.8677 -0.4147 -0.6622
 3730THY    HP393234   6.379   8.706   8.440  0.1403 -0.4011  1.1310
 3730THY    HP493235   6.486   8.844   8.474 -1.4226 -0.2633  0.1685
 3730THY    CP393236   6.539   8.519   8.381 -0.0084 -0.2507  0.0324
 3730THY    HP593237   6.455   8.472   8.435  0.0035 -2.4609 -1.7241
 3730THY    HP693238   6.520   8.525   8.274 -0.1256  0.5478  0.0975
 3730THY    HP793239   6.629   8.456   8.383 -0.9545 -1.6543  0.5376
 3730THY    CA393240   6.782   8.693   8.316 -0.2268 -0.0764  0.2880
 3730THY    HA393241   6.738   8.641   8.232  1.2642 -2.8807  1.1105
 3730THY    CA493242   6.909   8.752   8.303  0.0396  0.2445 -0.2095
 3730THY    HA493243   6.957   8.736   8.206 -0.2179 -0.1961 -0.2643
 3730THY    CA593244   6.972   8.821   8.411 -0.6361 -0.0435  0.1066
 3730THY    CM193245   7.110   8.886   8.391  0.5199 -0.1386  0.5049
 3730THY    HM193246   7.130   8.903   8.285 -0.2313  3.7077  0.8511
 3730THY    HM293247   7.115   8.980   8.447  0.7714  1.6953 -2.3944
 3730THY    HM393248   7.183   8.814   8.430  0.1557 -0.4600  0.6073
 3730THY    CA693249   6.920   8.815   8.534 -0.2507  0.1131  0.0238
 3730THY    HA693250   6.982   8.853   8.614 -0.6673  0.8634 -0.0026
 3731THY      O93251   9.732   8.851   4.183  0.1723  0.4270 -0.2986
 3731THY     HO93252   9.645   8.890   4.162 -0.8184 -0.8686  1.1141
 3731THY    CA193253   9.700   8.716   4.195 -1.0493 -0.4191 -0.4895
 3731THY    CA293254   9.785   8.606   4.181  0.3795  0.3343  0.8087
 3731THY    CP193255   9.936   8.627   4.155 -0.2371  0.4552 -0.2854
 3731THY    HP193256   9.956   8.728   4.118 -2.3733  0.9384 -0.2575
 3731THY    CP293257  10.021   8.592   4.280 -0.2418 -0.0954 -0.1170
 3731THY    HP293258  10.005   8.663   4.362 -0.0818 -0.2284  0.0301
 3731THY    HP393259   9.999   8.495   4.327 -1.0320  1.1162  2.1861
 3731THY    HP493260  10.126   8.602   4.251 -0.5317  0.2146 -1.0909
 3731THY    CP393261   9.974   8.522   4.040  0.5145 -0.2266  0.3507
 3731THY    HP593262   9.994   8.418   4.069 -2.8640 -1.3913 -0.9015
 3731THY    HP693263   9.888   8.500   3.975 -0.6981  0.3473  1.7008
 3731THY    HP793264  10.066   8.558   3.994  0.4300 -0.0837  0.2909
 3731THY    CA393265   9.727   8.478   4.199 -0.1507  0.2574  0.2937
 3731THY    HA393266   9.798   8.395   4.195 -0.3153  0.1492 -0.4244
 3731THY    CA493267   9.587   8.463   4.230 -0.5902  0.1790  1.2368
 3731THY    HA493268   9.537   8.368   4.240 -0.1995 -0.0833  0.7609
 3731THY    CA593269   9.510   8.576   4.234  0.0904  0.8639  0.1178
 3731THY    CM193270   9.364   8.562   4.256 -0.0124 -0.2280  0.5351
 3731THY    HM193271   9.319   8.662   4.247  2.0545  0.8650  1.6142
 3731THY    HM293272   9.325   8.506   4.171  0.4422  2.1796 -1.3672
 3731THY    HM393273   9.350   8.520   4.356 -0.5108 -0.2911  0.4403
 3731THY    CA693274   9.566   8.699   4.210  0.5271  0.0079 -0.0993
 3731THY    HA693275   9.497   8.782   4.222 -0.4214 -1.0723  2.8411
 3732THY      O93276   0.611   4.960   4.649  0.0823 -0.6868 -0.0674
 3732THY     HO93277   0.646   4.972   4.559 -0.5459 -0.8287 -0.3331
 3732THY    CA193278   0.578   4.828   4.651  0.3435  0.4068  0.5196
 3732THY    CA293279   0.515   4.769   4.762 -0.6378 -0.0460 -0.4325
 3732THY    CP193280   0.480   4.852   4.884 -0.0505  1.1733  0.7195
 3732THY    HP193281   0.542   4.942   4.884  1.5232  0.1653 -0.8907
 3732THY    CP293282   0.343   4.912   4.884  0.7639  0.2517 -0.5634
 3732THY    HP293283   0.303   4.912   4.986 -0.6332  1.3584 -1.0664
 3732THY    HP393284   0.333   5.014   4.845  1.3407  0.7988  0.7010
 3732THY    HP493285   0.266   4.857   4.828 -0.1932  1.4989 -0.5349
 3732THY    CP393286   0.499   4.774   5.016 -0.2674 -0.5697  0.3596
 3732THY    HP593287   0.421   4.698   5.033 -0.6244 -0.3656 -0.3443
 3732THY    HP693288   0.600   4.731   5.009 -0.0647  0.1620 -2.7046
 3732THY    HP793289   0.495   4.840   5.103 -0.7880 -0.2657  0.1061
 3732THY    CA393290   0.458   4.645   4.755  0.2889 -0.0480  0.1899
 3732THY    HA393291   0.402   4.609   4.841 -0.0558  1.8748  0.8210
 3732THY    CA493292   0.485   4.569   4.641 -0.6689 -0.2375  0.2787
 3732THY    HA493293   0.437   4.473   4.627  0.6896 -0.7063 -1.4504
 3732THY    CA593294   0.556   4.618   4.531  0.1953 -0.6701  0.2835
 3732THY    CM193295   0.578   4.529   4.404  0.9134 -0.9431  0.0717
 3732THY    HM193296   0.675   4.478   4.412  0.9859 -0.7297  0.5618
 3732THY    HM293297   0.502   4.451   4.399 -0.9346  0.6048  1.9369
 3732THY    HM393298   0.582   4.590   4.312 -0.8671 -0.5168  0.2402
 3732THY    CA693299   0.607   4.754   4.534  0.2198 -0.1350  0.1022
 3732THY    HA693300   0.667   4.797   4.454 -0.7464  1.9109  0.4422
 3733THY      O93301   1.065   4.444   5.093 -0.1021 -0.1560 -0.0771
 3733THY     HO93302   1.041   4.358   5.131  1.5538 -0.4681  0.3426
 3733THY    CA193303   1.105   4.522   5.195  0.0417  0.0010 -0.1155
 3733THY    CA293304   1.018   4.623   5.248  0.4706 -0.1927  0.3393
 3733THY    CP193305   0.887   4.656   5.177 -0.4015 -0.2515 -0.4533
 3733THY    HP193306   0.850   4.574   5.113 -0.4214 -0.4054 -0.2451
 3733THY    CP293307   0.775   4.682   5.274 -0.7884  0.3932  0.4405
 3733THY    HP293308   0.677   4.648   5.241 -0.9370  1.4878 -0.2909
 3733THY    HP393309   0.787   4.622   5.365 -2.6620 -2.5392 -1.1185
 3733THY    HP493310   0.761   4.787   5.304  0.4383  0.1326  2.0507
 3733THY    CP393311   0.894   4.790   5.102  0.1604  0.5151  0.3614
 3733THY    HP593312   0.948   4.862   5.165 -0.2519 -0.0254  1.3509
 3733THY    HP693313   0.951   4.764   5.012  1.0734 -2.0072  1.5526
 3733THY    HP793314   0.801   4.839   5.071  0.8547  1.9617  0.4684
 3733THY    CA393315   1.077   4.705   5.350 -0.4071  0.2806 -0.2763
 3733THY    HA393316   1.020   4.790   5.387  0.9677 -0.3778  3.7807
 3733THY    CA493317   1.201   4.676   5.410  0.0934  0.0289  0.0093
 3733THY    HA493318   1.238   4.737   5.491  1.2487 -0.6451  0.0059
 3733THY    CA593319   1.271   4.563   5.364 -0.0065  0.6661 -0.8069
 3733THY    CM193320   1.399   4.525   5.427  0.1528 -0.7800 -0.5051
 3733THY    HM193321   1.420   4.592   5.511 -0.2257 -0.5204 -0.6095
 3733THY    HM293322   1.396   4.420   5.458 -0.9386 -1.0414 -1.4397
 3733THY    HM393323   1.484   4.545   5.361 -0.6212  0.1329 -1.2552
 3733THY    CA693324   1.228   4.487   5.255  0.0965  0.4877 -0.6489
 3733THY    HA693325   1.288   4.409   5.210  1.9320  2.8786 -2.6154
 3734THY      O93326   2.068   0.884   3.563  0.0647 -0.7331  0.1409
 3734THY     HO93327   2.081   0.801   3.613 -0.3196 -1.4814 -0.9743
 3734THY    CA193328   2.193   0.925   3.575  0.1648 -0.1633  0.2620
 3734THY    CA293329   2.269   0.958   3.469  0.0953  0.8686  0.3018
 3734THY    CP193330   2.209   0.958   3.325 -0.7533 -0.7020  1.1661
 3734THY    HP193331   2.101   0.948   3.312 -0.9315  3.0849 -2.3691
 3734THY    CP293332   2.253   1.084   3.248  0.4401  0.5701  0.0801
 3734THY    HP293333   2.238   1.172   3.311  3.1348  0.4077  1.1051
 3734THY    HP393334   2.360   1.070   3.229 -0.0253 -1.9349 -1.1412
 3734THY    HP493335   2.200   1.098   3.153  0.5475 -1.0360 -0.2494
 3734THY    CP393336   2.275   0.834   3.259 -0.4285 -0.1319 -0.1306
 3734THY    HP593337   2.384   0.832   3.265 -0.2524 -1.6088 -2.3486
 3734THY    HP693338   2.249   0.739   3.305  2.5313 -0.2025  1.6386
 3734THY    HP793339   2.252   0.826   3.152  2.2907 -0.1787 -0.7884
 3734THY    CA393340   2.403   1.001   3.487  0.6454 -0.0371  0.1796
 3734THY    HA393341   2.463   1.025   3.400  1.3282 -1.4592  0.2236
 3734THY    CA493342   2.456   1.013   3.616  0.4725 -0.5424 -0.5044
 3734THY    HA493343   2.553   1.062   3.629 -0.4373  2.0453 -2.6356
 3734THY    CA593344   2.371   0.978   3.729 -0.4490 -0.2710  0.4132
 3734THY    CM193345   2.413   1.011   3.875  0.0342 -0.1367 -0.2886
 3734THY    HM193346   2.455   1.112   3.888 -0.8849  0.4342 -1.5153
 3734THY    HM293347   2.327   1.005   3.942  0.4962  2.0524  0.5966
 3734THY    HM393348   2.496   0.946   3.905  0.0432 -0.2258 -0.4989
 3734THY    CA693349   2.241   0.948   3.701 -0.1704  0.5574 -0.0854
 3734THY    HA693350   2.172   0.943   3.785  1.1808  2.0372  1.1755
 3735THY      O93351   7.126   9.902   3.954  0.1262 -0.0450  0.0411
 3735THY     HO93352   7.137   9.977   3.892 -1.5170 -1.1093 -1.6504
 3735THY    CA193353   7.009   9.914   4.018 -0.1154 -0.4457 -0.0947
 3735THY    CA293354   6.890   9.897   3.951  0.0626 -0.2197  0.1794
 3735THY    CP193355   6.880   9.851   3.806 -0.0688  0.0348 -0.8089
 3735THY    HP193356   6.962   9.885   3.742 -0.4857  1.3378 -0.6922
 3735THY    CP293357   6.882   9.700   3.795  0.4495 -0.3986 -0.2364
 3735THY    HP293358   6.953   9.667   3.872 -0.9120 -0.9443  0.8294
 3735THY    HP393359   6.784   9.668   3.832 -0.4017  1.8265 -0.4339
 3735THY    HP493360   6.900   9.661   3.694 -0.3970 -1.8078  0.1240
 3735THY    CP393361   6.753   9.906   3.730 -0.1239 -0.2314  0.1833
 3735THY    HP593362   6.669   9.845   3.765 -2.3429  2.3767 -0.3018
 3735THY    HP693363   6.740  10.011   3.755 -1.7357 -0.4066  0.1394
 3735THY    HP793364   6.765   9.905   3.621  0.4046  0.8894  0.2164
 3735THY    CA393365   6.770   9.916   4.021 -0.0822 -0.2586 -0.5272
 3735THY    HA393366   6.673   9.895   3.977 -1.8895  0.7654  2.6489
 3735THY    CA493367   6.769   9.957   4.152  1.1486 -0.1005  0.6058
 3735THY    HA493368   6.676   9.982   4.203  0.1981  0.0104 -1.0900
 3735THY    CA593369   6.893   9.975   4.216  0.4033 -1.1150 -0.4430
 3735THY    CM193370   6.901  10.044   4.352 -0.1508 -0.4326  0.5537
 3735THY    HM193371   6.985  10.002   4.409  0.9512 -2.6079 -2.4075
 3735THY    HM293372   6.929  10.149   4.339  0.3710 -0.4905  1.1870
 3735THY    HM393373   6.816  10.040   4.421 -0.5881 -2.0402 -0.0372
 3735THY    CA693374   7.007   9.947   4.153  0.2423 -0.4004  0.7628
 3735THY    HA693375   7.102   9.956   4.205  0.9662 -0.4431 -0.5270
 3736THY      O93376   5.090   5.228   4.891 -1.0385 -0.4553  0.7862
 3736THY     HO93377   5.120   5.260   4.978 -2.8520  4.9749 -0.2387
 3736THY    CA193378   5.165   5.300   4.801 -0.4512  0.5438 -0.1825
 3736THY    CA293379   5.139   5.275   4.668  0.0386 -0.4389  0.2946
 3736THY    CP193380   5.023   5.194   4.616  0.5991 -0.1100 -0.0596
 3736THY    HP193381   4.942   5.199   4.691 -0.8728 -1.8190 -1.4446
 3736THY    CP293382   4.957   5.241   4.488 -0.0195  0.1092 -0.6807
 3736THY    HP293383   4.862   5.187   4.478 -0.1070  0.2694 -0.7223
 3736THY    HP393384   4.940   5.349   4.495 -2.4052 -0.2990  0.9802
 3736THY    HP493385   5.021   5.220   4.401 -1.5960  0.7732 -2.0803
 3736THY    CP393386   5.063   5.044   4.623 -0.3038  0.0182 -0.7095
 3736THY    HP593387   5.117   5.024   4.716  0.8155 -2.4513 -1.7951
 3736THY    HP693388   4.978   4.976   4.612  1.4181 -2.8961  2.2043
 3736THY    HP793389   5.137   5.007   4.550 -0.4435 -4.0163  0.9601
 3736THY    CA393390   5.234   5.334   4.575 -0.1496  0.1658  0.3751
 3736THY    HA393391   5.232   5.304   4.470 -0.6163  0.7000  0.2273
 3736THY    CA493392   5.346   5.409   4.618 -0.1635 -0.8856  0.1625
 3736THY    HA493393   5.413   5.442   4.539 -0.7330  0.0283  0.0431
 3736THY    CA593394   5.358   5.441   4.756 -0.1249 -0.3162 -0.0571
 3736THY    CM193395   5.478   5.526   4.795  0.3199 -0.0991  0.2519
 3736THY    HM193396   5.549   5.529   4.711 -2.1276  2.6420 -1.9182
 3736THY    HM293397   5.452   5.630   4.814  0.9849  0.5169 -1.9336
 3736THY    HM393398   5.533   5.487   4.882  1.8905  1.1014 -0.1652
 3736THY    CA693399   5.267   5.383   4.848  0.0090 -0.0746  0.0881
 3736THY    HA693400   5.287   5.394   4.954  0.0933  0.4662  0.0191
 3737THY      O93401   7.491   3.291   7.854 -0.1911 -0.4652  0.3215
 3737THY     HO93402   7.524   3.382   7.843 -0.1246 -0.4678  0.5034
 3737THY    CA193403   7.606   3.229   7.820 -0.1201  0.3758  0.0177
 3737THY    CA293404   7.597   3.107   7.741 -0.2110 -0.0895 -0.4858
 3737THY    CP193405   7.467   3.053   7.676  0.6447 -0.2337 -0.2346
 3737THY    HP193406   7.379   3.114   7.700  1.2223  0.4631  0.1773
 3737THY    CP293407   7.481   3.031   7.526  0.5118 -0.2417 -0.1846
 3737THY    HP293408   7.561   2.960   7.501  2.8681  2.0446  0.4555
 3737THY    HP393409   7.383   2.989   7.498  0.4367  0.2957 -0.7559
 3737THY    HP493410   7.486   3.130   7.480 -0.3959 -0.1237 -0.0470
 3737THY    CP393411   7.435   2.913   7.744 -0.4689  0.2640  0.2902
 3737THY    HP593412   7.331   2.886   7.724 -0.6383  1.8780 -1.2926
 3737THY    HP693413   7.509   2.847   7.695 -0.3480  0.9639 -0.4994
 3737THY    HP793414   7.445   2.906   7.853  1.5668 -0.1140  0.1301
 3737THY    CA393415   7.715   3.042   7.710  0.4398 -0.0834  0.2346
 3737THY    HA393416   7.719   2.955   7.645 -0.3797  1.1344 -1.5137
 3737THY    CA493417   7.833   3.092   7.759 -0.8836 -0.3008  0.1987
 3737THY    HA493418   7.921   3.031   7.744 -0.3518  0.2302  1.0373
 3737THY    CA593419   7.841   3.201   7.839 -0.5916 -0.4838 -0.3070
 3737THY    CM193420   7.975   3.242   7.896 -0.3476 -0.3876  0.1036
 3737THY    HM193421   7.959   3.296   7.990 -0.7091  1.2533 -0.8709
 3737THY    HM293422   8.050   3.162   7.897  0.2590  0.0295 -2.7403
 3737THY    HM393423   8.002   3.321   7.825  0.0684  0.7931  1.5420
 3737THY    CA693424   7.721   3.277   7.879  0.1487  0.3703 -0.1382
 3737THY    HA693425   7.720   3.356   7.953 -0.7307 -0.4325  0.7290
 3738THY      O93426   3.280   5.940   0.700  0.2326 -0.2206  0.3996
 3738THY     HO93427   3.289   5.845   0.718 -1.2530 -0.4769 -0.0273
 3738THY    CA193428   3.405   5.991   0.684 -0.0362 -0.1320  0.0463
 3738THY    CA293429   3.430   6.108   0.608  0.6061 -0.0181  0.1469
 3738THY    CP193430   3.316   6.189   0.549  0.0938  0.5165  0.4105
 3738THY    HP193431   3.220   6.139   0.570 -0.0546  0.3340 -0.6131
 3738THY    CP293432   3.289   6.333   0.610 -0.4717 -0.3459 -0.2371
 3738THY    HP293433   3.375   6.395   0.583  1.9325 -3.3896 -0.0766
 3738THY    HP393434   3.205   6.384   0.561  0.5253 -0.5675 -2.2802
 3738THY    HP493435   3.264   6.327   0.717  1.2905 -1.8415  0.1413
 3738THY    CP393436   3.323   6.212   0.394  1.2612  0.0099  0.0230
 3738THY    HP593437   3.345   6.118   0.342  0.6176 -0.1381  0.0121
 3738THY    HP693438   3.225   6.243   0.357  0.9382  0.1890  1.0027
 3738THY    HP793439   3.394   6.293   0.372 -0.4487  1.3375 -0.8081
 3738THY    CA393440   3.568   6.148   0.593 -0.7092  0.1632 -0.3685
 3738THY    HA393441   3.593   6.244   0.550 -0.4655  0.2837  0.0362
 3738THY    CA493442   3.673   6.073   0.651 -0.3726 -0.0160 -0.4438
 3738THY    HA493443   3.777   6.103   0.640 -0.3442  0.2245  0.4194
 3738THY    CA593444   3.639   5.959   0.728 -0.5079 -0.3534  0.0091
 3738THY    CM193445   3.748   5.881   0.787 -1.5435 -0.2416 -0.1439
 3738THY    HM193446   3.809   5.944   0.852  1.3466 -0.4736 -2.4232
 3738THY    HM293447   3.717   5.792   0.842 -0.2355 -0.8937 -0.4403
 3738THY    HM393448   3.811   5.840   0.707  0.7852  0.0372  1.4565
 3738THY    CA693449   3.508   5.906   0.733  0.0328 -0.6390 -0.2382
 3738THY    HA693450   3.492   5.814   0.789  1.5944 -0.3440  0.7489
 3739THY      O93451   5.606   4.974   3.551  0.1574  0.4008  0.3066
 3739THY     HO93452   5.590   5.037   3.624  0.8165  1.3723 -0.3665
 3739THY    CA193453   5.736   4.987   3.523  0.9902 -0.0480 -0.0489
 3739THY    CA293454   5.801   4.893   3.439 -0.3945  0.5367  0.1304
 3739THY    CP193455   5.716   4.770   3.392  0.0573 -0.4398 -0.1297
 3739THY    HP193456   5.626   4.750   3.450  1.7317  0.5232  3.0447
 3739THY    CP293457   5.665   4.799   3.255 -0.7418  0.2876 -0.4460
 3739THY    HP293458   5.617   4.709   3.217  0.2156 -1.1171  1.5048
 3739THY    HP393459   5.595   4.883   3.267  0.7713  1.6968 -1.0316
 3739THY    HP493460   5.744   4.829   3.185 -0.6090 -0.9138 -0.8345
 3739THY    CP393461   5.799   4.640   3.399 -0.6283 -0.0999  0.0528
 3739THY    HP593462   5.734   4.552   3.385 -0.1055 -0.1496 -2.4451
 3739THY    HP693463   5.870   4.632   3.316 -2.1037 -3.4837 -1.0771
 3739THY    HP793464   5.856   4.626   3.492 -0.8856 -0.0265  0.2248
 3739THY    CA393465   5.938   4.909   3.405  0.2773 -0.4565  0.1651
 3739THY    HA393466   5.984   4.843   3.332  0.7071 -0.3599  0.3482
 3739THY    CA493467   6.006   5.025   3.457  0.5563 -0.3008 -0.3190
 3739THY    HA493468   6.108   5.051   3.432  0.7244 -1.4813 -0.9692
 3739THY    CA593469   5.932   5.116   3.541 -1.1069  0.6525 -0.4947
 3739THY    CM193470   6.006   5.239   3.584  0.1364  0.1230 -0.1668
 3739THY    HM193471   6.006   5.247   3.693 -1.8017  0.7669 -0.1839
 3739THY    HM293472   6.111   5.244   3.553 -0.2604  4.4012 -1.4848
 3739THY    HM393473   5.959   5.334   3.558 -0.1530 -0.2582 -1.0964
 3739THY    CA693474   5.797   5.097   3.574 -0.3836 -0.3990  0.3366
 3739THY    HA693475   5.747   5.166   3.641  1.6963  0.7632  0.8041
 3740THY      O93476   7.308   3.456   0.002 -0.1116  0.2820 -0.2024
 3740THY     HO93477   7.339   3.389  -0.061 -0.4480 -2.7151  2.5127
 3740THY    CA193478   7.286   3.374   0.112  0.8084 -0.4919 -0.7076
 3740THY    CA293479   7.232   3.428   0.232 -0.2048 -0.2642  0.2702
 3740THY    CP193480   7.186   3.573   0.234  0.0355 -0.3881  0.4743
 3740THY    HP193481   7.139   3.592   0.137  1.6616  3.7388  0.2830
 3740THY    CP293482   7.060   3.598   0.315 -1.5239 -0.1540 -0.1162
 3740THY    HP293483   6.970   3.543   0.285  0.7387 -3.7672 -0.8092
 3740THY    HP393484   7.077   3.583   0.422 -0.8748  1.0084 -0.0372
 3740THY    HP493485   7.027   3.702   0.300 -3.5943 -0.7144  0.1868
 3740THY    CP393486   7.299   3.678   0.270  0.1746 -0.5325 -0.3719
 3740THY    HP593487   7.336   3.667   0.372  1.7788 -0.9334 -0.9634
 3740THY    HP693488   7.393   3.676   0.213  0.5861 -0.9024  0.3162
 3740THY    HP793489   7.259   3.780   0.264  3.7397  1.0192 -0.1733
 3740THY    CA393490   7.206   3.336   0.339 -0.6177 -0.3037  0.0940
 3740THY    HA393491   7.164   3.377   0.431  2.2589  2.0668  0.5002
 3740THY    CA493492   7.239   3.196   0.330 -1.2544 -0.7326 -0.4381
 3740THY    HA493493   7.215   3.124   0.408  1.0054 -1.7549 -0.6217
 3740THY    CA593494   7.307   3.152   0.217 -0.0034 -0.1279  0.2159
 3740THY    CM193495   7.350   3.010   0.208 -0.3329  0.5826 -0.3769
 3740THY    HM193496   7.344   2.969   0.106 -1.4632 -0.1151 -0.0421
 3740THY    HM293497   7.452   3.003   0.248 -0.3107 -1.0671 -0.6765
 3740THY    HM393498   7.292   2.947   0.276 -0.8973  1.2157 -0.2584
 3740THY    CA693499   7.334   3.239   0.106  0.4861  0.3243  1.2311
 3740THY    HA693500   7.378   3.205   0.012  2.0806  4.2104  0.3914
 3741THY      O93501   0.359   8.234   5.849 -0.3535  0.0596  0.1431
 3741THY     HO93502   0.274   8.188   5.862  0.0911 -0.2144  2.6460
 3741THY    CA193503   0.432   8.185   5.956 -0.1422  0.1225  0.2521
 3741THY    CA293504   0.550   8.248   6.007  0.3392  0.4774 -0.3164
 3741THY    CP193505   0.615   8.364   5.921  0.3655  0.2207  0.5814
 3741THY    HP193506   0.580   8.355   5.817  0.7659 -1.6289  0.5711
 3741THY    CP293507   0.563   8.496   5.970 -0.7367  1.0404 -0.5957
 3741THY    HP293508   0.459   8.503   5.938 -1.0027 -4.1384 -1.7140
 3741THY    HP393509   0.575   8.511   6.078  2.5906  0.2605 -0.7490
 3741THY    HP493510   0.617   8.582   5.928 -1.0232  0.8949 -1.2563
 3741THY    CP393511   0.759   8.357   5.898  0.2293  0.1026 -0.3529
 3741THY    HP593512   0.793   8.450   5.852  1.2541 -0.1684 -0.1671
 3741THY    HP693513   0.812   8.363   5.994  0.3332 -1.3774 -0.2957
 3741THY    HP793514   0.789   8.264   5.848  0.7256 -0.4103  0.8645
 3741THY    CA393515   0.615   8.193   6.122  0.6225  0.2582  0.1313
 3741THY    HA393516   0.704   8.236   6.166  0.8718 -0.8280  0.7324
 3741THY    CA493517   0.557   8.096   6.197  0.5380  0.4353  0.0787
 3741THY    HA493518   0.592   8.061   6.294  0.8062  1.7609  0.4752
 3741THY    CA593519   0.432   8.043   6.152 -0.2574  0.5914  0.0003
 3741THY    CM193520   0.379   7.916   6.219 -0.0475  0.1114  0.2333
 3741THY    HM193521   0.275   7.904   6.188  0.1703 -2.4477  0.2893
 3741THY    HM293522   0.433   7.833   6.174  0.9890  0.4854  0.7392
 3741THY    HM393523   0.403   7.910   6.326 -0.3412  0.4139  0.3178
 3741THY    CA693524   0.373   8.086   6.030 -0.5934  0.0033  0.4803
 3741THY    HA693525   0.286   8.033   5.993 -0.8620  0.9323 -0.2321
 3742THY      O93526   1.219   0.754   6.979  0.2634 -0.6553  0.8686
 3742THY     HO93527   1.245   0.687   7.044  2.4511 -1.7635 -0.9654
 3742THY    CA193528   1.137   0.691   6.890 -0.1451 -0.5183  0.2794
 3742THY    CA293529   1.138   0.715   6.750 -0.0720 -0.2754  0.3885
 3742THY    CP193530   1.214   0.829   6.696 -0.4841 -0.1963  0.5417
 3742THY    HP193531   1.220   0.907   6.773 -1.2483 -1.0083  1.4403
 3742THY    CP293532   1.353   0.779   6.660 -0.0467 -0.1041 -0.0709
 3742THY    HP293533   1.381   0.714   6.744 -2.1381 -1.1216 -0.0865
 3742THY    HP393534   1.368   0.715   6.572  2.0314  0.5262 -0.2220
 3742THY    HP493535   1.418   0.866   6.646  0.3941 -0.4580 -0.2360
 3742THY    CP393536   1.151   0.911   6.572 -0.0898  0.1117 -0.4969
 3742THY    HP593537   1.133   0.841   6.489  0.4201  0.7583 -1.1648
 3742THY    HP693538   1.056   0.955   6.605  0.1765  2.0060 -2.0552
 3742THY    HP793539   1.212   0.993   6.534  1.0825  0.0310  1.1345
 3742THY    CA393540   1.070   0.630   6.665  0.6799  0.0566 -0.5862
 3742THY    HA393541   1.069   0.652   6.559 -4.2713 -0.5593 -0.9131
 3742THY    CA493542   0.999   0.516   6.714  0.1982 -1.1335 -0.7093
 3742THY    HA493543   0.949   0.443   6.652 -0.7967 -0.4367 -0.7602
 3742THY    CA593544   0.981   0.510   6.852 -0.2746 -0.1739 -0.1985
 3742THY    CM193545   0.888   0.404   6.910 -1.0290  0.3236 -0.3017
 3742THY    HM193546   0.880   0.323   6.837  1.8190  0.7864 -1.2675
 3742THY    HM293547   0.920   0.370   7.009 -1.4065 -1.0386 -0.6242
 3742THY    HM393548   0.793   0.456   6.926 -0.8643  0.2411  1.0230
 3742THY    CA693549   1.050   0.590   6.938  0.3629  0.0009 -0.8535
 3742THY    HA693550   1.030   0.574   7.043  1.7013  0.1137 -0.5633
 3743THY      O93551   2.937   4.037   6.663 -0.0048  0.3781 -0.2069
 3743THY     HO93552   2.975   4.127   6.665  3.0358 -0.7935  0.6068
 3743THY    CA193553   2.807   4.044   6.714 -1.0310  0.4276 -0.1307
 3743THY    CA293554   2.698   3.952   6.686 -0.5408  0.0257 -0.6637
 3743THY    CP193555   2.725   3.824   6.601  0.4219 -0.5151  0.4211
 3743THY    HP193556   2.832   3.803   6.585  1.0142  2.3021  0.2951
 3743THY    CP293557   2.666   3.699   6.670  0.2999 -0.3464  0.2520
 3743THY    HP293558   2.558   3.719   6.667  0.5187  0.9049 -2.1315
 3743THY    HP393559   2.684   3.610   6.608 -2.2449 -1.0743  0.4564
 3743THY    HP493560   2.700   3.702   6.774 -0.8862  0.2000  0.6419
 3743THY    CP393561   2.680   3.846   6.455 -0.3159 -0.7183 -0.0320
 3743THY    HP593562   2.665   3.750   6.405  1.3412 -0.2695 -1.4882
 3743THY    HP693563   2.587   3.905   6.454  0.4015  0.4418 -0.0290
 3743THY    HP793564   2.760   3.895   6.398 -0.2871 -2.4452 -1.5418
 3743THY    CA393565   2.569   3.984   6.736  0.1171 -0.4295 -0.5996
 3743THY    HA393566   2.487   3.916   6.718 -0.2754  0.2223 -1.3680
 3743THY    CA493567   2.550   4.096   6.819  0.2913  0.7397  0.6399
 3743THY    HA493568   2.452   4.122   6.858 -0.3109 -0.5599  0.0421
 3743THY    CA593569   2.658   4.178   6.847 -0.1048  0.1022  0.6672
 3743THY    CM193570   2.646   4.303   6.933  0.1034  0.2290 -0.8979
 3743THY    HM193571   2.654   4.281   7.040  1.2201  1.8598 -0.6142
 3743THY    HM293572   2.721   4.378   6.905  1.5078 -0.5248  0.7246
 3743THY    HM393573   2.553   4.360   6.920 -0.0478 -0.0539 -1.0718
 3743THY    CA693574   2.781   4.149   6.796 -1.2138  0.2052 -0.0979
 3743THY    HA693575   2.865   4.213   6.823  1.4896 -1.7455 -3.0784
 3744THY      O93576   4.465   0.207   7.697 -0.0080  0.1316 -0.2644
 3744THY     HO93577   4.404   0.261   7.749  0.6788 -1.1624  1.9991
 3744THY    CA193578   4.589   0.257   7.696 -0.3598 -0.8096 -1.0818
 3744THY    CA293579   4.702   0.168   7.699 -0.7506  0.2191  0.0502
 3744THY    CP193580   4.686   0.013   7.673  0.9062 -0.2989  0.8938
 3744THY    HP193581   4.591  -0.005   7.623 -0.1931 -0.0405  2.7789
 3744THY    CP293582   4.794  -0.070   7.599 -0.9205  0.1106  0.6484
 3744THY    HP293583   4.864  -0.132   7.656 -0.6186  0.1131  0.2878
 3744THY    HP393584   4.739  -0.144   7.539  0.3187 -1.1768  1.0441
 3744THY    HP493585   4.841  -0.006   7.523 -1.3642 -1.9909 -1.5469
 3744THY    CP393586   4.680  -0.052   7.807  0.0525 -0.9328 -0.1899
 3744THY    HP593587   4.607   0.002   7.868 -1.5465 -0.6596 -2.2157
 3744THY    HP693588   4.650  -0.158   7.806 -1.6719 -0.5114  1.3529
 3744THY    HP793589   4.779  -0.046   7.854  0.1864  1.5054 -0.6750
 3744THY    CA393590   4.831   0.231   7.699 -1.0330 -0.1660 -0.7134
 3744THY    HA393591   4.924   0.175   7.696  0.2616  1.7907  0.7287
 3744THY    CA493592   4.846   0.372   7.694  0.8771 -0.6335  0.3170
 3744THY    HA493593   4.943   0.419   7.710  0.3049  0.7906 -0.1652
 3744THY    CA593594   4.730   0.455   7.692  0.1783 -0.3571  0.4137
 3744THY    CM193595   4.745   0.610   7.694 -0.3037  0.2214 -0.1629
 3744THY    HM193596   4.846   0.650   7.683  0.3095 -0.5969  2.0825
 3744THY    HM293597   4.684   0.656   7.615  0.0369  0.5119 -0.2605
 3744THY    HM393598   4.708   0.638   7.793  0.9813  0.7755  0.1821
 3744THY    CA693599   4.601   0.393   7.700 -0.1921  0.4866  0.9919
 3744THY    HA693600   4.511   0.454   7.705 -0.6766 -0.2003  0.7705
 3745THY      O93601   6.804   4.943   3.179 -0.1988  0.3244 -0.4869
 3745THY     HO93602   6.721   4.993   3.172 -1.3693 -1.5294 -0.4298
 3745THY    CA193603   6.768   4.825   3.228  0.1813  0.1308 -0.2390
 3745THY    CA293604   6.855   4.728   3.298 -0.0179 -1.3174  0.2146
 3745THY    CP193605   6.991   4.779   3.339 -0.2183  0.0749 -0.0516
 3745THY    HP193606   7.012   4.869   3.281  1.1324  1.3332  2.2224
 3745THY    CP293607   6.984   4.827   3.486 -0.0724 -0.0234  0.7852
 3745THY    HP293608   6.895   4.888   3.507 -0.6887 -0.8560  0.6389
 3745THY    HP393609   6.979   4.738   3.550  1.6727 -1.1989 -0.6214
 3745THY    HP493610   7.069   4.890   3.516  0.6302 -1.5162  2.0886
 3745THY    CP393611   7.106   4.677   3.312 -0.0528 -0.0359 -0.2729
 3745THY    HP593612   7.089   4.586   3.372  1.2361 -0.6495 -0.8113
 3745THY    HP693613   7.114   4.647   3.208 -0.4603  1.3307 -0.7227
 3745THY    HP793614   7.201   4.721   3.344  0.2513  0.3390 -1.6702
 3745THY    CA393615   6.802   4.610   3.343 -0.0998 -0.4367 -0.2558
 3745THY    HA393616   6.850   4.542   3.412 -0.6076  1.4342  2.0832
 3745THY    CA493617   6.675   4.575   3.301 -0.1764 -0.3154  0.1081
 3745THY    HA493618   6.635   4.478   3.332  1.9468 -1.1068  0.5787
 3745THY    CA593619   6.597   4.660   3.222 -0.0282 -0.3795 -0.4865
 3745THY    CM193620   6.455   4.626   3.185 -0.2829 -0.3232 -0.4576
 3745THY    HM193621   6.441   4.621   3.076  1.1374 -1.2508 -0.6212
 3745THY    HM293622   6.430   4.528   3.227 -0.9669  0.7923  1.9407
 3745THY    HM393623   6.379   4.701   3.215  1.0178  0.5502  0.7857
 3745THY    CA693624   6.643   4.789   3.191 -0.1773 -0.5859 -0.0647
 3745THY    HA693625   6.578   4.855   3.134 -1.1961 -1.3341  0.1948
 3746THY      O93626   4.467   2.630   1.106  0.1772  0.0952 -0.3102
 3746THY     HO93627   4.421   2.608   1.189 -0.3624 -0.1247 -0.6661
 3746THY    CA193628   4.601   2.623   1.125 -0.2059 -0.1464 -0.5398
 3746THY    CA293629   4.689   2.655   1.022 -0.0638 -0.2109  0.6474
 3746THY    CP193630   4.639   2.713   0.889 -0.8987  0.0746 -0.4957
 3746THY    HP193631   4.540   2.671   0.867 -0.6778  0.3482 -2.1644
 3746THY    CP293632   4.614   2.864   0.898  0.2872 -0.0922 -0.0727
 3746THY    HP293633   4.617   2.903   0.795  1.8252  2.8106  0.9800
 3746THY    HP393634   4.518   2.897   0.941 -0.8557 -0.8291 -1.9082
 3746THY    HP493635   4.690   2.913   0.958 -1.2055  1.2415  0.8110
 3746THY    CP393636   4.737   2.683   0.774  0.2894 -0.3397 -0.4779
 3746THY    HP593637   4.831   2.738   0.791 -0.0740 -0.2536  1.4790
 3746THY    HP693638   4.765   2.577   0.761  0.9378 -0.4285  1.3965
 3746THY    HP793639   4.701   2.730   0.682 -1.7464  2.0633  1.3969
 3746THY    CA393640   4.828   2.643   1.059  0.1250  0.5169  0.3347
 3746THY    HA393641   4.900   2.674   0.984  0.4609  1.1229  0.8946
 3746THY    CA493642   4.867   2.594   1.188 -0.3225 -0.0010 -0.2972
 3746THY    HA493643   4.973   2.586   1.209 -0.5535  0.6604  1.3386
 3746THY    CA593644   4.774   2.572   1.294  0.7088  0.6737 -1.0525
 3746THY    CM193645   4.821   2.547   1.440  0.2822 -0.0169  0.0879
 3746THY    HM193646   4.727   2.537   1.496 -0.2709 -1.9005 -1.0823
 3746THY    HM293647   4.869   2.448   1.436 -0.2925 -0.2971 -3.4905
 3746THY    HM393648   4.895   2.617   1.482  1.8818 -0.0752 -2.3933
 3746THY    CA693649   4.635   2.582   1.260  0.1637 -0.0866 -0.5171
 3746THY    HA693650   4.562   2.575   1.340  0.0590 -1.3691 -0.7061
 3747THY      O93651   4.990   8.424   0.187  0.1762 -0.1004  0.6782
 3747THY     HO93652   4.979   8.520   0.175  1.2944  0.1369  1.3587
 3747THY    CA193653   4.868   8.388   0.220 -0.0619  0.5940  0.7329
 3747THY    CA293654   4.846   8.264   0.282  0.0239  0.6439 -0.2555
 3747THY    CP193655   4.961   8.169   0.307  0.1850 -0.4273  1.0976
 3747THY    HP193656   5.053   8.229   0.302 -0.7426  1.0140  0.4651
 3747THY    CP293657   4.947   8.088   0.435 -0.2364 -0.9256 -0.7341
 3747THY    HP293658   5.043   8.038   0.449  0.3855  0.8173  1.9795
 3747THY    HP393659   4.943   8.155   0.522  1.5634  1.9160 -2.6730
 3747THY    HP493660   4.859   8.023   0.442 -1.6465  0.8231 -1.4521
 3747THY    CP393661   4.961   8.065   0.196  0.1454  0.8792  0.3102
 3747THY    HP593662   4.859   8.027   0.180  0.5074  0.4897 -1.1743
 3747THY    HP693663   4.993   8.106   0.100 -2.1172  0.6840 -0.5879
 3747THY    HP793664   5.024   7.976   0.206 -2.6729 -1.2535  0.6432
 3747THY    CA393665   4.715   8.233   0.329 -0.0719 -0.7845 -0.4181
 3747THY    HA393666   4.689   8.140   0.380  0.7392 -0.2954  0.9284
 3747THY    CA493667   4.615   8.323   0.316  0.0892 -0.4116 -0.3093
 3747THY    HA493668   4.516   8.304   0.356 -0.6693 -1.4088 -2.5007
 3747THY    CA593669   4.641   8.440   0.241 -0.3393 -0.0601  0.6234
 3747THY    CM193670   4.539   8.543   0.220  0.4204 -0.2565 -0.6582
 3747THY    HM193671   4.451   8.524   0.282 -0.2512  2.8232 -0.5178
 3747THY    HM293672   4.568   8.648   0.234 -1.5368  0.7864 -3.5746
 3747THY    HM393673   4.505   8.543   0.115 -1.3133 -0.3784 -0.1330
 3747THY    CA693674   4.769   8.483   0.202 -0.0668  0.9409 -0.4143
 3747THY    HA693675   4.788   8.578   0.152 -0.1283  1.7194  0.9965
 3748THY      O93676   2.934   7.738   7.875  0.3073  0.0403 -0.1091
 3748THY     HO93677   3.015   7.723   7.823  0.2841  1.1380 -0.4949
 3748THY    CA193678   2.973   7.734   8.003  0.5915  0.6034 -1.5932
 3748THY    CA293679   2.888   7.672   8.097  0.0784 -0.3299  0.3241
 3748THY    CP193680   2.762   7.599   8.046 -0.3707 -0.3440 -0.1637
 3748THY    HP193681   2.783   7.546   7.952 -2.5506 -1.6151 -0.0004
 3748THY    CP293682   2.719   7.477   8.134 -0.2409 -0.4241 -0.3038
 3748THY    HP293683   2.695   7.508   8.236  2.1272 -1.6174  0.6718
 3748THY    HP393684   2.635   7.422   8.089  0.9796 -2.3062 -0.3802
 3748THY    HP493685   2.796   7.400   8.136  0.9582  0.7528 -0.0983
 3748THY    CP393686   2.641   7.695   8.025  0.8778  0.2352  0.2103
 3748THY    HP593687   2.618   7.762   8.108  0.8365  1.2257 -0.5839
 3748THY    HP693688   2.646   7.760   7.937  0.1237 -2.1792 -1.7530
 3748THY    HP793689   2.553   7.633   8.004  0.8062  0.2528  0.4571
 3748THY    CA393690   2.925   7.679   8.237 -0.0752 -0.0078  0.3488
 3748THY    HA393691   2.859   7.642   8.315 -0.7401  0.6395  0.1020
 3748THY    CA493692   3.047   7.736   8.273  0.2976 -0.2168 -0.1893
 3748THY    HA493693   3.083   7.732   8.375 -1.3041 -1.4441  0.3675
 3748THY    CA593694   3.133   7.792   8.178  0.1630  0.4227 -0.3433
 3748THY    CM193695   3.277   7.840   8.220  0.0015 -0.3674 -0.0141
 3748THY    HM193696   3.341   7.832   8.132 -1.9913 -3.4825 -1.3302
 3748THY    HM293697   3.271   7.944   8.256 -0.0150  0.8873 -3.3412
 3748THY    HM393698   3.331   7.782   8.296  1.6182  0.5735 -0.3841
 3748THY    CA693699   3.095   7.791   8.040  0.5116  0.0230 -0.2690
 3748THY    HA693700   3.158   7.832   7.962 -0.3166 -1.6186 -1.8902
 3749THY      O93701   4.198   1.160   3.104 -0.0331  0.0117  0.1349
 3749THY     HO93702   4.241   1.093   3.159  3.1955  1.7080 -0.0895
 3749THY    CA193703   4.073   1.176   3.151 -0.7521  0.6134  0.8171
 3749THY    CA293704   3.982   1.280   3.113 -0.1314  0.9966 -0.1193
 3749THY    CP193705   4.026   1.374   3.005 -0.6034 -0.2065  0.1052
 3749THY    HP193706   4.135   1.380   2.997 -0.5144 -2.9085 -2.4323
 3749THY    CP293707   3.965   1.331   2.866  0.3220 -0.8940  0.2608
 3749THY    HP293708   3.990   1.227   2.844  0.6671 -0.7154 -0.2089
 3749THY    HP393709   3.857   1.350   2.861 -0.1119 -3.2292 -3.5839
 3749THY    HP493710   3.999   1.403   2.790  0.4310 -0.1744  0.9801
 3749THY    CP393711   3.964   1.520   3.038  0.0775  0.8557  0.3239
 3749THY    HP593712   4.005   1.596   2.972  1.3339  0.4392  0.6037
 3749THY    HP693713   3.855   1.520   3.025 -0.2424  2.5117  2.4456
 3749THY    HP793714   3.988   1.549   3.141  2.0005 -0.5308  0.3272
 3749THY    CA393715   3.857   1.285   3.166  0.7518 -0.4659 -1.2300
 3749THY    HA393716   3.779   1.357   3.144  0.7495 -0.0770 -0.0139
 3749THY    CA493717   3.820   1.177   3.253 -0.1221 -0.9036 -0.0033
 3749THY    HA493718   3.715   1.159   3.274 -0.5743 -1.0832 -2.1967
 3749THY    CA593719   3.907   1.077   3.298 -0.5845  0.4580 -0.2461
 3749THY    CM193720   3.848   0.972   3.377 -0.9314  0.2466 -0.5476
 3749THY    HM193721   3.826   0.877   3.326 -0.2194 -0.5317  0.5589
 3749THY    HM293722   3.926   0.946   3.449 -1.8180  2.4539  1.3140
 3749THY    HM393723   3.758   1.001   3.432 -1.5481 -1.8167 -0.3933
 3749THY    CA693724   4.039   1.077   3.251  0.2052 -0.6593 -0.2319
 3749THY    HA693725   4.110   0.998   3.274  3.1976  1.9931  0.4400
 3750THY      O93726   1.751   5.566   5.539  0.1945 -0.6059  0.1464
 3750THY     HO93727   1.742   5.662   5.532  2.0129 -0.5187 -2.1688
 3750THY    CA193728   1.807   5.556   5.659 -0.3471  0.1540  0.4397
 3750THY    CA293729   1.777   5.450   5.748  0.3840  0.2581  0.6451
 3750THY    CP193730   1.675   5.342   5.703 -0.0066 -0.4907  0.1671
 3750THY    HP193731   1.632   5.359   5.604  0.1453  0.3351  0.2377
 3750THY    CP293732   1.751   5.210   5.685 -0.6224  0.3242 -0.3119
 3750THY    HP293733   1.680   5.142   5.637 -0.8411  0.1309  0.2807
 3750THY    HP393734   1.845   5.229   5.632 -0.0140  2.0497  1.2565
 3750THY    HP493735   1.790   5.179   5.783  0.4798 -0.1393 -0.8799
 3750THY    CP393736   1.556   5.337   5.801 -0.3311 -0.0250  0.1492
 3750THY    HP593737   1.580   5.328   5.908 -1.9066 -0.0243  0.5309
 3750THY    HP693738   1.501   5.432   5.798 -0.0123  0.1655  0.3452
 3750THY    HP793739   1.480   5.264   5.771 -2.9039  1.6377  2.1818
 3750THY    CA393740   1.832   5.454   5.877  0.0509  0.5824  0.5055
 3750THY    HA393741   1.806   5.371   5.942 -0.0430 -0.0740 -0.3589
 3750THY    CA493742   1.922   5.554   5.904 -0.2501  0.5527 -0.1207
 3750THY    HA493743   1.964   5.563   6.004  1.1202  0.6084 -0.6890
 3750THY    CA593744   1.938   5.662   5.820 -0.5594  0.5840  0.4255
 3750THY    CM193745   2.005   5.772   5.884  0.4526  0.6803 -0.1317
 3750THY    HM193746   1.991   5.776   5.993  2.1171 -3.3553  0.4189
 3750THY    HM293747   2.112   5.751   5.873  0.3945 -0.3823  1.0572
 3750THY    HM393748   1.985   5.864   5.829 -2.1863 -0.0049 -0.4602
 3750THY    CA693749   1.882   5.667   5.692  0.0517  0.7048  0.4037
 3750THY    HA693750   1.897   5.764   5.644  1.7461 -0.5221 -1.7038
 3751THY      O93751   5.742   4.730   9.519  0.0086  0.4493  0.2918
 3751THY     HO93752   5.836   4.720   9.541  0.0761 -1.9924 -0.8603
 3751THY    CA193753   5.684   4.745   9.640 -0.1905 -0.0801  0.3766
 3751THY    CA293754   5.546   4.766   9.654  0.6793 -0.0880 -0.4792
 3751THY    CP193755   5.461   4.768   9.519  0.1061 -0.6586 -0.6633
 3751THY    HP193756   5.517   4.807   9.433 -0.3833  2.4195  0.2582
 3751THY    CP293757   5.414   4.627   9.484 -0.2240 -0.2568 -0.7119
 3751THY    HP293758   5.314   4.629   9.438 -0.3829 -2.0449 -0.4898
 3751THY    HP393759   5.487   4.579   9.417 -1.2143 -1.7192 -0.7906
 3751THY    HP493760   5.402   4.562   9.571  2.4560 -1.0279 -0.8295
 3751THY    CP393761   5.337   4.862   9.522 -0.0253  0.5397  0.0225
 3751THY    HP593762   5.270   4.843   9.607  0.5905 -0.0462  0.3854
 3751THY    HP693763   5.370   4.966   9.534 -0.6235  0.4971  2.7976
 3751THY    HP793764   5.284   4.846   9.427  0.7260 -0.3524 -0.2558
 3751THY    CA393765   5.485   4.783   9.784  0.0997 -0.1087  0.4211
 3751THY    HA393766   5.377   4.795   9.792 -0.2396 -0.0062 -2.7269
 3751THY    CA493767   5.569   4.776   9.895  0.4032  0.1026  0.0324
 3751THY    HA493768   5.532   4.781   9.997  2.9947  1.5026  0.9877
 3751THY    CA593769   5.709   4.766   9.880  0.1652 -1.1609  0.8657
 3751THY    CM193770   5.801   4.759  10.001  0.0241 -0.1844  0.8172
 3751THY    HM193771   5.760   4.829  10.075 -1.3065 -1.1600  1.0405
 3751THY    HM293772   5.806   4.658  10.044 -0.6888 -1.0926 -1.1211
 3751THY    HM393773   5.897   4.804   9.974  0.1454  0.9626  2.9133
 3751THY    CA693774   5.769   4.751   9.750  0.1880  0.0012  0.1776
 3751THY    HA693775   5.876   4.763   9.740  0.1985  0.4328  0.7303
 3752THY      O93776   0.196   1.710   1.460 -0.8531 -0.0450 -0.1566
 3752THY     HO93777   0.160   1.621   1.446  0.5059 -0.6191 -0.1355
 3752THY    CA193778   0.145   1.754   1.581 -0.1904 -0.7099  0.0828
 3752THY    CA293779   0.211   1.854   1.657  0.1233  0.8894 -0.0977
 3752THY    CP193780   0.337   1.917   1.611  0.3104  0.0556  0.0008
 3752THY    HP193781   0.348   1.914   1.502  1.7857 -1.5960  0.1582
 3752THY    CP293782   0.334   2.071   1.631  0.6126 -0.1555  0.1606
 3752THY    HP293783   0.309   2.103   1.732 -0.1134 -0.1627 -0.0060
 3752THY    HP393784   0.428   2.118   1.600  1.0660 -2.0553 -1.5687
 3752THY    HP493785   0.251   2.108   1.569  0.8148 -2.7697 -1.8813
 3752THY    CP393786   0.457   1.857   1.684  0.5321  0.8232  0.0969
 3752THY    HP593787   0.547   1.920   1.679  0.4021  0.9044 -1.6841
 3752THY    HP693788   0.426   1.834   1.787  1.2599 -0.7651 -0.0137
 3752THY    HP793789   0.469   1.759   1.638  0.0437  1.1321 -0.7108
 3752THY    CA393790   0.148   1.889   1.784 -0.2198 -0.0603 -0.5682
 3752THY    HA393791   0.195   1.968   1.842  2.8735 -3.0771  1.3380
 3752THY    CA493792   0.035   1.827   1.831 -0.2121  0.5500  1.0203
 3752THY    HA493793  -0.006   1.848   1.930 -0.4299 -0.8364  1.2479
 3752THY    CA593794  -0.020   1.724   1.755 -0.4606  0.1678  0.0323
 3752THY    CM193795  -0.136   1.650   1.810  0.2070 -0.4206 -0.4426
 3752THY    HM193796  -0.143   1.548   1.771 -2.2879  0.3663 -2.2909
 3752THY    HM293797  -0.117   1.628   1.915  0.2295 -2.5465 -0.8569
 3752THY    HM393798  -0.229   1.705   1.791 -1.6969 -3.8870 -2.0147
 3752THY    CA693799   0.030   1.691   1.628 -0.2683 -0.4179  0.1760
 3752THY    HA693800  -0.015   1.606   1.578 -1.7993  0.6615 -0.3482
 3753THY      O93801   9.542   0.936   1.976  0.4853  0.1466  0.4236
 3753THY     HO93802   9.594   0.857   1.995  0.2048 -0.1121  0.1210
 3753THY    CA193803   9.577   0.955   1.853 -0.0945 -0.0959  0.3538
 3753THY    CA293804   9.542   1.072   1.788 -0.5303  0.4461  0.1906
 3753THY    CP193805   9.475   1.188   1.867  1.1494  0.4960  0.2822
 3753THY    HP193806   9.511   1.180   1.971  3.0671 -1.5914 -0.4771
 3753THY    CP293807   9.511   1.339   1.823  0.5939  0.4851 -0.4409
 3753THY    HP293808   9.620   1.354   1.826  0.6717  0.0407 -0.8462
 3753THY    HP393809   9.482   1.364   1.720  2.0094 -1.3290 -1.3308
 3753THY    HP493810   9.460   1.415   1.883  1.7678 -0.6284  2.1093
 3753THY    CP393811   9.323   1.162   1.859  0.8065 -0.2404  0.1709
 3753THY    HP593812   9.262   1.231   1.918 -0.4164 -0.3766 -0.8926
 3753THY    HP693813   9.289   1.162   1.755  0.9908  0.7602  0.1005
 3753THY    HP793814   9.297   1.062   1.893  0.0189  0.2153  0.9405
 3753THY    CA393815   9.583   1.097   1.651 -0.3438 -0.0682 -0.3772
 3753THY    HA393816   9.557   1.187   1.596  1.8105 -0.0125 -1.4548
 3753THY    CA493817   9.641   0.983   1.582 -0.2123 -0.3814  0.0168
 3753THY    HA493818   9.674   0.999   1.479 -1.0186 -1.5080 -0.4339
 3753THY    CA593819   9.679   0.866   1.650 -0.5609  1.5983 -0.4232
 3753THY    CM193820   9.761   0.766   1.561  0.4780  0.4029  0.0368
 3753THY    HM193821   9.860   0.802   1.533  1.0446  0.6792  2.2191
 3753THY    HM293822   9.777   0.671   1.613  0.5688 -1.0834 -2.5365
 3753THY    HM393823   9.700   0.744   1.473 -0.1655 -1.1532  0.8332
 3753THY    CA693824   9.648   0.851   1.788 -0.5313  0.6883  0.3403
 3753THY    HA693825   9.665   0.759   1.842 -2.6716  1.1127  1.8333
 3754THY      O93826   3.590   0.980   2.163 -0.1050  0.4272  0.0825
 3754THY     HO93827   3.572   1.070   2.130  2.1969  1.2091  0.7775
 3754THY    CA193828   3.698   0.994   2.242 -0.5057  0.0622  0.9028
 3754THY    CA293829   3.792   0.890   2.247  0.6933 -0.1861 -0.2324
 3754THY    CP193830   3.778   0.762   2.164  0.2276 -0.3931 -0.6728
 3754THY    HP193831   3.673   0.729   2.160  0.1638 -0.1810 -0.7949
 3754THY    CP293832   3.826   0.774   2.020  0.1708 -0.0864 -0.6831
 3754THY    HP293833   3.806   0.690   1.954  4.2097 -1.9967  0.2294
 3754THY    HP393834   3.803   0.871   1.974 -0.4510  0.2889  0.3918
 3754THY    HP493835   3.935   0.782   2.009 -0.0794  1.8594 -2.4427
 3754THY    CP393836   3.839   0.640   2.236 -0.7121 -0.3057  0.1926
 3754THY    HP593837   3.797   0.549   2.192 -0.8986 -1.3903  2.4634
 3754THY    HP693838   3.946   0.628   2.218 -0.4383 -0.9271  2.0546
 3754THY    HP793839   3.812   0.637   2.342  0.0397 -1.5400  0.3749
 3754THY    CA393840   3.899   0.906   2.336  0.0108  0.0036 -0.1274
 3754THY    HA393841   3.970   0.824   2.348  0.1915  0.1134 -0.4235
 3754THY    CA493842   3.911   1.024   2.408 -0.3593 -1.3925 -0.2820
 3754THY    HA493843   3.991   1.042   2.478  0.9814  0.2715 -2.1258
 3754THY    CA593844   3.815   1.125   2.397 -0.0811  0.3439  0.4968
 3754THY    CM193845   3.825   1.256   2.486 -0.6241 -0.3223 -0.0885
 3754THY    HM193846   3.911   1.318   2.457  0.3195 -1.6873 -0.2855
 3754THY    HM293847   3.738   1.323   2.474  1.5468  2.4972 -1.4250
 3754THY    HM393848   3.841   1.234   2.592  0.8452 -1.2124 -0.4660
 3754THY    CA693849   3.707   1.108   2.311 -1.2519  0.1111 -0.3924
 3754THY    HA693850   3.650   1.199   2.298  3.4794  3.5623  0.4479
 3755THY      O93851   6.839   7.510   8.348  0.2253 -0.2038 -0.1153
 3755THY     HO93852   6.930   7.513   8.381  0.3551  0.1262 -0.4859
 3755THY    CA193853   6.829   7.569   8.226  0.1226 -0.4060 -1.2475
 3755THY    CA293854   6.728   7.540   8.138  0.5999 -0.2989  0.0337
 3755THY    CP193855   6.615   7.448   8.186 -0.1433 -0.6754  0.1042
 3755THY    HP193856   6.594   7.462   8.292 -1.3478  0.3203 -0.2460
 3755THY    CP293857   6.485   7.486   8.115 -0.0014  0.5357 -0.0073
 3755THY    HP293858   6.479   7.594   8.097  2.3313  0.4744 -1.5901
 3755THY    HP393859   6.463   7.434   8.021 -4.2740 -0.7936  1.4849
 3755THY    HP493860   6.401   7.452   8.177  0.0408 -0.1623 -0.3273
 3755THY    CP393861   6.650   7.306   8.159  0.1779 -0.9129  0.1071
 3755THY    HP593862   6.732   7.270   8.223 -0.7991  1.8379  3.1486
 3755THY    HP693863   6.569   7.239   8.187  2.7830 -3.4043  2.3452
 3755THY    HP793864   6.682   7.290   8.055 -0.1485 -1.3323  0.0722
 3755THY    CA393865   6.739   7.592   8.010  0.0617 -0.9594 -0.3935
 3755THY    HA393866   6.672   7.562   7.930 -0.5910  0.3511 -0.3703
 3755THY    CA493867   6.848   7.682   7.986 -0.2259  0.6260  0.3783
 3755THY    HA493868   6.854   7.730   7.888 -1.8327 -1.9205 -1.0750
 3755THY    CA593869   6.935   7.723   8.088 -0.1948  0.2672  0.2425
 3755THY    CM193870   7.039   7.825   8.059 -0.3211  0.0557  0.3486
 3755THY    HM193871   7.018   7.924   8.102 -0.8096  0.3526 -0.5451
 3755THY    HM293872   7.135   7.805   8.108 -0.1100 -0.6710 -0.3363
 3755THY    HM393873   7.065   7.844   7.955  1.2604 -1.7138  0.3839
 3755THY    CA693874   6.930   7.669   8.211 -0.1730  1.0143 -0.0902
 3755THY    HA693875   7.008   7.684   8.285  0.8712 -2.2460 -0.4042
 3756THY      O93876   8.493   4.771   7.916  0.0438 -0.3869 -0.5474
 3756THY     HO93877   8.487   4.681   7.953 -3.8576  0.0225  0.3122
 3756THY    CA193878   8.415   4.757   7.801  0.0338 -0.1792 -0.0422
 3756THY    CA293879   8.354   4.871   7.742 -0.0514 -0.1375  0.0178
 3756THY    CP193880   8.367   5.002   7.809  0.5548  0.5796 -0.0700
 3756THY    HP193881   8.402   4.982   7.911  0.3050  1.0952  0.1191
 3756THY    CP293882   8.453   5.097   7.731 -0.3881  0.0523 -0.0332
 3756THY    HP293883   8.430   5.202   7.750 -0.3967  0.0477 -0.0199
 3756THY    HP393884   8.558   5.077   7.758  0.1541  1.5043 -0.9669
 3756THY    HP493885   8.438   5.082   7.624 -0.2630  3.1059 -0.5693
 3756THY    CP393886   8.233   5.078   7.830 -0.1616 -0.4226 -1.0523
 3756THY    HP593887   8.245   5.152   7.911  0.4678 -1.0445 -0.5655
 3756THY    HP693888   8.207   5.127   7.735 -2.6530  1.0724  0.2896
 3756THY    HP793889   8.141   5.024   7.855  0.3783 -1.4829 -1.3376
 3756THY    CA393890   8.296   4.861   7.621  0.1387  0.4286  1.3573
 3756THY    HA393891   8.237   4.933   7.565  1.1674  0.7652  0.6654
 3756THY    CA493892   8.291   4.728   7.563  0.7772  0.1882 -0.4269
 3756THY    HA493893   8.242   4.708   7.468  0.9111 -0.6719 -0.3295
 3756THY    CA593894   8.345   4.617   7.625  0.1853  0.5805  0.8969
 3756THY    CM193895   8.346   4.479   7.559 -0.3889 -0.1705  0.6487
 3756THY    HM193896   8.409   4.410   7.617  0.7511  0.3019  0.0176
 3756THY    HM293897   8.246   4.440   7.540  0.1805 -1.1278 -0.5431
 3756THY    HM393898   8.407   4.483   7.467 -0.4964 -0.3492  0.5688
 3756THY    CA693899   8.403   4.632   7.744  0.2016 -0.2509 -0.9352
 3756THY    HA693900   8.448   4.548   7.796  0.5539  1.4258  1.6413
 3757THY      O93901   1.527   2.606   2.428  0.3807  0.8506  0.2866
 3757THY     HO93902   1.524   2.652   2.514 -1.1702  2.5726 -0.6197
 3757THY    CA193903   1.583   2.706   2.350 -0.5967  0.0969  0.5446
 3757THY    CA293904   1.671   2.673   2.243 -0.1397 -0.3262 -0.0421
 3757THY    CP193905   1.693   2.521   2.206  0.0756  0.1021  0.3052
 3757THY    HP193906   1.620   2.464   2.265 -1.6825  3.0448  1.1605
 3757THY    CP293907   1.663   2.483   2.058 -0.4360 -0.5901  0.4823
 3757THY    HP293908   1.688   2.559   1.983  0.6037  1.0460  2.3865
 3757THY    HP393909   1.719   2.391   2.037  1.4452  0.6418 -0.1873
 3757THY    HP493910   1.559   2.458   2.034 -0.6538  0.2842  0.4830
 3757THY    CP393911   1.840   2.474   2.237  0.1521  0.3220 -0.5900
 3757THY    HP593912   1.843   2.482   2.346  2.5569  1.7475 -0.7001
 3757THY    HP693913   1.867   2.369   2.219  0.6616  0.1565  1.0373
 3757THY    HP793914   1.916   2.542   2.197  0.8854 -0.1027  0.0653
 3757THY    CA393915   1.729   2.778   2.170  0.6197  0.2050  0.6133
 3757THY    HA393916   1.790   2.765   2.080  0.3442  0.7805  0.3375
 3757THY    CA493917   1.692   2.911   2.204 -0.5672 -0.3929 -0.0250
 3757THY    HA493918   1.747   2.989   2.152  1.3247 -1.2317  0.6766
 3757THY    CA593919   1.603   2.941   2.310 -0.6641  0.5873 -0.2693
 3757THY    CM193920   1.564   3.084   2.324  0.3128 -0.2759  0.1244
 3757THY    HM193921   1.571   3.137   2.229 -1.3955 -0.8747 -0.3829
 3757THY    HM293922   1.463   3.084   2.368  0.6563 -1.1142  0.9465
 3757THY    HM393923   1.629   3.138   2.394 -1.3310  1.9280  0.0400
 3757THY    CA693924   1.546   2.839   2.385 -0.0975  0.2928 -0.1042
 3757THY    HA693925   1.471   2.867   2.460  0.0743  1.8208 -0.4636
 3758THY      O93926   8.787   2.441   5.431  1.0260  0.4690 -0.2629
 3758THY     HO93927   8.698   2.473   5.411 -0.1297 -2.1474  0.2196
 3758THY    CA193928   8.813   2.329   5.362 -0.5467  0.3066  0.5855
 3758THY    CA293929   8.871   2.209   5.426  0.0751 -0.3939  0.4722
 3758THY    CP193930   8.912   2.199   5.574  0.2089  0.4893 -0.1382
 3758THY    HP193931   8.895   2.288   5.637  0.9472  1.5952 -1.4493
 3758THY    CP293932   8.842   2.085   5.653  0.2197  0.1132 -0.5500
 3758THY    HP293933   8.843   1.988   5.602  1.5182 -0.0948 -0.1585
 3758THY    HP393934   8.890   2.085   5.752 -0.8644 -1.1733  0.0091
 3758THY    HP493935   8.736   2.111   5.670  0.4601  0.7425  0.0526
 3758THY    CP393936   9.065   2.167   5.592  0.8546  0.0316 -0.4227
 3758THY    HP593937   9.088   2.074   5.539 -1.4026 -1.1064  0.4779
 3758THY    HP693938   9.123   2.253   5.555  1.0050 -0.5945 -1.7121
 3758THY    HP793939   9.089   2.143   5.696 -1.5601 -0.6354  0.0197
 3758THY    CA393940   8.904   2.101   5.340  0.2470  0.1212 -0.1978
 3758THY    HA393941   8.946   2.011   5.383 -0.2956 -0.4636 -0.8755
 3758THY    CA493942   8.887   2.114   5.202  0.7569 -0.4300  0.1751
 3758THY    HA493943   8.912   2.031   5.136  0.3413  0.4753 -1.1741
 3758THY    CA593944   8.829   2.230   5.150  0.1523 -0.2312  0.3588
 3758THY    CM193945   8.836   2.244   4.994 -0.2488  0.4665 -0.5093
 3758THY    HM193946   8.756   2.311   4.961  1.5597  1.4255 -3.2479
 3758THY    HM293947   8.925   2.301   4.965 -1.0247  1.8088 -0.3249
 3758THY    HM393948   8.835   2.147   4.942  1.1978  0.4958 -0.6241
 3758THY    CA693949   8.798   2.340   5.227  0.3874  0.4152  0.4850
 3758THY    HA693950   8.776   2.436   5.182  0.6897  0.8928  1.3497
 3759THY      O93951   8.078   2.519   9.494  0.0941 -0.2952 -0.7358
 3759THY     HO93952   8.175   2.517   9.499  0.0856 -0.9882 -0.7695
 3759THY    CA193953   8.030   2.431   9.586  0.7281  0.2327  0.1098
 3759THY    CA293954   7.903   2.371   9.578  0.0841 -0.3102 -0.3611
 3759THY    CP193955   7.803   2.389   9.459 -0.5588 -0.3307  0.5801
 3759THY    HP193956   7.860   2.414   9.369  2.4015 -1.5073  1.9732
 3759THY    CP293957   7.725   2.267   9.415 -0.1304 -0.3006  0.6206
 3759THY    HP293958   7.640   2.228   9.472 -0.1282  0.1814  0.9647
 3759THY    HP393959   7.686   2.292   9.315  2.3552 -0.6710 -0.5098
 3759THY    HP493960   7.798   2.186   9.405  1.2405  0.5536  2.9771
 3759THY    CP393961   7.711   2.504   9.475 -0.5576  0.3641  0.1733
 3759THY    HP593962   7.640   2.512   9.391 -1.1304  0.7738  0.6878
 3759THY    HP693963   7.663   2.497   9.573 -2.2346  0.2828 -0.6175
 3759THY    HP793964   7.770   2.596   9.473  1.2612 -0.7642 -0.5217
 3759THY    CA393965   7.851   2.307   9.691  0.0021  0.2527 -0.5442
 3759THY    HA393966   7.758   2.251   9.686 -0.1502  0.5656 -1.2777
 3759THY    CA493967   7.927   2.293   9.807  0.3685  0.2555 -0.5182
 3759THY    HA493968   7.906   2.226   9.890  2.9098  0.7057  0.5842
 3759THY    CA593969   8.055   2.357   9.812 -0.4379 -0.0537  0.8621
 3759THY    CM193970   8.141   2.337   9.930 -0.6199  0.1148 -0.5541
 3759THY    HM193971   8.235   2.289   9.898 -1.9393 -1.8834 -1.6583
 3759THY    HM293972   8.159   2.424   9.994  2.0474 -1.7577  1.4929
 3759THY    HM393973   8.096   2.262   9.997  1.0771 -2.0560 -1.6764
 3759THY    CA693974   8.106   2.423   9.701  0.3551  0.3008  0.1096
 3759THY    HA693975   8.198   2.478   9.714  0.7177 -0.3811  0.4618
 3760THY      O93976   1.581   2.780   5.254 -0.2502 -0.4752  0.2658
 3760THY     HO93977   1.671   2.814   5.264  0.4941 -2.2680 -0.0811
 3760THY    CA193978   1.573   2.756   5.125 -0.1190 -0.3876 -0.5874
 3760THY    CA293979   1.451   2.725   5.064  0.4348  0.7892  0.4987
 3760THY    CP193980   1.320   2.713   5.151 -0.0123 -0.0928 -0.5795
 3760THY    HP193981   1.347   2.721   5.257 -1.2580 -1.5876 -0.1003
 3760THY    CP293982   1.241   2.843   5.125 -0.2999 -0.1808 -0.7273
 3760THY    HP293983   1.186   2.836   5.030 -1.3322 -0.0080 -0.1587
 3760THY    HP393984   1.164   2.853   5.202 -0.4912  1.7386 -1.1207
 3760THY    HP493985   1.298   2.936   5.126 -0.7664  0.1508 -2.2396
 3760THY    CP393986   1.244   2.578   5.134 -0.4060  0.5284 -0.6931
 3760THY    HP593987   1.320   2.501   5.114 -0.1904 -0.1201  2.1493
 3760THY    HP693988   1.180   2.550   5.218  1.0436 -2.0882 -0.3594
 3760THY    HP793989   1.182   2.589   5.044 -1.0596  2.9496 -0.0310
 3760THY    CA393990   1.450   2.698   4.926  0.0773 -0.1899 -0.2255
 3760THY    HA393991   1.350   2.672   4.891  0.2920 -2.2896  0.5855
 3760THY    CA493992   1.565   2.700   4.854  0.7891  0.0454 -0.1029
 3760THY    HA493993   1.568   2.671   4.750 -0.0084  0.7767 -0.3463
 3760THY    CA593994   1.686   2.731   4.919 -0.2628  0.2205 -0.6615
 3760THY    CM193995   1.815   2.721   4.832  0.4337 -0.6225 -0.0804
 3760THY    HM193996   1.859   2.821   4.824  0.5029 -0.5449  1.1089
 3760THY    HM293997   1.882   2.646   4.875 -1.7656 -1.3180  2.3745
 3760THY    HM393998   1.798   2.701   4.726 -0.1103  1.9516 -0.5645
 3760THY    CA693999   1.690   2.769   5.051 -0.7035  0.3286 -0.4542
 3760THY    HA694000   1.781   2.809   5.096 -1.3587  1.2595  0.0701
 3761THY      O94001   6.194   5.914   4.354 -0.0382  0.3378  0.2312
 3761THY     HO94002   6.221   5.988   4.297 -1.5718  1.3987  0.8149
 3761THY    CA194003   6.090   5.967   4.425 -0.5501  0.3428  0.1254
 3761THY    CA294004   6.073   5.934   4.562  0.4751  0.0327 -0.2582
 3761THY    CP194005   6.158   5.829   4.630 -0.3507 -0.3981 -0.3007
 3761THY    HP194006   6.231   5.786   4.560 -0.7395  1.3410 -1.8510
 3761THY    CP294007   6.242   5.892   4.745  0.0779 -0.4484 -0.5814
 3761THY    HP294008   6.306   5.972   4.706  0.1949 -0.3537 -0.2077
 3761THY    HP394009   6.188   5.935   4.830 -0.1078  0.3028 -1.0711
 3761THY    HP494010   6.308   5.814   4.785  2.0896  0.9429 -1.0063
 3761THY    CP394011   6.067   5.723   4.688  0.2697 -0.5881 -0.2083
 3761THY    HP594012   5.991   5.691   4.615  0.8022  2.2379 -2.1263
 3761THY    HP694013   6.132   5.640   4.720 -0.0947 -1.4913 -1.7095
 3761THY    HP794014   6.004   5.772   4.764 -1.9316  1.2273 -3.0189
 3761THY    CA394015   5.971   6.009   4.633 -0.0547 -0.3049  0.3110
 3761THY    HA394016   5.975   6.005   4.741 -0.7579  1.1982  0.4211
 3761THY    CA494017   5.892   6.107   4.569 -0.4077 -0.4892 -0.1224
 3761THY    HA494018   5.815   6.161   4.623 -0.8125 -0.1389 -1.0270
 3761THY    CA594019   5.901   6.118   4.432  0.4000 -0.5464  0.0701
 3761THY    CM194020   5.795   6.202   4.359  0.1255 -0.5508 -0.0893
 3761THY    HM194021   5.691   6.176   4.383 -0.5848  2.3876  0.3838
 3761THY    HM294022   5.794   6.304   4.398 -0.9210 -0.4779 -0.2771
 3761THY    HM394023   5.796   6.192   4.250  0.4855 -3.1423  0.0670
 3761THY    CA694024   6.005   6.058   4.358  0.6268  0.1623 -0.1212
 3761THY    HA694025   6.015   6.075   4.251  1.5400 -2.8504 -0.6057
 3762THY      O94026   7.075   3.350   8.092  0.0037 -0.2004 -0.3743
 3762THY     HO94027   7.148   3.293   8.121  2.1202  0.1148 -4.3854
 3762THY    CA194028   7.026   3.415   8.204 -0.3250  0.4654 -0.1586
 3762THY    CA294029   6.888   3.450   8.212 -1.1423 -0.3716  0.8669
 3762THY    CP194030   6.804   3.442   8.079  0.1878 -0.6065  0.3894
 3762THY    HP194031   6.707   3.492   8.093  1.2115  1.4498  0.5375
 3762THY    CP294032   6.856   3.534   7.966 -0.5987  0.3759 -0.0275
 3762THY    HP294033   6.905   3.624   8.006 -1.4664  0.8564 -0.0241
 3762THY    HP394034   6.920   3.483   7.894  0.5612 -2.6507  2.9357
 3762THY    HP494035   6.774   3.556   7.897 -1.5032  0.3647  1.0169
 3762THY    CP394036   6.778   3.300   8.024 -0.0494  0.7243  0.4287
 3762THY    HP594037   6.724   3.316   7.930  2.1832  2.0186 -0.7099
 3762THY    HP694038   6.870   3.240   8.015 -0.6240  0.0154 -0.9580
 3762THY    HP794039   6.722   3.239   8.096  0.5173  0.2215  0.4612
 3762THY    CA394040   6.838   3.496   8.341  0.5605  0.8729 -0.2320
 3762THY    HA394041   6.735   3.530   8.347 -0.4674 -1.0592 -3.7834
 3762THY    CA494042   6.923   3.506   8.450  0.2714  0.0444 -0.6792
 3762THY    HA494043   6.878   3.543   8.542  1.9091  0.3336  0.0433
 3762THY    CA594044   7.060   3.463   8.440 -0.2794 -0.1409  0.2173
 3762THY    CM194045   7.159   3.486   8.552  0.0742  1.0115 -1.1584
 3762THY    HM194046   7.254   3.515   8.506 -0.7407  2.5556 -1.9356
 3762THY    HM294047   7.134   3.570   8.619  1.2059 -0.6106  1.4594
 3762THY    HM394048   7.170   3.399   8.618  1.8612  0.9475 -1.4952
 3762THY    CA694049   7.112   3.415   8.316  0.5879 -0.2362  0.3488
 3762THY    HA694050   7.217   3.390   8.310  0.6635  0.1727 -0.0144
 3763THY      O94051   5.224   9.316   2.518  0.5121 -0.1994 -0.0347
 3763THY     HO94052   5.253   9.390   2.575  1.8648 -0.3768 -0.4635
 3763THY    CA194053   5.332   9.276   2.452  0.8580 -0.2720  0.4418
 3763THY    CA294054   5.332   9.161   2.379 -0.4278 -0.6978 -0.8500
 3763THY    CP194055   5.206   9.079   2.361  0.4666 -0.2397 -0.2364
 3763THY    HP194056   5.124   9.149   2.345 -0.0658  0.3901  3.9237
 3763THY    CP294057   5.215   8.988   2.232  0.5090 -0.2870 -0.3557
 3763THY    HP294058   5.286   8.906   2.245 -0.3520 -0.7392  1.8422
 3763THY    HP394059   5.114   8.946   2.219 -1.2550  1.8217  4.2720
 3763THY    HP494060   5.255   9.040   2.144  2.2398  1.3405  1.2942
 3763THY    CP394061   5.174   8.992   2.489 -0.4270  0.5615  1.0164
 3763THY    HP594062   5.168   9.054   2.580 -0.7449  2.2631 -0.1281
 3763THY    HP694063   5.081   8.936   2.473 -1.2860  2.3997 -0.7373
 3763THY    HP794064   5.258   8.922   2.500 -0.9704 -0.4660 -1.0511
 3763THY    CA394065   5.456   9.124   2.317 -0.2224 -0.1156 -0.3993
 3763THY    HA394066   5.467   9.034   2.257 -0.0800  0.3914 -1.1451
 3763THY    CA494067   5.560   9.222   2.308 -0.4260  0.3773  0.2411
 3763THY    HA494068   5.652   9.200   2.256 -1.5940  0.9021 -2.2442
 3763THY    CA594069   5.550   9.339   2.378 -0.1982  0.0187 -0.4507
 3763THY    CM194070   5.664   9.429   2.374 -1.2143  0.5254  0.1155
 3763THY    HM194071   5.744   9.381   2.431 -0.6671 -0.0490 -1.0896
 3763THY    HM294072   5.704   9.440   2.272 -0.3964 -1.2293  0.2182
 3763THY    HM394073   5.640   9.525   2.421 -2.0792  0.0573  0.6549
 3763THY    CA694074   5.439   9.366   2.451  1.0469  0.3514 -0.1193
 3763THY    HA694075   5.422   9.458   2.506 -2.2909 -1.6526  2.6682
 3764THY      O94076   4.805   6.482   1.332  0.2048 -0.0684  0.1693
 3764THY     HO94077   4.810   6.405   1.273 -0.3373 -0.7996  1.0394
 3764THY    CA194078   4.682   6.478   1.391  0.4638 -0.2467  0.4118
 3764THY    CA294079   4.641   6.555   1.503  0.1463  0.1601  0.5133
 3764THY    CP194080   4.740   6.664   1.554  0.7469  0.2687 -0.3580
 3764THY    HP194081   4.842   6.645   1.520  0.5218 -1.9008  0.0757
 3764THY    CP294082   4.692   6.803   1.504 -0.0340  0.3942 -0.6525
 3764THY    HP294083   4.707   6.802   1.396 -2.3652  3.0920 -1.1009
 3764THY    HP394084   4.585   6.818   1.522 -0.4196 -2.7728  0.4541
 3764THY    HP494085   4.758   6.875   1.554 -2.5232  1.0236  2.0081
 3764THY    CP394086   4.741   6.667   1.711  0.4347 -0.5914 -0.1796
 3764THY    HP594087   4.642   6.692   1.750  0.4761  2.3586 -1.6618
 3764THY    HP694088   4.777   6.579   1.766  0.7214  0.2560  1.0255
 3764THY    HP794089   4.807   6.751   1.735  2.6306 -2.3988  0.5077
 3764THY    CA394090   4.510   6.529   1.556 -0.0176 -0.0410  0.3238
 3764THY    HA394091   4.491   6.597   1.639 -1.0877 -1.8337  1.6046
 3764THY    CA494092   4.427   6.430   1.504  0.2384 -0.2836 -0.1033
 3764THY    HA494093   4.331   6.407   1.550 -0.1385  1.0730 -0.1786
 3764THY    CA594094   4.470   6.361   1.391 -0.3039  0.4222  0.3302
 3764THY    CM194095   4.390   6.250   1.339  0.4845 -0.2609  0.2536
 3764THY    HM194096   4.418   6.148   1.369 -1.9723 -1.2692 -0.6388
 3764THY    HM294097   4.286   6.259   1.374  0.0115 -0.4830 -1.0392
 3764THY    HM394098   4.391   6.254   1.229  1.0426  0.3497  0.2784
 3764THY    CA694099   4.592   6.380   1.335  0.4307 -0.0473 -0.0973
 3764THY    HA694100   4.633   6.321   1.253  0.6704  0.8994 -0.6739
 3765THY      O94101   8.395   6.992   4.384 -0.0047 -0.9030  0.7384
 3765THY     HO94102   8.358   6.963   4.469  1.1140  0.4782  1.7398
 3765THY    CA194103   8.530   7.006   4.398  0.1880 -0.6100  0.5511
 3765THY    CA294104   8.609   7.077   4.306  0.3409 -0.2382 -0.1946
 3765THY    CP194105   8.555   7.180   4.211 -0.1033  0.0452 -0.1453
 3765THY    HP194106   8.446   7.168   4.215 -0.1312  0.6470  1.2599
 3765THY    CP294107   8.584   7.316   4.258 -0.2782 -0.0282  0.2885
 3765THY    HP294108   8.538   7.345   4.353  0.2623  0.2076  0.4850
 3765THY    HP394109   8.689   7.334   4.285  0.6615  0.1591 -3.0720
 3765THY    HP494110   8.574   7.392   4.180  0.0176 -2.5863 -2.4211
 3765THY    CP394111   8.601   7.151   4.063 -0.7420  0.6160  0.5894
 3765THY    HP594112   8.587   7.047   4.031 -0.5923  0.6935  0.2756
 3765THY    HP694113   8.530   7.192   3.990  0.7674 -0.1144 -1.3870
 3765THY    HP794114   8.704   7.185   4.049 -0.3569 -0.7143  0.0721
 3765THY    CA394115   8.750   7.078   4.318  0.0908 -0.3777  0.0187
 3765THY    HA394116   8.810   7.143   4.256 -0.1199 -2.1657 -2.1839
 3765THY    CA494117   8.811   7.009   4.424  0.3074 -0.1615  0.3280
 3765THY    HA494118   8.918   7.002   4.436  0.2575 -1.6149  0.1178
 3765THY    CA594119   8.730   6.936   4.514  1.4567  0.0418  0.1229
 3765THY    CM194120   8.793   6.845   4.614 -0.4669 -0.0212  0.0864
 3765THY    HM194121   8.724   6.864   4.697  0.7016  0.9141  0.8844
 3765THY    HM294122   8.770   6.744   4.580  0.5347  0.8628 -3.5967
 3765THY    HM394123   8.902   6.849   4.626 -0.5507 -0.9081  1.3695
 3765THY    CA694124   8.588   6.938   4.497  0.1052 -0.0245 -0.2107
 3765THY    HA694125   8.529   6.883   4.570  1.9925  0.3420  1.6813
 3766THY      O94126   9.033   9.937   8.558 -0.5569  0.2553 -0.0232
 3766THY     HO94127   9.076  10.012   8.603  1.4772 -1.0983  0.4568
 3766THY    CA194128   9.121   9.837   8.584  0.3183  0.1458 -0.0474
 3766THY    CA294129   9.084   9.701   8.608 -0.4592 -0.8716  0.0090
 3766THY    CP194130   8.935   9.659   8.586 -0.1979 -0.0607  0.4614
 3766THY    HP194131   8.860   9.720   8.639 -1.6009 -1.9451  0.7757
 3766THY    CP294132   8.877   9.656   8.445  0.3956  0.7417 -0.3602
 3766THY    HP294133   8.926   9.577   8.387  0.7252  1.0952 -0.5696
 3766THY    HP394134   8.769   9.639   8.438  0.7088 -1.0215 -1.5931
 3766THY    HP494135   8.896   9.740   8.378  2.0700  0.1852 -0.6470
 3766THY    CP394136   8.908   9.518   8.645  0.0673 -0.3386 -0.7362
 3766THY    HP594137   8.934   9.430   8.585 -1.8218 -1.6168  0.2301
 3766THY    HP694138   8.953   9.513   8.745 -1.3227  1.3530  0.0121
 3766THY    HP794139   8.801   9.501   8.660  0.1494 -0.0503  0.2430
 3766THY    CA394140   9.185   9.604   8.626  0.1488  0.4919 -0.1162
 3766THY    HA394141   9.160   9.498   8.624 -0.2338  0.5603  0.6866
 3766THY    CA494142   9.317   9.643   8.652  0.6846  0.3842  0.5103
 3766THY    HA494143   9.402   9.578   8.671 -0.2164 -1.9820 -2.7809
 3766THY    CA594144   9.347   9.779   8.623 -0.9261  0.5372 -0.4523
 3766THY    CM194145   9.483   9.828   8.638 -0.8205 -0.4192 -0.1712
 3766THY    HM194146   9.526   9.839   8.538 -0.7782 -1.1668 -0.2367
 3766THY    HM294147   9.489   9.924   8.692 -0.5215 -1.1904  1.2065
 3766THY    HM394148   9.545   9.752   8.686  0.1847  1.7261  2.1888
 3766THY    CA694149   9.252   9.875   8.593  0.1232  0.0336  1.1783
 3766THY    HA694150   9.279   9.979   8.579 -0.2276  0.3338  2.6096
 3767THY      O94151   4.084   7.664   8.678 -0.1784  0.0842  0.0300
 3767THY     HO94152   4.001   7.613   8.679  0.7490 -1.5687 -1.6112
 3767THY    CA194153   4.132   7.645   8.552  0.1513  1.0421 -0.5287
 3767THY    CA294154   4.209   7.738   8.484  0.0716  0.9424 -0.3813
 3767THY    CP194155   4.217   7.876   8.555  0.3665  0.5464 -0.4161
 3767THY    HP194156   4.219   7.867   8.664  1.1974 -1.2777 -0.5620
 3767THY    CP294157   4.335   7.964   8.517 -0.9294  0.2268 -0.4072
 3767THY    HP294158   4.422   7.898   8.515 -0.5794  0.6932 -0.8494
 3767THY    HP394159   4.316   7.992   8.412 -1.1473  0.3437 -0.3387
 3767THY    HP494160   4.340   8.046   8.590  0.3883 -1.0603  1.0171
 3767THY    CP394161   4.100   7.968   8.525  0.7998  0.1644  0.0045
 3767THY    HP594162   4.117   7.995   8.420  1.6496 -3.2721 -0.8867
 3767THY    HP694163   4.009   7.906   8.532 -0.2278  1.7482  1.3311
 3767THY    HP794164   4.098   8.046   8.601  0.3905  0.4886 -0.3323
 3767THY    CA394165   4.269   7.708   8.359  0.9914  0.3197  0.2554
 3767THY    HA394166   4.328   7.788   8.314  1.3869 -0.1357 -0.0392
 3767THY    CA494167   4.250   7.579   8.308  0.2667  0.2781 -0.0632
 3767THY    HA494168   4.305   7.540   8.223  0.8369 -1.7487  1.1690
 3767THY    CA594169   4.156   7.492   8.364  0.3739 -0.3100 -1.0620
 3767THY    CM194170   4.108   7.357   8.297  0.2445 -0.4633 -0.0375
 3767THY    HM194171   4.000   7.371   8.286 -0.1086 -1.9695  1.1775
 3767THY    HM294172   4.148   7.350   8.195 -1.4429  3.0427 -1.0996
 3767THY    HM394173   4.131   7.265   8.352 -4.2851 -0.1765  2.8060
 3767THY    CA694174   4.101   7.530   8.483 -0.7765 -0.4741  0.2167
 3767THY    HA694175   4.028   7.459   8.521 -1.3869  0.4044  0.7325
 3768THY      O94176   8.897   9.897   4.514 -0.5789 -0.1853 -0.2483
 3768THY     HO94177   8.979   9.947   4.503 -0.5750 -0.3117 -0.8517
 3768THY    CA194178   8.828   9.918   4.395  0.3700  0.1015  0.2903
 3768THY    CA294179   8.706   9.856   4.379  0.6815 -0.0719  0.1020
 3768THY    CP194180   8.669   9.745   4.473 -0.1546  0.6017 -0.3132
 3768THY    HP194181   8.755   9.708   4.529  0.6478 -0.4441 -2.1687
 3768THY    CP294182   8.558   9.792   4.572 -0.3480 -0.4670 -0.2170
 3768THY    HP294183   8.463   9.810   4.519 -0.2923  1.1077  0.1668
 3768THY    HP394184   8.538   9.727   4.659  3.3644 -0.2050  0.9864
 3768THY    HP494185   8.565   9.896   4.605  0.2329 -0.7267  0.4939
 3768THY    CP394186   8.625   9.616   4.404  0.8478  0.7651  0.6953
 3768THY    HP594187   8.520   9.620   4.373  1.2615 -0.3768 -1.0006
 3768THY    HP694188   8.684   9.589   4.316 -0.6315  2.5011 -0.9267
 3768THY    HP794189   8.625   9.542   4.486 -1.9564 -0.5289 -0.3103
 3768THY    CA394190   8.621   9.880   4.258 -0.2176 -0.0569 -0.0349
 3768THY    HA394191   8.551   9.805   4.223  0.8365 -0.5569 -1.0983
 3768THY    CA494192   8.670   9.981   4.171 -0.4163  0.2000  0.3883
 3768THY    HA494193   8.613  10.005   4.082 -0.8527 -0.5016  0.4727
 3768THY    CA594194   8.796  10.053   4.198  0.1263 -0.5810 -0.5962
 3768THY    CM194195   8.839  10.165   4.107 -0.1354 -0.0031  0.3236
 3768THY    HM194196   8.852  10.262   4.156  2.4639 -0.0624 -0.0742
 3768THY    HM294197   8.937  10.137   4.067  0.0955  0.8021  0.3180
 3768THY    HM394198   8.768  10.171   4.024  1.1453  0.0965 -0.8105
 3768THY    CA694199   8.869  10.025   4.311 -0.0182  0.6627 -0.5036
 3768THY    HA694200   8.963  10.078   4.324 -0.7848  1.9569 -0.0201
 3769THY      O94201   1.769   2.580   4.371 -0.4701 -0.2194  0.7030
 3769THY     HO94202   1.735   2.646   4.309 -1.7757 -0.9017  0.6691
 3769THY    CA194203   1.887   2.530   4.307  0.3560  0.1251 -0.6965
 3769THY    CA294204   1.944   2.405   4.334 -0.3378 -0.1311  0.0633
 3769THY    CP194205   1.875   2.306   4.433 -0.1388 -0.2380 -0.4896
 3769THY    HP194206   1.770   2.331   4.446  0.2105  2.4940 -2.1357
 3769THY    CP294207   1.890   2.160   4.406  0.1768  0.5537 -0.4574
 3769THY    HP294208   1.841   2.103   4.486 -1.4249  0.9213 -1.1288
 3769THY    HP394209   1.852   2.133   4.306  3.3148  1.1124 -1.9434
 3769THY    HP494210   1.992   2.120   4.402  0.3261  0.8270  0.4230
 3769THY    CP394211   1.927   2.349   4.573 -0.5356  0.2715  0.4469
 3769THY    HP594212   1.920   2.458   4.581  0.8869  0.3643  0.7857
 3769THY    HP694213   1.858   2.309   4.648 -1.4721 -0.6844 -0.8785
 3769THY    HP794214   2.032   2.323   4.593 -0.4966  0.9207  1.1122
 3769THY    CA394215   2.067   2.369   4.271  0.2287  0.4034  0.3545
 3769THY    HA394216   2.113   2.271   4.272 -0.0310  0.2770  0.0779
 3769THY    CA494217   2.121   2.461   4.175  0.0003 -0.2342 -0.0736
 3769THY    HA494218   2.213   2.439   4.122 -1.1421 -2.0998 -1.3832
 3769THY    CA594219   2.062   2.585   4.147 -0.6936  0.3676  0.5552
 3769THY    CM194220   2.128   2.688   4.058 -0.3581 -0.2354  0.2296
 3769THY    HM194221   2.228   2.657   4.024 -0.9800  0.6955 -2.7086
 3769THY    HM294222   2.065   2.718   3.973 -2.5362 -1.5299  1.3091
 3769THY    HM394223   2.140   2.780   4.116 -1.4569  1.1576 -1.6215
 3769THY    CA694224   1.943   2.623   4.213  0.7965  0.4891  0.4829
 3769THY    HA694225   1.900   2.721   4.199 -3.1212 -0.6430  2.8943
 3770THY      O94226   8.153   2.740   4.706  0.2789  0.5727  0.9571
 3770THY     HO94227   8.093   2.800   4.753  1.1062  0.2481  2.4831
 3770THY    CA194228   8.088   2.622   4.703  0.7216 -0.0280 -0.6700
 3770THY    CA294229   8.112   2.528   4.597 -0.9608 -0.3198 -0.2813
 3770THY    CP194230   8.190   2.580   4.473  0.0247 -0.7175 -0.0521
 3770THY    HP194231   8.212   2.687   4.476  1.5942 -0.9968 -0.7820
 3770THY    CP294232   8.327   2.510   4.454 -0.0741 -0.6331 -0.1652
 3770THY    HP294233   8.373   2.511   4.553  0.7129 -0.4184 -0.5265
 3770THY    HP394234   8.297   2.406   4.434  2.0648 -0.9950 -1.8708
 3770THY    HP494235   8.385   2.558   4.374  0.6645  3.5934  2.6011
 3770THY    CP394236   8.105   2.561   4.341 -0.7275 -0.0725 -0.5068
 3770THY    HP594237   8.130   2.456   4.319  4.2577  0.7702 -0.1418
 3770THY    HP694238   7.998   2.586   4.339 -0.7291  0.1960  1.3416
 3770THY    HP794239   8.156   2.614   4.260  1.7940 -0.0706  0.9877
 3770THY    CA394240   8.070   2.394   4.615 -1.0259  0.1357  0.1258
 3770THY    HA394241   8.084   2.320   4.537  1.5247 -0.1797  0.7716
 3770THY    CA494242   7.998   2.362   4.730 -0.5529  0.4778 -0.0501
 3770THY    HA494243   7.963   2.260   4.744 -1.9814  0.9909  0.2859
 3770THY    CA594244   7.970   2.450   4.832 -1.1230 -0.3973  0.9509
 3770THY    CM194245   7.896   2.403   4.956 -0.7082  0.1191  0.1093
 3770THY    HM194246   7.967   2.391   5.038  1.6671  3.6181 -1.1998
 3770THY    HM294247   7.842   2.494   4.986 -1.7137 -0.3094 -0.3197
 3770THY    HM394248   7.822   2.324   4.938 -0.8829  0.3721 -0.3140
 3770THY    CA694249   8.026   2.578   4.820  0.5428  0.5901  0.1598
 3770THY    HA694250   8.012   2.648   4.902  1.0941 -0.5834  1.2995
 3771THY      O94251   4.053   1.678   7.995 -1.0231 -0.4615  0.2703
 3771THY     HO94252   4.140   1.653   8.030 -0.7320  1.0892  0.7234
 3771THY    CA194253   3.976   1.709   8.107  1.1093  0.1095  0.3743
 3771THY    CA294254   3.838   1.734   8.089  0.5151 -0.5489  0.0119
 3771THY    CP194255   3.769   1.724   7.951 -0.2982 -0.0557  0.4478
 3771THY    HP194256   3.832   1.667   7.882  0.1454  0.3411  0.5159
 3771THY    CP294257   3.641   1.644   7.949  0.1330  0.1709  0.5281
 3771THY    HP294258   3.655   1.541   7.986 -1.2970  0.6440  2.5600
 3771THY    HP394259   3.558   1.688   8.006  0.7835 -1.6314  3.0833
 3771THY    HP494260   3.606   1.635   7.846 -0.2658 -1.0450  0.7444
 3771THY    CP394261   3.734   1.867   7.901 -0.6127  0.6643 -0.0403
 3771THY    HP594262   3.708   1.868   7.795 -1.9337  1.7519  0.2621
 3771THY    HP694263   3.652   1.914   7.957 -0.4912 -0.5464  1.2178
 3771THY    HP794264   3.823   1.929   7.914  0.0926 -0.7050  2.4298
 3771THY    CA394265   3.762   1.779   8.200 -0.4240  0.1631 -0.1934
 3771THY    HA394266   3.658   1.803   8.183 -0.0222  0.9192 -1.8203
 3771THY    CA494267   3.818   1.783   8.331  0.5362 -0.4883 -0.7676
 3771THY    HA494268   3.762   1.821   8.415  1.0823 -1.2411 -0.0423
 3771THY    CA594269   3.958   1.746   8.350  0.9378 -0.5775  0.3526
 3771THY    CM194270   4.012   1.771   8.488 -0.2747  0.2560  0.0672
 3771THY    HM194271   3.940   1.829   8.548  1.1266  1.7558  0.3687
 3771THY    HM294272   4.028   1.677   8.541 -1.2957  0.7218  1.2439
 3771THY    HM394273   4.105   1.829   8.484  0.0077 -0.1813  0.1984
 3771THY    CA694274   4.033   1.710   8.236 -0.8067  0.0133  0.0596
 3771THY    HA694275   4.138   1.688   8.252 -0.9130 -0.2836  0.3601
 3772THY      O94276   3.225   8.229   3.534 -0.0171 -0.0022 -0.3223
 3772THY     HO94277   3.136   8.220   3.495  0.8789 -1.6783 -2.1705
 3772THY    CA194278   3.298   8.235   3.423  0.5083  0.4945  0.4791
 3772THY    CA294279   3.440   8.252   3.418 -0.3489  0.5960  0.5862
 3772THY    CP194280   3.516   8.281   3.552  0.1795  0.5181  0.1402
 3772THY    HP194281   3.447   8.256   3.634 -1.1223  0.3866 -0.9620
 3772THY    CP294282   3.634   8.198   3.561 -0.4997  0.0410 -0.1436
 3772THY    HP294283   3.609   8.101   3.516 -0.2027  1.1454 -2.8411
 3772THY    HP394284   3.712   8.242   3.498  0.7907 -1.9395 -0.0377
 3772THY    HP494285   3.677   8.178   3.660  0.0302 -1.0024 -0.5699
 3772THY    CP394286   3.553   8.420   3.587 -0.8465 -0.2716 -1.0506
 3772THY    HP594287   3.616   8.461   3.508  0.7029  1.6783  1.0814
 3772THY    HP694288   3.468   8.490   3.586  0.2674  1.1247 -2.3802
 3772THY    HP794289   3.603   8.425   3.684 -1.0738 -3.3427 -0.6706
 3772THY    CA394290   3.507   8.246   3.299  0.6971 -0.5169  0.2696
 3772THY    HA394291   3.614   8.257   3.290  0.6403  0.7203  0.9932
 3772THY    CA494292   3.440   8.230   3.179  0.2022  0.0750  0.2778
 3772THY    HA494293   3.500   8.237   3.089  0.0678  0.4030  0.2121
 3772THY    CA594294   3.299   8.225   3.181  0.4908  0.6118  0.2452
 3772THY    CM194295   3.225   8.196   3.061  0.1809 -0.3587  0.1747
 3772THY    HM194296   3.124   8.159   3.079 -0.0059 -1.6340 -2.8709
 3772THY    HM294297   3.209   8.293   3.014  1.0689 -1.2779 -2.1908
 3772THY    HM394298   3.282   8.144   2.983  0.8747  0.7676 -0.0933
 3772THY    CA694299   3.229   8.223   3.302  0.7833  0.4145 -0.1905
 3772THY    HA694300   3.122   8.204   3.298  0.8476 -0.8575  2.2850
 3773THY      O94301   5.489   0.793   2.072 -0.0581 -0.3153  0.0880
 3773THY     HO94302   5.413   0.733   2.071 -1.1456  1.0092 -1.1900
 3773THY    CA194303   5.442   0.900   2.015  0.0179 -0.1637 -0.2082
 3773THY    CA294304   5.508   1.029   2.005  0.2328  0.0214  0.3189
 3773THY    CP194305   5.661   1.040   2.018 -0.5698  0.0159 -0.0436
 3773THY    HP194306   5.690   0.967   2.095 -0.0125 -0.1443 -0.3950
 3773THY    CP294307   5.723   1.002   1.885 -0.2870 -0.4454  0.1198
 3773THY    HP294308   5.690   1.073   1.808  0.8763 -1.4976 -1.4224
 3773THY    HP394309   5.832   1.015   1.891 -0.4303  0.3950  1.2474
 3773THY    HP494310   5.694   0.903   1.849  1.6451 -0.5178 -1.4116
 3773THY    CP394311   5.725   1.171   2.068 -0.5722 -0.3722  0.0430
 3773THY    HP594312   5.684   1.204   2.164  0.4396  1.5737 -0.1260
 3773THY    HP694313   5.832   1.147   2.075 -0.4334 -0.2242 -1.3617
 3773THY    HP794314   5.719   1.260   2.004 -1.3631 -1.0939 -0.9038
 3773THY    CA394315   5.428   1.140   1.975  0.5238  0.2731  0.4813
 3773THY    HA394316   5.472   1.236   1.949 -2.4035  1.9887  1.4689
 3773THY    CA494317   5.289   1.137   1.963  0.2240  0.1943  0.2615
 3773THY    HA494318   5.233   1.228   1.945  0.2579  0.2137  0.2537
 3773THY    CA594319   5.229   1.014   1.972 -0.2967  0.5885 -0.3556
 3773THY    CM194320   5.080   0.998   1.959  0.0286 -0.2989 -0.0609
 3773THY    HM194321   5.042   1.100   1.969 -0.3359  0.2630 -4.8476
 3773THY    HM294322   5.069   0.960   1.856  1.1292 -0.6762 -0.0567
 3773THY    HM394323   5.035   0.919   2.021 -0.2567  0.0195  0.1357
 3773THY    CA694324   5.305   0.900   2.001  0.9652  0.9627 -1.3285
 3773THY    HA694325   5.250   0.807   2.014  1.5928  0.8541  1.1564
 3774THY      O94326   5.982   6.355   3.525  0.3603 -0.0293  0.4496
 3774THY     HO94327   5.887   6.334   3.518  0.8666 -3.2511  1.7688
 3774THY    CA194328   6.021   6.281   3.626 -0.0982 -0.8706 -0.5802
 3774THY    CA294329   6.123   6.189   3.609  0.0341  0.6338 -0.6324
 3774THY    CP194330   6.185   6.156   3.471 -0.2690  0.4467  0.1280
 3774THY    HP194331   6.190   6.251   3.416  0.3213 -0.9943 -2.4555
 3774THY    CP294332   6.325   6.092   3.466 -0.5554  0.0923  0.9080
 3774THY    HP294333   6.319   5.983   3.478 -0.2712 -0.1512 -0.8837
 3774THY    HP394334   6.373   6.114   3.370 -0.3589 -0.9980  0.7495
 3774THY    HP494335   6.387   6.136   3.545  0.9352  0.6768 -0.5289
 3774THY    CP394336   6.097   6.054   3.406 -0.0098 -0.9102  0.3145
 3774THY    HP594337   5.997   6.089   3.379  0.6577  0.2196 -0.7302
 3774THY    HP694338   6.138   6.010   3.315  1.4740 -1.6694  1.3078
 3774THY    HP794339   6.095   5.970   3.477  2.5697 -0.8173  0.5838
 3774THY    CA394340   6.164   6.114   3.724 -0.3716 -0.6302  0.0469
 3774THY    HA394341   6.245   6.042   3.720  0.1118 -0.0344 -1.3648
 3774THY    CA494342   6.105   6.140   3.844 -0.1886 -0.1051  0.2746
 3774THY    HA494343   6.139   6.079   3.927 -0.6329 -1.4287 -0.4668
 3774THY    CA594344   5.992   6.225   3.851  0.0424 -0.0396 -0.5973
 3774THY    CM194345   5.909   6.224   3.979  0.6644 -0.1534  0.5071
 3774THY    HM194346   5.959   6.257   4.071 -0.3417  1.0673  0.6409
 3774THY    HM294347   5.815   6.281   3.974  0.8973  0.3724  1.6367
 3774THY    HM394348   5.874   6.122   3.998 -3.0639  0.9933  0.5698
 3774THY    CA694349   5.945   6.294   3.743  0.2912  0.4851  0.2291
 3774THY    HA694350   5.858   6.360   3.743 -0.5437 -0.5670 -1.0936
 3775THY      O94351   3.916   9.785   6.954 -0.4675 -0.7770 -0.2259
 3775THY     HO94352   3.939   9.782   6.860 -2.3855  0.6250 -0.8008
 3775THY    CA194353   3.782   9.803   6.957  0.0889 -0.3646 -0.4921
 3775THY    CA294354   3.714   9.870   7.066 -0.5890  0.4398 -0.5740
 3775THY    CP194355   3.788   9.919   7.182  0.4625 -0.2740  0.4878
 3775THY    HP194356   3.890   9.881   7.179  0.2001 -0.9415 -1.1576
 3775THY    CP294357   3.796  10.076   7.198  0.4500 -0.0681 -0.4956
 3775THY    HP294358   3.852  10.119   7.281 -0.1374 -0.9565  0.3824
 3775THY    HP394359   3.826  10.128   7.106 -0.1705 -0.7982 -1.1322
 3775THY    HP494360   3.689  10.097   7.207  0.4421 -0.3515  0.1146
 3775THY    CP394361   3.736   9.859   7.307 -0.4294  1.2544  0.1895
 3775THY    HP594362   3.636   9.892   7.337 -1.0890 -1.9983  2.1301
 3775THY    HP694363   3.736   9.750   7.299 -1.9597  1.0679  2.0060
 3775THY    HP794364   3.797   9.894   7.392  0.3685  0.3605  0.0003
 3775THY    CA394365   3.576   9.891   7.050 -0.2793  0.3711 -0.6563
 3775THY    HA394366   3.522   9.942   7.129 -0.6151 -2.8126  1.3471
 3775THY    CA494367   3.509   9.841   6.935 -0.6167  0.2343  0.2921
 3775THY    HA494368   3.401   9.846   6.923 -0.8963 -2.6454  0.9638
 3775THY    CA594369   3.578   9.773   6.835 -0.0176  0.2075 -0.1304
 3775THY    CM194370   3.508   9.712   6.723  0.4328  0.1115 -0.2383
 3775THY    HM194371   3.495   9.607   6.749 -2.2381  0.7474  1.4190
 3775THY    HM294372   3.404   9.742   6.704  0.4664 -0.7655 -1.9595
 3775THY    HM394373   3.570   9.709   6.633 -1.0554  0.8117 -1.3226
 3775THY    CA694374   3.716   9.759   6.846 -0.0037 -0.0280 -0.6379
 3775THY    HA694375   3.767   9.714   6.761 -0.0560 -0.3714 -0.4875
 3776THY      O94376   7.975   0.664   7.342 -0.1820 -0.1161 -0.0175
 3776THY     HO94377   7.973   0.583   7.395  1.0674 -0.6414 -0.7459
 3776THY    CA194378   8.038   0.626   7.227 -0.9931  0.3132  0.7546
 3776THY    CA294379   8.030   0.707   7.113 -0.1560 -0.6134  0.2031
 3776THY    CP194380   7.948   0.837   7.117 -0.7021 -0.3375 -0.6292
 3776THY    HP194381   7.867   0.831   7.190 -1.9859  1.5827 -1.8134
 3776THY    CP294382   8.042   0.943   7.167 -0.0978  0.1006  0.6566
 3776THY    HP294383   8.055   0.937   7.276 -1.8884  0.1744  0.9048
 3776THY    HP394384   8.137   0.942   7.113 -0.5577  0.5964 -0.1718
 3776THY    HP494385   7.997   1.041   7.153 -1.7653 -0.6445  0.5456
 3776THY    CP394386   7.878   0.883   6.982 -0.4153  0.5280 -0.1438
 3776THY    HP594387   7.931   0.923   6.895 -0.4171 -2.3246 -1.5573
 3776THY    HP694388   7.828   0.794   6.943 -0.3824  0.9963 -1.2935
 3776THY    HP794389   7.796   0.947   7.019 -0.4590 -0.3249  1.2961
 3776THY    CA394390   8.110   0.677   7.002 -0.3510  1.1621 -0.0124
 3776THY    HA394391   8.118   0.754   6.926  0.5640  0.7400 -0.3551
 3776THY    CA494392   8.180   0.552   6.992  0.0564 -0.6789 -0.7867
 3776THY    HA494393   8.223   0.528   6.896 -1.7823  0.3334 -1.9172
 3776THY    CA594394   8.169   0.461   7.095 -0.0253 -1.1414 -0.1706
 3776THY    CM194395   8.235   0.325   7.077  0.2318 -0.1343  0.6487
 3776THY    HM194396   8.343   0.325   7.100  0.1138  3.7056  1.8492
 3776THY    HM294397   8.180   0.247   7.131 -1.2786  0.5737  0.1721
 3776THY    HM394398   8.232   0.279   6.977  1.6324 -0.2306  0.6206
 3776THY    CA694399   8.109   0.500   7.215 -0.4311  0.0946 -0.2383
 3776THY    HA694400   8.098   0.429   7.297  0.2227  0.1648 -0.0886
 3777THY      O94401   6.914   3.950   2.735 -0.3464 -0.0739 -0.0696
 3777THY     HO94402   6.950   4.017   2.797 -0.0436 -0.5599  0.2922
 3777THY    CA194403   6.807   3.892   2.788 -0.2558 -0.2456 -0.0219
 3777THY    CA294404   6.750   3.780   2.729  0.1617 -0.1002  0.4313
 3777THY    CP194405   6.811   3.713   2.601  0.0293  0.2406  0.6201
 3777THY    HP194406   6.873   3.788   2.549  1.1309 -0.8119  0.3715
 3777THY    CP294407   6.880   3.579   2.621 -0.2305 -0.2178  0.0234
 3777THY    HP294408   6.923   3.550   2.525  1.9858  0.4147  0.7489
 3777THY    HP394409   6.961   3.595   2.694  0.4328 -0.3711 -0.6636
 3777THY    HP494410   6.814   3.501   2.660  0.9769  0.1697  3.2044
 3777THY    CP394411   6.694   3.678   2.504 -0.1182  0.8323 -0.5927
 3777THY    HP594412   6.730   3.681   2.400  0.4176  0.1288 -0.4382
 3777THY    HP694413   6.643   3.582   2.517  0.9555  0.4565  1.1089
 3777THY    HP794414   6.617   3.756   2.502 -2.1137 -1.0390 -2.6825
 3777THY    CA394415   6.634   3.724   2.793 -0.4209 -0.3931  0.1805
 3777THY    HA394416   6.587   3.639   2.745 -0.1005 -0.4605 -0.0101
 3777THY    CA494417   6.580   3.780   2.915  0.4112 -0.1114  0.3736
 3777THY    HA494418   6.488   3.741   2.957  1.2653 -1.0993  1.4270
 3777THY    CA594419   6.646   3.893   2.970 -0.4672  0.4511  0.1050
 3777THY    CM194420   6.595   3.957   3.089  1.0241  0.1644 -0.2286
 3777THY    HM194421   6.662   3.938   3.174 -0.1676 -0.5483  0.5647
 3777THY    HM294422   6.582   4.064   3.069 -0.9709 -0.0133 -0.0637
 3777THY    HM394423   6.495   3.920   3.111  1.2550 -0.2296  0.1687
 3777THY    CA694424   6.758   3.945   2.910  0.3763  0.5858 -0.3918
 3777THY    HA694425   6.806   4.032   2.954 -0.7060  0.9622  0.0837
 3778THY      O94426   0.521   0.085   5.379 -0.2303 -0.1771  0.6134
 3778THY     HO94427   0.473   0.032   5.313  1.2735 -1.0388  0.1461
 3778THY    CA194428   0.481   0.043   5.503 -0.2855  0.6388  0.7306
 3778THY    CA294429   0.455   0.136   5.599  0.2547  0.2554 -0.0061
 3778THY    CP194430   0.478   0.287   5.572  0.3956 -0.9595 -1.0846
 3778THY    HP194431   0.433   0.317   5.476  1.3148  0.8667 -1.0009
 3778THY    CP294432   0.413   0.389   5.680  0.1930 -0.5244 -0.2354
 3778THY    HP294433   0.441   0.493   5.660  1.0657 -0.3353  1.7104
 3778THY    HP394434   0.304   0.383   5.673  0.2412 -1.0246 -0.5682
 3778THY    HP494435   0.440   0.369   5.784 -0.0151 -1.6407 -0.3836
 3778THY    CP394436   0.631   0.314   5.561  0.1740  0.3429 -0.0581
 3778THY    HP594437   0.685   0.308   5.657 -1.2466  1.3685  0.8640
 3778THY    HP694438   0.673   0.252   5.482 -1.2090 -1.6915  0.7115
 3778THY    HP794439   0.642   0.419   5.530 -1.5122  0.5570 -0.0254
 3778THY    CA394440   0.409   0.084   5.721 -0.3136  0.3012  0.2744
 3778THY    HA394441   0.401   0.152   5.806  1.0762 -0.5889  1.1617
 3778THY    CA494442   0.401  -0.057   5.742  0.0737  0.3588 -0.3411
 3778THY    HA494443   0.380  -0.100   5.840 -1.4581 -1.7525 -1.5046
 3778THY    CA594444   0.427  -0.149   5.639 -0.1069  0.3687 -0.1417
 3778THY    CM194445   0.427  -0.301   5.654 -0.3711 -0.1556 -0.8408
 3778THY    HM194446   0.399  -0.359   5.565 -0.3079  0.0945 -1.0243
 3778THY    HM294447   0.516  -0.347   5.700 -0.2040 -0.0002 -1.0045
 3778THY    HM394448   0.348  -0.328   5.724  0.1083  0.3427 -0.0905
 3778THY    CA694449   0.466  -0.099   5.518  0.3551  0.2128  0.3995
 3778THY    HA694450   0.497  -0.174   5.446 -0.6648 -1.7284  1.8700
 3779THY      O94451   1.735   7.310   8.433 -0.0888 -0.9312 -0.3934
 3779THY     HO94452   1.690   7.232   8.396 -1.9869  0.8842 -2.1502
 3779THY    CA194453   1.709   7.320   8.560  0.7487  0.2369 -0.3069
 3779THY    CA294454   1.814   7.348   8.647  0.4363  0.2943 -0.3547
 3779THY    CP194455   1.968   7.354   8.604  0.5854 -0.0666 -0.9746
 3779THY    HP194456   1.983   7.335   8.497  0.6454  0.3509 -1.0418
 3779THY    CP294457   2.021   7.493   8.637 -0.4925  0.7994 -0.1109
 3779THY    HP294458   1.947   7.574   8.631  1.4355  2.6300 -0.3743
 3779THY    HP394459   2.057   7.491   8.741  0.6780  0.5248 -0.5153
 3779THY    HP494460   2.112   7.510   8.579 -1.5969  1.1945 -1.8127
 3779THY    CP394461   2.040   7.246   8.680 -0.2541 -0.2256 -0.6352
 3779THY    HP594462   2.023   7.243   8.788  0.2768 -1.4898 -0.5614
 3779THY    HP694463   2.003   7.153   8.635  2.5425 -1.3872 -0.7289
 3779THY    HP794464   2.147   7.246   8.654  0.1368 -1.5257  0.8284
 3779THY    CA394465   1.772   7.371   8.779  0.1943 -0.0332 -0.2628
 3779THY    HA394466   1.849   7.405   8.847  0.0839  0.8318 -0.5521
 3779THY    CA494467   1.643   7.341   8.821  0.0502  0.0914  0.3191
 3779THY    HA494468   1.614   7.354   8.925  0.0346 -1.2176  0.4878
 3779THY    CA594469   1.547   7.295   8.734 -0.7368 -0.0999  1.1719
 3779THY    CM194470   1.408   7.271   8.777 -0.0979  0.5535 -0.8693
 3779THY    HM194471   1.345   7.361   8.785  0.0251  0.7014 -1.5314
 3779THY    HM294472   1.350   7.206   8.710 -2.4661  0.5406  1.0363
 3779THY    HM394473   1.419   7.215   8.870  0.0955 -0.2267 -1.3579
 3779THY    CA694474   1.581   7.297   8.598 -0.5661  1.3609 -0.5511
 3779THY    HA694475   1.504   7.264   8.529 -1.8521  2.9032  0.0712
 3780THY      O94476   9.436   2.707   3.099 -0.3292  0.2461  0.1600
 3780THY     HO94477   9.377   2.716   3.023 -1.0519 -0.5153  0.6146
 3780THY    CA194478   9.375   2.789   3.190 -0.1345 -0.1165  0.5556
 3780THY    CA294479   9.441   2.833   3.301 -0.9683  0.2665 -0.2967
 3780THY    CP194480   9.576   2.776   3.336 -0.2202  0.4407 -0.3073
 3780THY    HP194481   9.614   2.711   3.256  1.9124  1.9817 -0.6490
 3780THY    CP294482   9.683   2.888   3.348  0.2317  0.0175  0.1843
 3780THY    HP294483   9.702   2.942   3.255  0.4917 -1.6279 -0.7698
 3780THY    HP394484   9.671   2.954   3.435 -1.8742  2.2069 -1.6439
 3780THY    HP494485   9.771   2.825   3.362  0.3082  0.3722  1.4949
 3780THY    CP394486   9.579   2.689   3.458 -0.2801 -1.2123 -0.8313
 3780THY    HP594487   9.508   2.606   3.459  0.0321 -1.5574  2.3589
 3780THY    HP694488   9.679   2.644   3.467  0.4718  0.1149 -2.0180
 3780THY    HP794489   9.565   2.750   3.548 -0.8352 -3.2837  0.5760
 3780THY    CA394490   9.378   2.931   3.386 -0.1502 -0.6359 -0.1475
 3780THY    HA394491   9.418   2.966   3.480  1.5644  1.6303 -1.6170
 3780THY    CA494492   9.248   2.966   3.349 -0.2235 -0.4202 -0.7290
 3780THY    HA494493   9.196   3.027   3.422 -0.0105 -1.7980  0.6246
 3780THY    CA594494   9.191   2.923   3.236  0.1367 -0.2519  0.3730
 3780THY    CM194495   9.048   2.965   3.209 -0.2725 -0.0362 -0.2425
 3780THY    HM194496   8.993   2.898   3.142 -1.4618 -0.2356  0.8736
 3780THY    HM294497   8.987   2.975   3.300  1.7325  1.1640  1.0354
 3780THY    HM394498   9.034   3.063   3.163  0.2516  0.5966  0.9119
 3780THY    CA694499   9.259   2.844   3.144 -0.0503  0.1340  0.0942
 3780THY    HA694500   9.219   2.821   3.046  2.4299  1.7653 -1.4319
 3781THY      O94501   9.551   4.396   6.390 -0.5713 -0.1029 -0.0548
 3781THY     HO94502   9.494   4.473   6.373 -0.4783  0.1986  0.9311
 3781THY    CA194503   9.586   4.409   6.519  0.2268 -0.3928  0.3915
 3781THY    CA294504   9.660   4.308   6.579  0.3780  0.0991 -0.4102
 3781THY    CP194505   9.720   4.192   6.499 -1.4301  0.6126  0.9037
 3781THY    HP194506   9.755   4.242   6.408 -0.3568  0.1233  1.0355
 3781THY    CP294507   9.835   4.113   6.559 -0.4120 -0.3773 -0.1045
 3781THY    HP294508   9.912   4.191   6.569 -1.2996  0.3462  1.5435
 3781THY    HP394509   9.815   4.080   6.661  3.4175 -0.1994  0.8567
 3781THY    HP494510   9.871   4.039   6.487  3.0707  1.4924 -0.5119
 3781THY    CP394511   9.610   4.097   6.466  0.0394 -0.2578 -0.6396
 3781THY    HP594512   9.519   4.150   6.437 -0.9210 -1.2126  0.4819
 3781THY    HP694513   9.634   4.023   6.389 -1.0824 -2.8868  1.3663
 3781THY    HP794514   9.581   4.035   6.552 -0.5566 -0.8158 -1.2333
 3781THY    CA394515   9.674   4.318   6.722  0.7242 -0.5949  0.0967
 3781THY    HA394516   9.741   4.253   6.777  0.1404 -1.1565  0.1656
 3781THY    CA494517   9.612   4.424   6.794  0.3259 -0.8464  0.7673
 3781THY    HA494518   9.618   4.444   6.900  1.6669  2.0549  0.2276
 3781THY    CA594519   9.546   4.526   6.722 -0.3955 -0.5962 -0.6350
 3781THY    CM194520   9.501   4.647   6.789  1.0871 -0.4122 -1.0484
 3781THY    HM194521   9.415   4.686   6.732  1.4953  1.8544 -0.2064
 3781THY    HM294522   9.477   4.625   6.894 -0.3170  0.6430 -1.1074
 3781THY    HM394523   9.577   4.725   6.785 -0.7935  1.5521 -0.3432
 3781THY    CA694524   9.537   4.521   6.587 -0.2063 -0.4965 -0.4293
 3781THY    HA694525   9.485   4.602   6.536  2.0917  2.2278  1.2300
 3782THY      O94526   9.904   0.929   3.883 -0.5783  0.3174  0.6891
 3782THY     HO94527  10.001   0.938   3.885 -0.5856  0.2078  1.5320
 3782THY    CA194528   9.855   1.013   3.972 -0.3170 -0.4705  0.5131
 3782THY    CA294529   9.717   1.016   3.991  0.4041  0.1312 -0.3647
 3782THY    CP194530   9.621   0.935   3.903  0.1454 -0.2595  0.0504
 3782THY    HP194531   9.679   0.879   3.829  0.5041 -1.3770  1.1543
 3782THY    CP294532   9.548   0.822   3.973  0.1304 -1.0186  0.8080
 3782THY    HP294533   9.617   0.748   4.016 -0.9786 -1.3151  2.1589
 3782THY    HP394534   9.478   0.849   4.053 -0.0123 -0.3905  0.4716
 3782THY    HP494535   9.485   0.768   3.901 -1.7813  1.0463  0.8156
 3782THY    CP394536   9.522   1.019   3.826 -1.0361  0.6881 -0.1359
 3782THY    HP594537   9.567   1.103   3.771 -0.4879 -0.6635 -1.8577
 3782THY    HP694538   9.460   0.950   3.767  0.7566  0.7901 -2.3061
 3782THY    HP794539   9.453   1.060   3.899 -1.6904  1.3453 -1.0942
 3782THY    CA394540   9.663   1.092   4.103 -0.5591 -0.0088 -0.1553
 3782THY    HA394541   9.555   1.089   4.116 -0.5435 -1.8543 -0.1917
 3782THY    CA494542   9.745   1.163   4.191  0.1846 -0.3032 -0.1786
 3782THY    HA494543   9.709   1.223   4.274 -0.3705 -1.6274  0.5502
 3782THY    CA594544   9.884   1.168   4.164  0.4593  0.1918 -0.2550
 3782THY    CM194545   9.978   1.236   4.258  0.0747  0.2945  0.4327
 3782THY    HM194546  10.054   1.175   4.308  0.0241  0.3208  0.5423
 3782THY    HM294547  10.032   1.320   4.215 -1.8806  1.8605  0.8941
 3782THY    HM394548   9.936   1.279   4.349  1.3631  1.8506  0.3324
 3782THY    CA694549   9.938   1.098   4.053 -0.0152 -0.4081  0.4473
 3782THY    HA694550  10.042   1.102   4.021 -0.2422  0.4099 -0.2221
 3783THY      O94551   0.491   5.823   6.765 -0.2270  0.0321 -0.2694
 3783THY     HO94552   0.501   5.872   6.681 -0.3646 -1.7520 -1.3715
 3783THY    CA194553   0.488   5.906   6.877 -0.0417 -0.6944  0.0848
 3783THY    CA294554   0.476   5.869   7.011  0.3031  0.1070  0.2105
 3783THY    CP194555   0.462   5.721   7.053  0.2182 -0.1460 -0.2296
 3783THY    HP194556   0.472   5.652   6.969 -0.7520 -0.4802 -0.0829
 3783THY    CP294557   0.577   5.673   7.149  1.0213  0.7343  0.1690
 3783THY    HP294558   0.561   5.571   7.185  0.9328  0.9016  0.6147
 3783THY    HP394559   0.673   5.690   7.099  1.6758  2.8216  1.9484
 3783THY    HP494560   0.583   5.743   7.233  1.1345  1.6110 -0.5508
 3783THY    CP394561   0.324   5.701   7.116 -0.3186  0.1248  0.3577
 3783THY    HP594562   0.323   5.725   7.223  0.4738  1.1848  0.1362
 3783THY    HP694563   0.252   5.764   7.065  0.7079  0.8662 -0.2019
 3783THY    HP794564   0.298   5.596   7.096  0.1409  0.0183  0.3017
 3783THY    CA394565   0.508   5.967   7.106  0.2326  0.1062  0.0275
 3783THY    HA394566   0.507   5.948   7.213 -1.2017 -0.8335 -0.1202
 3783THY    CA494567   0.533   6.099   7.070 -0.7172 -0.4650 -0.3111
 3783THY    HA494568   0.545   6.180   7.141  1.2672  1.0513 -2.2123
 3783THY    CA594569   0.519   6.138   6.932 -0.5844  0.2899 -1.0516
 3783THY    CM194570   0.514   6.282   6.902 -0.2853 -0.2987 -0.5009
 3783THY    HM194571   0.539   6.307   6.798 -0.3152 -0.2875 -0.5055
 3783THY    HM294572   0.421   6.335   6.928  0.1013  0.2110 -0.1304
 3783THY    HM394573   0.593   6.339   6.954 -1.3833 -0.7745  1.8383
 3783THY    CA694574   0.504   6.042   6.833  0.6694  0.5923  0.1927
 3783THY    HA694575   0.510   6.067   6.727  0.0305  0.4732  0.1262
 3784THY      O94576   2.823   9.891   8.049 -0.5507 -0.5395  0.4596
 3784THY     HO94577   2.862   9.833   7.981 -1.1549 -1.2055  0.6700
 3784THY    CA194578   2.768   9.811   8.133  0.0642 -0.1058 -0.4450
 3784THY    CA294579   2.716   9.862   8.251  0.3536  0.3780  0.3931
 3784THY    CP194580   2.733  10.006   8.292 -0.1907 -0.6809  0.2619
 3784THY    HP194581   2.748  10.070   8.204  1.0443  0.1276  1.0239
 3784THY    CP294582   2.620  10.060   8.370 -0.0479 -0.0664  0.3284
 3784THY    HP294583   2.650  10.164   8.392  0.8005 -0.6417  2.1127
 3784THY    HP394584   2.531  10.069   8.306 -0.4031 -2.0822  0.4875
 3784THY    HP494585   2.602  10.011   8.467  1.1733  0.9162  1.0830
 3784THY    CP394586   2.865  10.027   8.372 -0.2193 -0.3240 -0.5657
 3784THY    HP594587   2.891   9.931   8.418 -0.1283  0.1516  0.3837
 3784THY    HP694588   2.947  10.046   8.302  0.6218  0.2848  0.5712
 3784THY    HP794589   2.875  10.108   8.445  2.2403 -1.6494  0.6868
 3784THY    CA394590   2.662   9.768   8.350  0.4328 -0.2183  0.0096
 3784THY    HA394591   2.623   9.803   8.445 -1.3725  0.3765 -0.9038
 3784THY    CA494592   2.669   9.627   8.317 -0.5591 -0.1187 -0.3141
 3784THY    HA494593   2.633   9.555   8.390 -0.4763 -0.3869 -0.5398
 3784THY    CA594594   2.725   9.585   8.196 -0.5453 -0.0156  0.3189
 3784THY    CM194595   2.726   9.443   8.163 -0.1854 -0.0641 -0.9182
 3784THY    HM194596   2.829   9.416   8.139 -0.7742 -1.8365 -1.5809
 3784THY    HM294597   2.679   9.389   8.246 -2.2992  2.4641 -0.3571
 3784THY    HM394598   2.661   9.423   8.077 -0.6991  2.4495 -1.1940
 3784THY    CA694599   2.770   9.679   8.101  0.4188 -0.0129 -0.5084
 3784THY    HA694600   2.825   9.642   8.015  0.6053 -0.8384 -0.0400
 3785THY      O94601   3.820   7.525   8.737  0.0801  0.2148  0.3365
 3785THY     HO94602   3.815   7.470   8.817  1.5525 -1.7210 -0.8140
 3785THY    CA194603   3.796   7.446   8.630 -0.4539 -1.0882  0.2471
 3785THY    CA294604   3.724   7.495   8.521  0.0004 -0.6179 -0.9978
 3785THY    CP194605   3.665   7.635   8.519 -0.3351 -0.1814 -0.3223
 3785THY    HP194606   3.673   7.688   8.614  1.0547 -1.6196  0.4107
 3785THY    CP294607   3.751   7.726   8.431 -0.3585 -0.3300 -0.8632
 3785THY    HP294608   3.724   7.829   8.456  1.3694 -0.3885  1.5936
 3785THY    HP394609   3.850   7.729   8.477 -0.7281 -0.4085 -0.0490
 3785THY    HP494610   3.745   7.704   8.323 -0.7764  2.5502 -1.5045
 3785THY    CP394611   3.513   7.632   8.480 -0.7599  0.0205 -0.2136
 3785THY    HP594612   3.465   7.569   8.556  1.0231 -1.1993 -0.0181
 3785THY    HP694613   3.477   7.734   8.491 -0.8459 -0.1635  1.4602
 3785THY    HP794614   3.488   7.598   8.379 -0.3015  1.3580 -0.7956
 3785THY    CA394615   3.693   7.405   8.423  0.0146 -0.6474 -0.1038
 3785THY    HA394616   3.624   7.437   8.345  0.5652 -0.2167 -0.4270
 3785THY    CA494617   3.740   7.278   8.419  0.3883 -0.4814  0.1305
 3785THY    HA494618   3.701   7.208   8.346 -0.7860 -0.6903  0.9271
 3785THY    CA594619   3.824   7.233   8.522 -0.6150  0.2011 -0.3980
 3785THY    CM194620   3.878   7.089   8.512  0.1243 -1.2906 -0.3371
 3785THY    HM194621   3.940   7.048   8.592  2.0809 -1.4511 -1.8607
 3785THY    HM294622   3.787   7.030   8.506 -0.8187 -0.0362  0.8660
 3785THY    HM394623   3.934   7.088   8.418 -0.7634  4.2557 -1.2862
 3785THY    CA694624   3.858   7.319   8.631  0.7688  0.0276 -0.2822
 3785THY    HA694625   3.909   7.283   8.720  0.3769 -0.0683 -0.0943
 3786THY      O94626   1.618   0.033   8.781  0.3315 -0.3455  0.1172
 3786THY     HO94627   1.529   0.064   8.805  0.9268  1.8241 -0.2420
 3786THY    CA194628   1.615  -0.088   8.709  0.3764  0.0130 -0.2976
 3786THY    CA294629   1.727  -0.146   8.662 -0.1775  0.4682 -0.4462
 3786THY    CP194630   1.856  -0.079   8.708 -0.0464  0.1935  0.3195
 3786THY    HP194631   1.852  -0.058   8.816  0.6013 -0.8181  0.5598
 3786THY    CP294632   1.983  -0.158   8.694  0.5893  0.3055  0.0946
 3786THY    HP294633   2.043  -0.127   8.781 -0.9940  3.6123  0.1246
 3786THY    HP394634   1.959  -0.259   8.729 -1.9007  0.1444 -1.8496
 3786THY    HP494635   2.022  -0.147   8.592 -0.9464 -0.1232 -0.5547
 3786THY    CP394636   1.870   0.057   8.615  0.3050  0.4040  0.4059
 3786THY    HP594637   1.796   0.134   8.640 -1.3987 -1.0898  0.1483
 3786THY    HP694638   1.966   0.107   8.632  0.1321  1.0380 -0.4194
 3786THY    HP794639   1.865   0.043   8.507 -0.9046  3.3137 -0.0061
 3786THY    CA394640   1.714  -0.252   8.574 -0.9232 -0.3106 -0.1135
 3786THY    HA394641   1.804  -0.297   8.535 -0.6140 -1.0154  1.3328
 3786THY    CA494642   1.588  -0.311   8.556  0.2339 -0.0480  0.9803
 3786THY    HA494643   1.580  -0.391   8.483 -1.9606  0.9029  0.0793
 3786THY    CA594644   1.470  -0.260   8.612 -0.7112 -0.7348 -1.0025
 3786THY    CM194645   1.340  -0.322   8.597  1.2568  0.2390 -0.7636
 3786THY    HM194646   1.292  -0.328   8.696 -0.0064  0.9863 -1.2994
 3786THY    HM294647   1.281  -0.261   8.527 -0.4336 -1.1596 -0.6297
 3786THY    HM394648   1.344  -0.425   8.561 -1.8426 -1.0563  2.0717
 3786THY    CA694649   1.485  -0.140   8.685  0.5438  0.2250 -0.4660
 3786THY    HA694650   1.397  -0.086   8.719  0.6613  0.2911 -0.2703
 3787THY      O94651   7.133   7.539   8.463 -0.8009  0.0802  0.4200
 3787THY     HO94652   7.137   7.582   8.550  1.9059 -0.6134  0.7515
 3787THY    CA194653   7.244   7.457   8.465 -0.5505 -0.7780 -0.1889
 3787THY    CA294654   7.300   7.412   8.344 -0.2590  0.5087  0.3438
 3787THY    CP194655   7.241   7.453   8.206 -0.3222 -0.6671 -0.2744
 3787THY    HP194656   7.190   7.549   8.223  0.7088 -0.5849  3.2636
 3787THY    CP294657   7.350   7.474   8.108  0.0502  0.1262 -0.2430
 3787THY    HP294658   7.391   7.377   8.077 -1.3255  0.0714 -2.0374
 3787THY    HP394659   7.297   7.523   8.026 -0.3948  1.0020  0.5562
 3787THY    HP494660   7.431   7.527   8.159 -0.4965 -0.3969  1.2228
 3787THY    CP394661   7.138   7.358   8.154 -0.1378 -0.3066  0.2906
 3787THY    HP594662   7.091   7.395   8.061 -0.8464  1.3261  1.2479
 3787THY    HP694663   7.187   7.262   8.134 -1.0764 -0.9663  1.0697
 3787THY    HP794664   7.059   7.354   8.229 -0.4844  1.5656  0.0853
 3787THY    CA394665   7.412   7.332   8.352  0.7630 -0.7638  0.7211
 3787THY    HA394666   7.472   7.307   8.265  1.6697 -2.2349  1.7115
 3787THY    CA494667   7.473   7.306   8.471  0.0252  0.4372  0.3313
 3787THY    HA494668   7.565   7.248   8.470  0.3785  0.9727  0.9612
 3787THY    CA594669   7.417   7.349   8.588  0.0298  0.3212  0.1815
 3787THY    CM194670   7.489   7.321   8.718  0.6545 -0.0030  0.4890
 3787THY    HM194671   7.519   7.216   8.732 -0.6411 -0.5157 -0.4168
 3787THY    HM294672   7.580   7.383   8.718 -0.0557  1.0663 -0.5591
 3787THY    HM394673   7.427   7.346   8.804 -0.7203  1.4765 -0.8698
 3787THY    CA694674   7.294   7.419   8.591  0.3662 -0.4001 -0.2077
 3787THY    HA694675   7.255   7.456   8.685  5.4308 -0.9153  2.4246
 3788THY      O94676   1.325   1.430   3.072 -0.7296  0.3283 -0.3219
 3788THY     HO94677   1.399   1.367   3.080  0.0447  0.6187 -3.7204
 3788THY    CA194678   1.257   1.412   3.192 -0.5297  0.7871  0.2573
 3788THY    CA294679   1.116   1.431   3.199 -0.3176  0.3488 -0.0789
 3788THY    CP194680   1.031   1.464   3.073 -0.3052  0.5389 -0.1809
 3788THY    HP194681   1.093   1.454   2.983 -0.5321 -1.2158 -0.1782
 3788THY    CP294682   0.918   1.370   3.049  0.2707 -0.5358  0.6062
 3788THY    HP294683   0.850   1.367   3.135  0.3777  0.6907  0.7421
 3788THY    HP394684   0.857   1.401   2.963  0.9086  0.6951  0.5878
 3788THY    HP494685   0.964   1.272   3.030 -0.0333 -0.5674  0.0287
 3788THY    CP394686   0.964   1.599   3.085  0.0151  0.4062 -0.2280
 3788THY    HP594687   0.874   1.594   3.148 -0.1377  0.0536 -0.4729
 3788THY    HP694688   1.029   1.669   3.139  0.7136 -0.6648  0.3605
 3788THY    HP794689   0.935   1.635   2.986  2.3154  1.8667 -0.4456
 3788THY    CA394690   1.053   1.432   3.326 -0.5345  0.3469  0.3341
 3788THY    HA394691   0.945   1.424   3.340 -0.8466 -0.3778 -2.0477
 3788THY    CA494692   1.133   1.408   3.437  0.2190  0.1877  0.4002
 3788THY    HA494693   1.084   1.405   3.533  0.7510  2.4350  0.8053
 3788THY    CA594694   1.273   1.404   3.428  0.0154  0.3901  0.0184
 3788THY    CM194695   1.360   1.410   3.552 -0.7123 -0.3408 -0.0710
 3788THY    HM194696   1.446   1.475   3.530 -1.4862  1.2076  1.2362
 3788THY    HM294697   1.305   1.461   3.632 -0.6480 -0.3212 -0.0392
 3788THY    HM394698   1.401   1.313   3.584  1.3744 -0.2023 -2.0607
 3788THY    CA694699   1.332   1.401   3.307 -0.3951  0.1327  0.4091
 3788THY    HA694700   1.440   1.386   3.308 -0.2937  0.7137  3.0325
 3789THY      O94701   4.810   9.047   4.405  0.1687 -0.4233  0.8383
 3789THY     HO94702   4.898   9.057   4.446  0.2586  1.8610  0.2777
 3789THY    CA194703   4.824   9.080   4.278  0.0969 -0.1484  0.5255
 3789THY    CA294704   4.718   9.076   4.190  0.4521  0.2623 -0.2072
 3789THY    CP194705   4.571   9.050   4.222  0.3600  0.0482  0.0449
 3789THY    HP194706   4.559   9.031   4.329 -1.8690  0.7332 -0.0427
 3789THY    CP294707   4.467   9.157   4.174 -0.2726 -0.4683 -0.4735
 3789THY    HP294708   4.365   9.137   4.207 -0.5825  0.5260 -0.7864
 3789THY    HP394709   4.495   9.255   4.216 -0.2364 -0.4404 -0.5607
 3789THY    HP494710   4.470   9.167   4.065  1.4458 -0.4801 -0.4625
 3789THY    CP394711   4.526   8.917   4.157  0.7159 -0.4256 -0.5019
 3789THY    HP594712   4.514   8.914   4.048  2.0531  2.4663 -0.8165
 3789THY    HP694713   4.595   8.836   4.183  0.0673 -1.6731 -2.4485
 3789THY    HP794714   4.430   8.892   4.204  0.9631 -3.1285 -1.2761
 3789THY    CA394715   4.752   9.101   4.050 -0.4887  0.2769  0.6447
 3789THY    HA394716   4.672   9.104   3.977 -1.4806 -1.2042  1.6108
 3789THY    CA494717   4.882   9.124   4.014  0.0220  0.7106 -0.1616
 3789THY    HA494718   4.916   9.141   3.913  2.5920  0.9114  0.6557
 3789THY    CA594719   4.986   9.105   4.100  0.0331 -0.0853 -0.2747
 3789THY    CM194720   5.123   9.114   4.047  0.0984 -0.5769 -0.1931
 3789THY    HM194721   5.134   9.214   4.004 -0.4050 -0.6199 -0.4273
 3789THY    HM294722   5.214   9.101   4.107 -1.6041 -1.0051  2.4763
 3789THY    HM394723   5.144   9.057   3.956 -0.0255 -0.8581 -0.0488
 3789THY    CA694724   4.957   9.091   4.234 -0.0470  0.1890  0.6529
 3789THY    HA694725   5.043   9.076   4.299  0.2835  1.0078  0.4187
 3790THY      O94726   5.160   4.063   2.780  0.0538  0.1276  0.4974
 3790THY     HO94727   5.098   4.094   2.712 -3.2687  0.0961  3.2332
 3790THY    CA194728   5.280   4.088   2.734  0.1713 -0.1335  0.2412
 3790THY    CA294729   5.385   4.115   2.817  0.5341 -0.2940 -0.0207
 3790THY    CP194730   5.357   4.109   2.962 -0.3436 -0.1303  0.2495
 3790THY    HP194731   5.292   4.027   2.995 -1.9165  1.4545  1.2769
 3790THY    CP294732   5.483   4.069   3.043  0.2204  0.5320  0.3954
 3790THY    HP294733   5.461   4.052   3.149 -1.9777  1.6057  0.1805
 3790THY    HP394734   5.524   3.973   3.013  1.0253  1.6762 -2.5074
 3790THY    HP494735   5.562   4.144   3.041  3.3800 -2.5426  1.1949
 3790THY    CP394736   5.307   4.243   3.016  0.6419 -0.3799  0.0057
 3790THY    HP594737   5.214   4.273   2.966  0.0217 -1.2128  0.6261
 3790THY    HP694738   5.294   4.244   3.125  1.7630 -0.8273  0.1641
 3790THY    HP794739   5.386   4.317   2.999 -0.7021  1.0000 -0.3419
 3790THY    CA394740   5.509   4.146   2.767  0.1898 -0.1271  0.0651
 3790THY    HA394741   5.589   4.184   2.829 -1.4848 -0.0373  2.2602
 3790THY    CA494742   5.524   4.153   2.627 -0.0559 -0.6769  0.2289
 3790THY    HA494743   5.613   4.203   2.589 -0.4513 -0.5657 -0.5713
 3790THY    CA594744   5.412   4.123   2.544  0.5488 -0.2372 -0.4981
 3790THY    CM194745   5.427   4.135   2.393 -0.2516  0.0744 -0.2265
 3790THY    HM194746   5.354   4.208   2.355  1.5035  1.6776 -0.6923
 3790THY    HM294747   5.526   4.171   2.364 -0.3570  1.4701  1.0020
 3790THY    HM394748   5.417   4.032   2.358  1.4178 -0.5165  0.9110
 3790THY    CA694749   5.296   4.081   2.594 -0.8406  0.0284 -0.1441
 3790THY    HA694750   5.214   4.056   2.527 -0.0589  0.7446 -1.4049
 3791THY      O94751   8.586   2.750   9.672 -0.0259 -0.0889  0.3093
 3791THY     HO94752   8.570   2.795   9.757 -1.6293 -1.3355  0.7200
 3791THY    CA194753   8.612   2.632   9.709 -0.2741  0.5283  0.6363
 3791THY    CA294754   8.697   2.549   9.635 -0.1361  0.3874 -0.3911
 3791THY    CP194755   8.784   2.599   9.522  0.2762 -0.4412 -0.1026
 3791THY    HP194756   8.761   2.704   9.506  0.1167 -0.1043  1.9803
 3791THY    CP294757   8.929   2.582   9.558  0.7455 -0.5456  0.0408
 3791THY    HP294758   8.948   2.660   9.633 -1.6633 -0.2688  0.4232
 3791THY    HP394759   8.957   2.485   9.601  1.4341 -0.0646  0.7195
 3791THY    HP494760   9.000   2.623   9.485  2.5934  0.0466  2.0395
 3791THY    CP394761   8.750   2.525   9.387 -0.0194 -0.4404 -1.0286
 3791THY    HP594762   8.647   2.488   9.375  0.1343 -0.5228 -2.2601
 3791THY    HP694763   8.767   2.600   9.309  0.7438 -0.2746 -0.7039
 3791THY    HP794764   8.826   2.448   9.374 -1.2964 -1.7592 -0.8999
 3791THY    CA394765   8.696   2.411   9.666 -0.7630  0.2775  0.3281
 3791THY    HA394766   8.758   2.347   9.603  0.5853 -0.4918  2.3356
 3791THY    CA494767   8.633   2.365   9.776  0.2189 -1.0115 -0.2214
 3791THY    HA494768   8.646   2.261   9.805 -0.0145 -0.5469  1.7074
 3791THY    CA594769   8.555   2.453   9.854 -0.5764  1.1408 -0.6848
 3791THY    CM194770   8.502   2.407   9.990  0.4527 -0.2490  0.1901
 3791THY    HM194771   8.461   2.306   9.980  0.6071 -0.2748 -0.1733
 3791THY    HM294772   8.579   2.409  10.068  0.5025  1.2109  0.1283
 3791THY    HM394773   8.418   2.465  10.030  0.4025 -0.7962  0.8910
 3791THY    CA694774   8.549   2.587   9.821  0.1166 -0.8012  0.4265
 3791THY    HA694775   8.488   2.651   9.884  0.2869  1.5989 -1.6829
 3792THY      O94776   6.567   4.870   1.884  0.1800  0.7882  0.2579
 3792THY     HO94777   6.639   4.856   1.947  0.9248  1.4526 -0.4238
 3792THY    CA194778   6.633   4.902   1.772 -0.3015 -0.4399  0.3943
 3792THY    CA294779   6.582   4.871   1.647  0.8542  0.8375  0.5209
 3792THY    CP194780   6.430   4.816   1.629 -0.1735 -0.5889 -0.0160
 3792THY    HP194781   6.375   4.796   1.722 -0.4363 -0.9441 -0.2464
 3792THY    CP294782   6.336   4.905   1.550 -0.5715 -0.6093 -0.6186
 3792THY    HP294783   6.320   5.000   1.603  0.4965 -0.8498  0.1700
 3792THY    HP394784   6.374   4.928   1.449 -0.0866 -0.6608 -0.4492
 3792THY    HP494785   6.241   4.851   1.547 -1.0280  0.1276  0.3815
 3792THY    CP394786   6.423   4.676   1.569  0.4866 -0.1695  0.0290
 3792THY    HP594787   6.460   4.670   1.466  1.8298 -3.1421  0.5629
 3792THY    HP694788   6.472   4.612   1.644 -1.4478  0.8132  2.2763
 3792THY    HP794789   6.316   4.649   1.574  0.3562  0.5167  1.4166
 3792THY    CA394790   6.652   4.903   1.532  0.0031 -0.2215  0.0830
 3792THY    HA394791   6.613   4.887   1.432  1.4032  2.1700 -0.9179
 3792THY    CA494792   6.771   4.973   1.541  0.4428  0.0712  0.0313
 3792THY    HA494793   6.831   4.997   1.454  1.3616 -0.0557  0.6089
 3792THY    CA594794   6.824   4.996   1.672  0.1040 -0.1075  0.3567
 3792THY    CM194795   6.965   5.048   1.694 -0.2733 -0.5191 -0.2023
 3792THY    HM194796   7.040   5.023   1.618  1.5783 -2.1582  1.9994
 3792THY    HM294797   6.959   5.158   1.701 -0.1533 -0.5880  1.2947
 3792THY    HM394798   7.011   5.017   1.789  0.4949  1.0207 -0.0348
 3792THY    CA694799   6.758   4.954   1.789 -0.3016 -0.5477 -0.1185
 3792THY    HA694800   6.799   4.980   1.886  0.6389 -0.0387 -0.6411
 3793THY      O94801   8.377   6.033   6.384  0.0839  0.4122 -0.2138
 3793THY     HO94802   8.420   6.115   6.415 -2.8411  1.1693  2.3740
 3793THY    CA194803   8.415   5.938   6.476 -0.0472 -0.4735 -1.0673
 3793THY    CA294804   8.443   5.804   6.451 -1.0739 -0.4135  0.0997
 3793THY    CP194805   8.427   5.752   6.308  0.0912  0.9103  0.0537
 3793THY    HP194806   8.392   5.833   6.243  1.8932  0.3245 -1.7481
 3793THY    CP294807   8.558   5.713   6.238 -0.0551 -0.6393  0.0527
 3793THY    HP294808   8.535   5.670   6.139 -0.8453 -0.8682  0.3341
 3793THY    HP394809   8.606   5.810   6.219 -2.3786  0.2257 -2.0076
 3793THY    HP494810   8.616   5.652   6.308  0.4447  2.8362  2.9508
 3793THY    CP394811   8.311   5.648   6.302 -0.9756  0.3685 -0.2109
 3793THY    HP594812   8.292   5.625   6.197  0.9847  0.3683 -0.5986
 3793THY    HP694813   8.334   5.548   6.342 -3.6738 -0.7288 -1.1640
 3793THY    HP794814   8.229   5.682   6.366 -1.2782 -1.2058  0.2878
 3793THY    CA394815   8.481   5.716   6.559 -0.1559 -0.0882 -0.3586
 3793THY    HA394816   8.486   5.609   6.540  1.0549 -0.0690 -0.2296
 3793THY    CA494817   8.488   5.765   6.686 -0.2699  0.8441  0.3687
 3793THY    HA494818   8.513   5.695   6.765 -1.2610 -0.0473 -0.0746
 3793THY    CA594819   8.472   5.896   6.712  0.5541 -0.7794  0.0396
 3793THY    CM194820   8.485   5.946   6.856 -0.0809  0.1988 -0.3824
 3793THY    HM194821   8.384   5.982   6.880 -0.2695  0.3509 -1.3550
 3793THY    HM294822   8.509   5.865   6.925 -1.2348  1.3083  1.4110
 3793THY    HM394823   8.555   6.029   6.870 -1.9914  1.6561  1.0495
 3793THY    CA694824   8.429   5.982   6.612 -0.5641 -0.1360  0.1678
 3793THY    HA694825   8.408   6.087   6.631 -2.6194  0.0469 -2.4637
 3794THY      O94826   8.465   2.919   6.754  0.2376  0.3170 -0.3703
 3794THY     HO94827   8.411   2.848   6.715 -0.6479  1.8883 -2.1936
 3794THY    CA194828   8.481   2.910   6.888 -0.3533 -0.5402  0.1501
 3794THY    CA294829   8.550   3.002   6.970  0.3923 -0.4480  0.1692
 3794THY    CP194830   8.623   3.112   6.894  0.3021 -0.4852 -0.5346
 3794THY    HP194831   8.554   3.136   6.812 -2.0058 -1.5365  0.9879
 3794THY    CP294832   8.643   3.241   6.982  0.6411  0.0722 -0.1362
 3794THY    HP294833   8.550   3.262   7.037 -0.9540 -0.0051 -2.6488
 3794THY    HP394834   8.725   3.238   7.054  0.8796 -0.2789 -0.4199
 3794THY    HP494835   8.668   3.334   6.928 -0.0947  1.3334  1.6012
 3794THY    CP394836   8.759   3.068   6.844  0.2253  0.3408 -0.6360
 3794THY    HP594837   8.784   3.135   6.761  4.2272 -0.2240 -0.1120
 3794THY    HP694838   8.824   3.075   6.931  0.1176  0.6057 -0.5755
 3794THY    HP794839   8.765   2.963   6.811  0.6893  0.4145 -0.7969
 3794THY    CA394840   8.540   2.992   7.106  0.0008 -0.4122 -0.0770
 3794THY    HA394841   8.598   3.056   7.172 -0.2645  1.1942 -1.3333
 3794THY    CA494842   8.464   2.886   7.165  0.1959 -0.4236  0.5296
 3794THY    HA494843   8.458   2.884   7.274  2.2306 -2.4344  0.6867
 3794THY    CA594844   8.409   2.785   7.083 -0.1650  0.4464 -0.0278
 3794THY    CM194845   8.336   2.671   7.142  0.6536  1.0766 -0.2277
 3794THY    HM194846   8.415   2.596   7.157  0.7699  1.3478  0.6036
 3794THY    HM294847   8.302   2.703   7.242  0.1161 -0.4978  0.1144
 3794THY    HM394848   8.256   2.631   7.080 -0.3140  0.8423  1.1176
 3794THY    CA694849   8.411   2.804   6.948 -0.2962  0.2319  0.6414
 3794THY    HA694850   8.363   2.738   6.876 -0.8413  1.4686 -0.1698
 3795THY      O94851   3.223   2.756   2.606  0.3649  0.2083 -0.4651
 3795THY     HO94852   3.218   2.849   2.578 -1.5209  1.0817  2.3481
 3795THY    CA194853   3.356   2.730   2.606 -0.0895 -1.0479  0.1052
 3795THY    CA294854   3.416   2.626   2.683  0.7512  0.1656 -0.2083
 3795THY    CP194855   3.329   2.526   2.762 -0.1261  0.7707 -0.2887
 3795THY    HP194856   3.227   2.564   2.777 -0.7005 -1.1207  0.9179
 3795THY    CP294857   3.315   2.385   2.696 -0.0124 -0.6867 -0.6227
 3795THY    HP294858   3.245   2.394   2.613  0.7978 -1.2305 -1.3796
 3795THY    HP394859   3.406   2.339   2.656  0.5391 -0.7793  0.6864
 3795THY    HP494860   3.261   2.317   2.764 -1.1981  0.8957  0.0763
 3795THY    CP394861   3.385   2.505   2.907  0.1110  0.6256  0.3872
 3795THY    HP594862   3.394   2.609   2.940 -0.4989  0.8741 -0.2159
 3795THY    HP694863   3.318   2.439   2.965 -0.3457 -0.5800 -1.4249
 3795THY    HP794864   3.489   2.470   2.909 -0.5528 -1.4876  0.4911
 3795THY    CA394865   3.560   2.619   2.690 -0.2768  0.1902  0.0188
 3795THY    HA394866   3.616   2.542   2.743  0.9144 -0.5922 -2.2587
 3795THY    CA494867   3.632   2.715   2.616 -0.2436 -0.3800 -0.1736
 3795THY    HA494868   3.740   2.713   2.624 -0.1738 -0.4894 -1.0659
 3795THY    CA594869   3.574   2.818   2.538 -0.0912  0.1336  0.0695
 3795THY    CM194870   3.652   2.907   2.446 -0.0919  0.5046  0.3364
 3795THY    HM194871   3.614   2.900   2.343  0.8797 -0.5450  0.0356
 3795THY    HM294872   3.654   3.014   2.473  1.0939  0.9648 -1.4261
 3795THY    HM394873   3.760   2.886   2.444 -0.2353 -0.2178 -0.1501
 3795THY    CA694874   3.434   2.826   2.540  0.5906  0.3174  0.2868
 3795THY    HA694875   3.391   2.905   2.478  0.5982  0.3071  0.2684
 3796THY      O94876   3.249   5.850   6.763 -0.0086  0.5243 -0.6132
 3796THY     HO94877   3.171   5.826   6.710  0.3451  0.2796 -1.0244
 3796THY    CA194878   3.226   5.976   6.809  0.1799 -0.1689  0.4078
 3796THY    CA294879   3.335   6.066   6.843 -0.6215  0.2141 -0.7140
 3796THY    CP194880   3.472   6.013   6.820  0.3918 -0.8048  0.3112
 3796THY    HP194881   3.472   5.935   6.743 -0.3455  1.0805 -1.7061
 3796THY    CP294882   3.565   6.124   6.746 -0.1533 -0.6261 -0.1904
 3796THY    HP294883   3.514   6.149   6.652 -0.6125 -2.0137 -0.3342
 3796THY    HP394884   3.580   6.209   6.814  1.5901 -0.2155 -1.0655
 3796THY    HP494885   3.662   6.079   6.724  0.8964  0.6055  1.6649
 3796THY    CP394886   3.530   5.979   6.957  0.3707  0.2599  0.4792
 3796THY    HP594887   3.503   6.057   7.030 -0.3521  1.2144 -0.7526
 3796THY    HP694888   3.479   5.889   6.992  0.9365 -0.4085 -0.4040
 3796THY    HP794889   3.636   5.954   6.947  0.0769 -0.7188 -0.2824
 3796THY    CA394890   3.306   6.184   6.909 -0.4116 -0.1388  0.2783
 3796THY    HA394891   3.377   6.266   6.921 -1.8638  1.0264  1.3626
 3796THY    CA494892   3.178   6.223   6.942  0.2924 -0.4815 -0.2401
 3796THY    HA494893   3.159   6.316   6.994 -1.5013 -1.0010  0.0903
 3796THY    CA594894   3.072   6.134   6.905 -0.3644 -0.1232  0.0965
 3796THY    CM194895   2.934   6.184   6.919  0.2700 -0.5256 -0.9994
 3796THY    HM194896   2.909   6.226   6.820  2.2037 -0.1161 -1.3682
 3796THY    HM294897   2.862   6.107   6.946  0.3614 -0.0843  0.6208
 3796THY    HM394898   2.913   6.260   6.995 -0.8623 -0.1030 -1.7070
 3796THY    CA694899   3.093   6.013   6.843 -0.2250 -0.0168  0.0589
 3796THY    HA694900   3.009   5.948   6.824 -1.8665  2.3316 -1.3785
 3797THY      O94901   8.026   7.644   0.648  0.3613 -0.1194 -0.2267
 3797THY     HO94902   7.999   7.736   0.662  1.8187  0.2570  0.3581
 3797THY    CA194903   8.021   7.615   0.513  0.6308  0.1252  0.1860
 3797THY    CA294904   8.078   7.498   0.469  0.0787 -0.3129 -0.4904
 3797THY    CP194905   8.158   7.406   0.565  0.4134  0.0898 -0.7210
 3797THY    HP194906   8.225   7.474   0.620  0.7132  0.3023 -1.3333
 3797THY    CP294907   8.062   7.344   0.657  0.8510  0.0014 -0.2415
 3797THY    HP294908   8.111   7.273   0.726 -0.5303  0.3836  1.1992
 3797THY    HP394909   8.016   7.417   0.724  0.7263  2.0669 -2.4519
 3797THY    HP494910   7.981   7.299   0.599 -1.8546  2.0003  1.7553
 3797THY    CP394911   8.247   7.297   0.504 -0.0943 -0.3758 -0.8233
 3797THY    HP594912   8.201   7.216   0.447  1.0147 -2.0022  0.4837
 3797THY    HP694913   8.308   7.343   0.425  1.2962 -1.5212 -0.4790
 3797THY    HP794914   8.318   7.256   0.577  0.4697  1.2841 -0.4020
 3797THY    CA394915   8.051   7.456   0.342  0.3609 -0.3621 -0.2217
 3797THY    HA394916   8.097   7.368   0.296  1.0676  0.3921 -0.9879
 3797THY    CA494917   7.997   7.544   0.251 -0.1487  0.6250 -0.0063
 3797THY    HA494918   7.979   7.510   0.150  1.0565 -1.3582  0.3886
 3797THY    CA594919   7.940   7.660   0.292  0.0824  0.1636  0.2434
 3797THY    CM194920   7.852   7.734   0.196  0.0043 -0.6558  0.4127
 3797THY    HM194921   7.747   7.732   0.228 -0.4692 -0.9820 -1.0994
 3797THY    HM294922   7.878   7.840   0.191 -0.2131 -0.6554 -1.6908
 3797THY    HM394923   7.874   7.698   0.095  0.7054  1.3009 -0.1693
 3797THY    CA694924   7.950   7.699   0.424  0.1679  0.3310  0.1971
 3797THY    HA694925   7.900   7.790   0.456 -1.1205 -0.4994  0.6099
 3798THY      O94926   1.858   6.647   0.565  0.6426  0.1024  0.3365
 3798THY     HO94927   1.938   6.602   0.598  1.6242  1.2213 -0.4292
 3798THY    CA194928   1.833   6.745   0.654 -0.4450 -0.4546  0.8780
 3798THY    CA294929   1.747   6.851   0.620  0.0722  0.4667 -0.0797
 3798THY    CP194930   1.657   6.852   0.498  0.7235  0.6386 -0.6964
 3798THY    HP194931   1.685   6.770   0.431  0.9901 -1.4145  1.7636
 3798THY    CP294932   1.507   6.831   0.546 -0.4701 -0.3100 -0.4398
 3798THY    HP294933   1.480   6.885   0.637 -2.3805 -1.6685 -0.1314
 3798THY    HP394934   1.441   6.861   0.465 -0.6623  0.2346 -0.0857
 3798THY    HP494935   1.490   6.724   0.566 -1.7846 -0.1757 -0.7259
 3798THY    CP394936   1.679   6.987   0.425 -0.8427 -0.4556 -0.2232
 3798THY    HP594937   1.774   6.994   0.371 -0.4987  1.6410  0.5327
 3798THY    HP694938   1.597   6.998   0.352 -1.0562  1.0745  0.2105
 3798THY    HP794939   1.683   7.077   0.488 -0.6651 -0.1354 -0.6832
 3798THY    CA394940   1.730   6.956   0.706 -0.1727  0.4000 -0.1427
 3798THY    HA394941   1.661   7.039   0.691  0.4524  0.4172 -3.6682
 3798THY    CA494942   1.826   6.962   0.812  0.3505 -0.5204 -0.7576
 3798THY    HA494943   1.826   7.050   0.875 -4.5000  0.9781 -2.3382
 3798THY    CA594944   1.919   6.856   0.839 -0.0745 -0.2280  0.0579
 3798THY    CM194945   2.024   6.872   0.953 -0.2018  0.1263  0.6394
 3798THY    HM194946   2.019   6.976   0.988 -2.6543 -0.6292  2.8801
 3798THY    HM294947   1.983   6.812   1.035  0.8541  0.4210  1.4044
 3798THY    HM394948   2.119   6.832   0.917 -0.3061 -1.3808  1.9474
 3798THY    CA694949   1.918   6.741   0.762  0.6557  0.3021 -0.0953
 3798THY    HA694950   1.986   6.659   0.781 -0.7452 -0.4111  2.1189
 3799THY      O94951   7.502   2.374   5.295 -0.5171 -0.5332 -0.3879
 3799THY     HO94952   7.529   2.457   5.338  1.3882 -1.7696  0.9640
 3799THY    CA194953   7.571   2.282   5.377 -0.0264  0.6851  0.2122
 3799THY    CA294954   7.628   2.155   5.328  0.0893 -0.1959 -0.9445
 3799THY    CP194955   7.594   2.106   5.182  1.3875  0.2666  0.8030
 3799THY    HP194956   7.520   2.174   5.138 -1.9707 -1.3701  3.5166
 3799THY    CP294957   7.714   2.115   5.091  0.2211  0.5417 -0.6452
 3799THY    HP294958   7.783   2.036   5.123 -2.4326 -2.0063 -0.8478
 3799THY    HP394959   7.685   2.092   4.988 -2.2848 -1.7926  0.4632
 3799THY    HP494960   7.755   2.216   5.100  0.1565  0.4427  1.1802
 3799THY    CP394961   7.549   1.965   5.183 -0.1472  0.3572 -0.2711
 3799THY    HP594962   7.507   1.950   5.082 -1.0623 -0.7942  0.2629
 3799THY    HP694963   7.633   1.901   5.212 -0.1660  0.1883 -0.5832
 3799THY    HP794964   7.461   1.951   5.247 -2.2801 -0.1403 -3.0969
 3799THY    CA394965   7.704   2.083   5.424 -1.3384  0.6164 -0.4930
 3799THY    HA394966   7.761   1.996   5.392 -2.9447 -0.5767 -0.2350
 3799THY    CA494967   7.726   2.130   5.557  0.2650  0.1863  0.0687
 3799THY    HA494968   7.786   2.078   5.631  0.7667  0.2265 -0.3007
 3799THY    CA594969   7.681   2.255   5.595 -0.1066 -0.7592 -0.1662
 3799THY    CM194970   7.733   2.311   5.727  0.3498 -0.0522 -0.1743
 3799THY    HM194971   7.701   2.252   5.813  0.1002 -2.0404 -1.5821
 3799THY    HM294972   7.842   2.298   5.735  0.3437  0.5531  1.0557
 3799THY    HM394973   7.717   2.420   5.729 -1.0195 -0.2505  1.0184
 3799THY    CA694974   7.603   2.327   5.501  0.3807 -0.5673 -0.1512
 3799THY    HA694975   7.573   2.428   5.526  0.6844 -0.0586 -1.6964
 3800THY      O94976   8.340   4.364   0.766  0.3325  0.7133  0.1941
 3800THY     HO94977   8.262   4.360   0.824 -0.1271 -0.9288 -0.4968
 3800THY    CA194978   8.445   4.320   0.837 -0.4144 -0.4273 -1.2085
 3800THY    CA294979   8.582   4.332   0.792  0.5312  0.7864  0.1140
 3800THY    CP194980   8.603   4.398   0.654 -0.1344  0.1961 -0.1123
 3800THY    HP194981   8.525   4.464   0.615 -0.6295 -0.1514  0.2866
 3800THY    CP294982   8.717   4.501   0.662 -0.2170 -0.2103 -0.2501
 3800THY    HP294983   8.740   4.558   0.571 -0.3203 -0.1632 -0.2458
 3800THY    HP394984   8.715   4.569   0.748 -2.7565 -0.8118  0.2392
 3800THY    HP494985   8.810   4.443   0.675 -0.5301 -1.1197 -1.8058
 3800THY    CP394986   8.632   4.298   0.535 -0.4203 -0.6997  0.2477
 3800THY    HP594987   8.555   4.226   0.505 -2.2369  0.3010  2.2491
 3800THY    HP694988   8.662   4.366   0.454 -1.8180  1.7883  1.6993
 3800THY    HP794989   8.719   4.239   0.565  0.3718 -0.2157 -1.0377
 3800THY    CA394990   8.688   4.273   0.876 -0.2545  0.5591  0.1369
 3800THY    HA394991   8.785   4.266   0.829 -0.5980  0.5625 -0.5937
 3800THY    CA494992   8.656   4.218   0.998 -0.2715 -0.2396  0.4329
 3800THY    HA494993   8.737   4.170   1.053  1.7955  1.6440 -0.7701
 3800THY    CA594994   8.521   4.215   1.037 -0.8111 -0.1566 -0.0592
 3800THY    CM194995   8.495   4.171   1.179  0.3681 -0.2372 -0.4349
 3800THY    HM194996   8.538   4.233   1.259 -0.4251 -0.1051 -0.1034
 3800THY    HM294997   8.387   4.161   1.194  0.3115  0.9814  0.0440
 3800THY    HM394998   8.534   4.069   1.189  0.9969  0.1966  2.5931
 3800THY    CA694999   8.419   4.274   0.964 -0.4838  0.4143 -0.2762
 3800THY    HA695000   8.322   4.284   1.011  0.4628  1.6395  1.5557
 3801THY      O95001   3.760   3.798   3.698 -0.3138 -0.7407 -0.1158
 3801THY     HO95002   3.842   3.751   3.677  2.0565  2.6353  0.7217
 3801THY    CA195003   3.665   3.753   3.611  0.1954  0.0321  0.1634
 3801THY    CA295004   3.542   3.814   3.617 -0.7917  0.6174  0.5896
 3801THY    CP195005   3.518   3.936   3.712 -0.4682  0.5028 -0.3052
 3801THY    HP195006   3.580   3.921   3.802 -1.0027 -0.3339 -0.0672
 3801THY    CP295007   3.563   4.061   3.635  0.0089  0.2662 -0.1747
 3801THY    HP295008   3.666   4.050   3.598 -0.4962 -1.6446 -1.1176
 3801THY    HP395009   3.503   4.085   3.547 -1.8092  1.7723  1.3836
 3801THY    HP495010   3.559   4.147   3.703  1.1113 -0.0808  0.3537
 3801THY    CP395011   3.371   3.947   3.749  0.0248  0.0947  0.1314
 3801THY    HP595012   3.322   3.990   3.661  0.9125  1.7061  0.4044
 3801THY    HP695013   3.322   3.851   3.771 -1.7158  0.8343 -0.3382
 3801THY    HP795014   3.348   4.011   3.835  0.1446  1.8441 -1.1047
 3801THY    CA395015   3.444   3.778   3.533  0.1885  0.2457  0.6369
 3801THY    HA395016   3.347   3.827   3.528  0.3016  0.6561  2.0937
 3801THY    CA495017   3.467   3.677   3.441 -0.5236  0.4208 -0.7835
 3801THY    HA495018   3.393   3.648   3.368  2.1737 -3.0551 -2.4322
 3801THY    CA595019   3.582   3.607   3.438 -0.1905 -0.1260 -0.2063
 3801THY    CM195020   3.598   3.498   3.329  0.0847 -0.4892 -0.4743
 3801THY    HM195021   3.657   3.540   3.246  1.0007 -1.6688 -0.4363
 3801THY    HM295022   3.630   3.402   3.370 -3.1833  0.3973  5.2454
 3801THY    HM395023   3.504   3.473   3.278  0.4941  1.3272 -2.2278
 3801THY    CA695024   3.693   3.653   3.514  0.4471  0.1449 -0.5041
 3801THY    HA695025   3.794   3.616   3.501  1.3372  1.3110  2.2890
 3802THY      O95026   9.692   5.944   8.608 -0.5344 -0.1553  0.0475
 3802THY     HO95027   9.710   5.937   8.704  0.7284  1.9887  0.0072
 3802THY    CA195028   9.570   5.989   8.590  0.1064  0.3179 -0.9862
 3802THY    CA295029   9.500   5.955   8.478 -0.0714 -0.0817  0.0254
 3802THY    CP195030   9.564   5.877   8.360 -0.2135 -0.5160 -0.5532
 3802THY    HP195031   9.651   5.826   8.402 -0.3639 -0.0109  0.4079
 3802THY    CP295032   9.462   5.774   8.295 -0.3777 -0.1004 -0.4345
 3802THY    HP295033   9.512   5.704   8.227 -1.6365  1.4347 -3.1032
 3802THY    HP395034   9.401   5.723   8.370 -1.9000 -0.8301 -2.1001
 3802THY    HP495035   9.392   5.832   8.233 -2.6373  0.2741  2.2801
 3802THY    CP395036   9.592   5.985   8.262 -0.0803 -0.6535  0.1793
 3802THY    HP595037   9.639   5.955   8.168 -2.3955  0.2095 -1.3490
 3802THY    HP695038   9.496   6.032   8.238  1.0267  1.7905  0.1496
 3802THY    HP795039   9.672   6.046   8.306  1.3846 -1.1466 -1.6825
 3802THY    CA395040   9.365   6.005   8.469  0.7605 -0.2157  0.1498
 3802THY    HA395041   9.303   5.989   8.382  0.1670  0.5446  0.4242
 3802THY    CA495042   9.305   6.074   8.573 -0.0683 -0.2747  0.2517
 3802THY    HA495043   9.204   6.112   8.558 -0.1528  0.5166  2.4240
 3802THY    CA595044   9.374   6.105   8.691  0.2274  0.0387  0.0449
 3802THY    CM195045   9.315   6.178   8.809  0.4134  0.0692  0.2343
 3802THY    HM195046   9.232   6.120   8.852 -1.7993  2.6716 -0.2426
 3802THY    HM295047   9.391   6.199   8.885 -2.9097 -0.3512  4.0439
 3802THY    HM395048   9.283   6.276   8.770 -0.5193  0.5632  2.1173
 3802THY    CA695049   9.507   6.057   8.696  0.2367 -0.6182  0.0862
 3802THY    HA695050   9.566   6.082   8.784  1.3027  1.5940 -1.1663
 3803THY      O95051   9.812   5.368   3.076  0.0151 -0.6532  0.2565
 3803THY     HO95052   9.740   5.343   3.137 -0.7448  2.3659  0.7488
 3803THY    CA195053   9.773   5.300   2.961 -0.2014  0.5489  0.0221
 3803THY    CA295054   9.784   5.351   2.835  1.1400 -1.1329  0.6459
 3803THY    CP195055   9.842   5.498   2.815  1.0462  0.2612 -0.1632
 3803THY    HP195056   9.860   5.549   2.911 -1.0413 -0.5041  0.6921
 3803THY    CP295057   9.974   5.488   2.729 -0.2606 -0.4089  0.0843
 3803THY    HP295058   9.953   5.467   2.623  1.1906 -1.2093 -0.0637
 3803THY    HP395059  10.035   5.578   2.741  1.7017 -1.7270  0.4403
 3803THY    HP495060  10.032   5.404   2.768  0.4495 -0.4304 -0.9647
 3803THY    CP395061   9.741   5.594   2.737 -0.2518 -0.0205  0.1571
 3803THY    HP595062   9.780   5.645   2.647  0.1412 -0.3144  0.1576
 3803THY    HP695063   9.657   5.538   2.694 -0.0406 -0.1900 -0.0407
 3803THY    HP795064   9.700   5.675   2.798 -0.5635  1.8994 -2.4308
 3803THY    CA395065   9.738   5.281   2.728 -0.1508  0.1714  0.4363
 3803THY    HA395066   9.745   5.315   2.625  2.5215  0.9778  0.7885
 3803THY    CA495067   9.701   5.145   2.745 -0.3494  0.0459  0.1260
 3803THY    HA495068   9.675   5.077   2.664 -1.7290 -1.0741  1.4291
 3803THY    CA595069   9.696   5.088   2.876 -0.0163  0.2924  0.5376
 3803THY    CM195070   9.622   4.959   2.904 -0.0716 -0.4880 -0.8370
 3803THY    HM195071   9.632   4.927   3.009  0.5733  1.4578 -0.2539
 3803THY    HM295072   9.514   4.970   2.890  0.2088  0.0492 -2.8037
 3803THY    HM395073   9.649   4.877   2.836 -0.9594 -1.6877  0.1982
 3803THY    CA695074   9.731   5.166   2.983 -0.1569 -0.1538  0.3594
 3803THY    HA695075   9.730   5.119   3.081 -0.4654  0.6669  0.7610
 3804THY      O95076   1.371   7.788   2.421  0.5755  0.1657  0.0476
 3804THY     HO95077   1.435   7.835   2.477  1.0891 -0.3954 -0.0521
 3804THY    CA195078   1.330   7.893   2.347 -0.1521  1.0132 -1.6833
 3804THY    CA295079   1.248   7.886   2.234  0.4781  0.0684  0.7866
 3804THY    CP195080   1.184   7.754   2.190 -0.3680  0.2941  0.0996
 3804THY    HP195081   1.219   7.668   2.249  0.6710  0.1074 -0.7673
 3804THY    CP295082   1.031   7.763   2.206  0.4143 -0.1801 -0.3739
 3804THY    HP295083   0.984   7.855   2.169 -1.2096 -0.9930 -0.3812
 3804THY    HP395084   0.988   7.690   2.137 -0.7797  1.8011 -1.8483
 3804THY    HP495085   0.994   7.754   2.308  1.1585  0.0637 -0.0695
 3804THY    CP395086   1.227   7.718   2.043 -0.6986 -0.0321  0.0258
 3804THY    HP595087   1.195   7.616   2.020  0.1574 -0.1093 -0.8992
 3804THY    HP695088   1.170   7.773   1.967 -0.2543 -0.9912 -1.0342
 3804THY    HP795089   1.334   7.727   2.020 -1.0803  1.6698 -1.2779
 3804THY    CA395090   1.224   8.001   2.152  0.4349 -0.9102 -0.6565
 3804THY    HA395091   1.156   7.996   2.067  0.8478 -1.2619 -0.9698
 3804THY    CA495092   1.283   8.124   2.192 -0.8466  0.1796  0.0491
 3804THY    HA495093   1.262   8.213   2.135  0.6676 -0.6147 -1.8701
 3804THY    CA595094   1.366   8.130   2.299  0.2609 -0.1874  0.0057
 3804THY    CM195095   1.416   8.261   2.352 -0.1724 -0.5060  0.0334
 3804THY    HM195096   1.419   8.340   2.277  0.1821  1.0742  1.6342
 3804THY    HM295097   1.357   8.301   2.435 -1.7354  1.8166 -2.0470
 3804THY    HM395098   1.518   8.252   2.391  0.2253  1.6017 -0.3996
 3804THY    CA695099   1.388   8.018   2.381  0.7274  0.1096 -0.1839
 3804THY    HA695100   1.455   8.030   2.466  1.5456 -0.3999 -0.7303
 3805THY      O95101   2.873   7.406   3.604 -0.4319  0.1583 -0.4995
 3805THY     HO95102   2.921   7.475   3.555  0.7875  2.0840  3.0441
 3805THY    CA195103   2.928   7.394   3.726  0.6461  0.6338 -0.2505
 3805THY    CA295104   2.886   7.283   3.808 -0.0602 -0.3863 -0.2193
 3805THY    CP195105   2.801   7.165   3.753 -0.8723  0.3283 -0.7252
 3805THY    HP195106   2.799   7.164   3.644 -1.3310 -0.4603 -0.7109
 3805THY    CP295107   2.872   7.037   3.782  0.1630  0.2226  0.3217
 3805THY    HP295108   2.816   6.948   3.753  0.3550  0.3908 -0.5864
 3805THY    HP395109   2.971   7.033   3.735 -0.8805  0.7064 -2.0531
 3805THY    HP495110   2.894   7.029   3.889 -0.2356 -3.4648  0.2579
 3805THY    CP395111   2.669   7.159   3.821 -0.3203 -0.0805  0.2424
 3805THY    HP595112   2.668   7.142   3.929 -1.5185 -1.7112  0.0199
 3805THY    HP695113   2.613   7.248   3.791 -1.2725 -1.1751 -1.4352
 3805THY    HP795114   2.617   7.073   3.777 -1.8339 -0.0537  1.8677
 3805THY    CA395115   2.928   7.283   3.944  0.0626  1.0601 -0.0355
 3805THY    HA395116   2.878   7.213   4.010  1.7370  0.8235  1.0404
 3805THY    CA495117   3.023   7.376   3.982 -0.2104  0.3968  0.5860
 3805THY    HA495118   3.056   7.366   4.085  1.2421 -1.6699 -0.0208
 3805THY    CA595119   3.072   7.482   3.899 -0.6387  0.3397  0.1819
 3805THY    CM195120   3.178   7.584   3.940  0.3455 -0.4846 -0.2876
 3805THY    HM195121   3.146   7.598   4.043  1.2116 -0.9347  0.0552
 3805THY    HM295122   3.281   7.546   3.931  0.0383 -1.8482  1.5264
 3805THY    HM395123   3.158   7.672   3.877 -0.6250 -0.4172  0.1025
 3805THY    CA695124   3.014   7.494   3.772 -0.3716 -0.1094 -0.2714
 3805THY    HA695125   3.051   7.569   3.702 -2.3052  0.0163 -1.2101
 3806THY      O95126   4.539   2.835   4.054 -0.7795 -0.2680 -0.4572
 3806THY     HO95127   4.626   2.831   4.012  0.6634  0.5408  2.2580
 3806THY    CA195128   4.557   2.920   4.159  0.2482 -0.6664  1.5618
 3806THY    CA295129   4.451   2.944   4.251  0.1100 -0.1064 -0.6673
 3806THY    CP195130   4.320   2.878   4.220 -0.2527 -0.1269  0.3331
 3806THY    HP195131   4.315   2.842   4.117  2.6975  0.7263 -0.1883
 3806THY    CP295132   4.309   2.757   4.311  0.3123 -0.0072  0.3461
 3806THY    HP295133   4.211   2.710   4.296 -0.4795  2.0607 -1.5879
 3806THY    HP395134   4.386   2.687   4.278 -0.9335 -1.0898 -0.3547
 3806THY    HP495135   4.328   2.777   4.417  0.5865 -1.1333  0.5206
 3806THY    CP395136   4.207   2.979   4.243 -0.1230 -0.3435 -0.2623
 3806THY    HP595137   4.213   3.006   4.349  0.7014 -1.0508 -0.1159
 3806THY    HP695138   4.221   3.070   4.185  0.9386  1.2207  2.2672
 3806THY    HP795139   4.116   2.921   4.226 -0.0572 -0.8539  0.9589
 3806THY    CA395140   4.486   3.019   4.369  0.1683  0.1708  0.3659
 3806THY    HA395141   4.413   3.033   4.448  1.1031 -2.4643  1.8066
 3806THY    CA495142   4.620   3.063   4.386  0.1549 -0.0560  0.1465
 3806THY    HA495143   4.650   3.121   4.472 -1.3031  0.3439  0.4140
 3806THY    CA595144   4.716   3.043   4.285 -0.2907 -0.3918 -0.0289
 3806THY    CM195145   4.849   3.103   4.300 -0.6657 -0.1362  0.4251
 3806THY    HM195146   4.923   3.086   4.220 -1.1667 -1.9384  0.2939
 3806THY    HM295147   4.854   3.205   4.339 -0.5214 -0.3836  1.0610
 3806THY    HM395148   4.895   3.035   4.372 -2.6062 -1.6932  0.2754
 3806THY    CA695149   4.680   2.981   4.168 -0.2802 -1.0073  0.2934
 3806THY    HA695150   4.759   2.966   4.095  0.4710 -1.9220  1.2561
 3807THY      O95151   1.052   0.148   7.681  0.5023 -0.5454 -0.3541
 3807THY     HO95152   0.994   0.192   7.617  0.8780  2.5208  1.1992
 3807THY    CA195153   0.969   0.116   7.781  0.1715 -0.4191  0.3853
 3807THY    CA295154   1.005   0.026   7.883 -0.4835 -0.0183 -0.3146
 3807THY    CP195155   1.148  -0.031   7.879 -0.5567 -0.3044 -0.0113
 3807THY    HP195156   1.203  -0.017   7.785 -1.3136 -0.8479 -0.5508
 3807THY    CP295157   1.241   0.020   7.992 -0.1020  1.0105 -0.0402
 3807THY    HP295158   1.186   0.041   8.085 -0.4437 -0.9334  0.2330
 3807THY    HP395159   1.328  -0.046   7.998 -1.4083 -0.7727  0.3270
 3807THY    HP495160   1.285   0.115   7.958 -0.5891  0.9430 -0.8786
 3807THY    CP395161   1.139  -0.180   7.908  0.8446  0.2785  0.2111
 3807THY    HP595162   1.083  -0.240   7.836 -1.9913  1.6191  1.1455
 3807THY    HP695163   1.239  -0.222   7.923 -0.0235 -0.6874  4.6083
 3807THY    HP795164   1.090  -0.203   8.004 -0.3825 -0.6347 -0.6125
 3807THY    CA395165   0.914   0.000   7.982 -0.5098 -1.0547 -0.4862
 3807THY    HA395166   0.934  -0.071   8.062 -0.1477  0.9697  1.3105
 3807THY    CA495167   0.779   0.053   7.972 -0.4373 -0.0921  0.0782
 3807THY    HA495168   0.700   0.032   8.042  0.3566  0.1838  1.0821
 3807THY    CA595169   0.746   0.138   7.870 -0.0456 -0.3093 -0.3617
 3807THY    CM195170   0.602   0.188   7.851 -0.4676  0.4469  0.2598
 3807THY    HM195171   0.530   0.113   7.885 -0.2363 -0.1251 -0.4859
 3807THY    HM295172   0.584   0.287   7.894 -2.2777  0.1273  0.3409
 3807THY    HM395173   0.583   0.198   7.743 -2.1318 -1.7275  0.2645
 3807THY    CA695174   0.840   0.156   7.764  0.2702  0.0088 -0.8748
 3807THY    HA695175   0.811   0.221   7.682 -1.6673 -0.4758 -0.6128
 3808THY      O95176   5.639   7.172   9.139 -0.0696 -0.0146 -0.0741
 3808THY     HO95177   5.703   7.213   9.198  2.5268 -1.0517 -1.9818
 3808THY    CA195178   5.592   7.262   9.052 -0.7619  0.1661  0.5927
 3808THY    CA295179   5.572   7.221   8.920  0.4685 -0.3043  0.2524
 3808THY    CP195180   5.589   7.080   8.873  0.2727  1.0896  0.1649
 3808THY    HP195181   5.594   7.016   8.962 -0.2306 -0.8690 -1.1376
 3808THY    CP295182   5.460   7.037   8.790 -0.6550 -0.4656 -0.3692
 3808THY    HP295183   5.467   7.088   8.693  1.1051  2.8812  1.3269
 3808THY    HP395184   5.456   6.928   8.777  2.3509 -0.7048 -0.0799
 3808THY    HP495185   5.370   7.080   8.833 -1.0436 -0.1513 -1.4495
 3808THY    CP395186   5.709   7.055   8.784 -0.2141  0.1282  0.6752
 3808THY    HP595187   5.705   7.130   8.703  0.1710  0.0169  0.5529
 3808THY    HP695188   5.803   7.062   8.839  0.8070  0.7067 -1.0582
 3808THY    HP795189   5.712   6.954   8.743  1.0591 -0.2267  1.5809
 3808THY    CA395190   5.515   7.327   8.836 -0.1262  0.2208 -0.0050
 3808THY    HA395191   5.493   7.309   8.731 -0.0287  2.6040 -0.4858
 3808THY    CA495192   5.484   7.447   8.885 -0.7319 -0.2568 -0.8169
 3808THY    HA495193   5.418   7.506   8.822 -0.2046 -0.3615 -1.4731
 3808THY    CA595194   5.512   7.483   9.017 -0.7925 -0.1690 -0.0385
 3808THY    CM195195   5.465   7.622   9.060 -0.1210  0.1717 -0.0444
 3808THY    HM195196   5.484   7.697   8.983  2.2724 -0.5365 -0.2213
 3808THY    HM295197   5.364   7.595   9.092  0.3182 -1.2076  0.2195
 3808THY    HM395198   5.519   7.663   9.147 -2.1374 -1.2621  2.0065
 3808THY    CA695199   5.577   7.392   9.098 -0.1343 -0.1032  0.1079
 3808THY    HA695200   5.608   7.422   9.198  2.6952  3.5007 -1.6058
 3809THY      O95201   7.642   6.564   6.301 -0.0320 -0.7948 -0.0397
 3809THY     HO95202   7.677   6.498   6.364 -0.6983 -0.6948  0.4517
 3809THY    CA195203   7.642   6.497   6.183  0.1037 -0.4923 -0.6609
 3809THY    CA295204   7.530   6.504   6.095 -0.4631  0.3893 -0.1332
 3809THY    CP195205   7.402   6.582   6.131  0.5681 -0.1483  0.8768
 3809THY    HP195206   7.403   6.617   6.235  2.2674  0.7112  0.6111
 3809THY    CP295207   7.410   6.714   6.055 -0.6330 -0.8506  0.1892
 3809THY    HP295208   7.321   6.774   6.080  0.9689 -0.1982  5.4289
 3809THY    HP395209   7.503   6.770   6.072  0.4972 -2.4429 -0.4895
 3809THY    HP495210   7.426   6.702   5.947  2.0246  1.1674  0.2379
 3809THY    CP395211   7.281   6.507   6.089  0.4750 -0.2217  0.1158
 3809THY    HP595212   7.299   6.399   6.095 -1.8088 -0.6939 -0.5012
 3809THY    HP695213   7.196   6.530   6.154 -0.2770 -0.0608 -0.8990
 3809THY    HP795214   7.247   6.534   5.989  0.2278  2.1348  0.7744
 3809THY    CA395215   7.530   6.423   5.974  0.7244 -0.8976 -0.2020
 3809THY    HA395216   7.454   6.422   5.897  2.7038 -1.5511 -2.2704
 3809THY    CA495217   7.639   6.349   5.945 -0.0485  0.6893 -0.0715
 3809THY    HA495218   7.641   6.284   5.858 -1.0399  0.8272 -0.2110
 3809THY    CA595219   7.746   6.353   6.025 -0.1472  0.0571 -0.2426
 3809THY    CM195220   7.867   6.284   5.985  0.1918  0.6157 -0.2019
 3809THY    HM195221   7.859   6.230   5.890 -2.3532 -0.9134  0.7905
 3809THY    HM295222   7.963   6.338   5.989  0.7372 -0.3599  0.5647
 3809THY    HM395223   7.877   6.206   6.062 -0.8157  1.1204  0.4612
 3809THY    CA695224   7.755   6.433   6.141 -0.0200  0.2237 -0.2335
 3809THY    HA695225   7.843   6.428   6.204 -0.3602 -0.4425  0.1937
 3810THY      O95226   2.138   6.694   2.837 -0.4217 -0.6166  0.4673
 3810THY     HO95227   2.169   6.770   2.889  1.3423 -1.9611  1.4887
 3810THY    CA195228   2.105   6.600   2.931 -0.6152 -0.0696  0.1384
 3810THY    CA295229   2.083   6.471   2.892  0.4574  0.1448 -0.3489
 3810THY    CP195230   2.115   6.425   2.748  0.2776 -0.6379  0.2132
 3810THY    HP195231   2.163   6.506   2.692  1.2198 -1.3494 -0.0291
 3810THY    CP295232   2.217   6.317   2.736 -0.8785  0.5647  0.5018
 3810THY    HP295233   2.312   6.347   2.782 -0.7928 -1.8083  2.0762
 3810THY    HP395234   2.186   6.232   2.799 -0.8045 -1.5944 -2.1809
 3810THY    HP495235   2.236   6.280   2.635  0.7764 -1.8693  1.5889
 3810THY    CP395236   1.984   6.389   2.695 -0.1307 -0.0463 -0.2413
 3810THY    HP595237   1.985   6.368   2.587  1.4904 -0.0769 -0.2432
 3810THY    HP695238   1.944   6.296   2.739 -0.9671  0.1234 -0.6281
 3810THY    HP795239   1.912   6.468   2.718  0.0837 -0.2299  1.1294
 3810THY    CA395240   2.035   6.375   2.988  0.2184  0.1817  0.3077
 3810THY    HA395241   2.007   6.274   2.959  0.7719  0.4143 -1.1120
 3810THY    CA495242   2.026   6.415   3.125 -0.0447 -0.5264  0.1202
 3810THY    HA495243   1.990   6.347   3.202 -0.7291 -0.9864 -0.5964
 3810THY    CA595244   2.056   6.547   3.163 -0.3061  1.2225 -0.6400
 3810THY    CM195245   2.023   6.596   3.301  0.3989  0.3098 -0.7387
 3810THY    HM195246   2.040   6.525   3.382 -1.8438  0.0916 -0.3799
 3810THY    HM295247   2.078   6.690   3.311  0.8310  0.3455 -2.9443
 3810THY    HM395248   1.914   6.610   3.310  0.3449 -1.1635  1.5904
 3810THY    CA695249   2.089   6.639   3.063 -0.4901  0.0408  0.3519
 3810THY    HA695250   2.105   6.745   3.083  0.4856  0.3103 -1.5829
 3811THY      O95251   5.235   3.299   5.348  0.4763  0.1575 -0.1032
 3811THY     HO95252   5.219   3.223   5.289 -1.6381  0.5930 -0.1923
 3811THY    CA195253   5.123   3.378   5.343  0.0503  0.5558 -0.0720
 3811THY    CA295254   5.126   3.513   5.381 -0.0405 -0.2638  0.3475
 3811THY    CP195255   5.246   3.566   5.458 -0.5939  0.5023 -0.4097
 3811THY    HP195256   5.326   3.491   5.459 -1.3742 -0.3591  0.0707
 3811THY    CP295257   5.309   3.701   5.406 -0.2919 -0.0480 -0.3057
 3811THY    HP295258   5.350   3.686   5.305 -0.2831  0.8531 -0.4420
 3811THY    HP395259   5.233   3.780   5.410 -1.6121 -1.2751 -0.2445
 3811THY    HP495260   5.389   3.728   5.476 -0.1693 -0.9825 -0.0732
 3811THY    CP395261   5.204   3.572   5.603 -0.6144 -0.2979  0.0418
 3811THY    HP595262   5.109   3.623   5.620  0.0662  0.4632  1.8420
 3811THY    HP695263   5.194   3.474   5.651 -0.3800 -1.9074 -2.9503
 3811THY    HP795264   5.277   3.634   5.657 -1.2633  1.8594 -1.4398
 3811THY    CA395265   5.011   3.599   5.351 -0.0762 -0.5174 -0.6870
 3811THY    HA395266   5.016   3.705   5.375 -0.7708 -0.8299  0.9330
 3811THY    CA495267   4.907   3.539   5.282 -0.3248  0.4918 -0.3035
 3811THY    HA495268   4.815   3.594   5.266 -0.7768 -0.6185 -1.7887
 3811THY    CA595269   4.902   3.403   5.246  0.4247 -0.2293 -0.0710
 3811THY    CM195270   4.787   3.338   5.176  0.1767  0.7717 -0.2822
 3811THY    HM195271   4.693   3.394   5.182 -0.3702 -0.1056 -0.4410
 3811THY    HM295272   4.808   3.330   5.068  0.3942  0.1509 -0.2000
 3811THY    HM395273   4.768   3.235   5.207 -0.5926  0.4344 -1.7770
 3811THY    CA695274   5.009   3.325   5.285  0.1200  0.0447  0.3156
 3811THY    HA695275   5.004   3.216   5.278  0.4706 -0.0502  1.3937
 3812THY      O95276   0.780   2.487   1.588 -0.0433 -0.0503  0.0833
 3812THY     HO95277   0.796   2.571   1.636  0.9206  0.2050 -0.6562
 3812THY    CA195278   0.766   2.399   1.690 -0.2190 -0.1343  0.6111
 3812THY    CA295279   0.833   2.267   1.691  0.1665 -0.0591  1.0823
 3812THY    CP195280   0.908   2.216   1.569  0.5200 -0.3195 -0.0798
 3812THY    HP195281   0.866   2.272   1.485 -3.2942  0.1460  1.9047
 3812THY    CP295282   1.057   2.243   1.581 -0.3507 -0.6179 -0.1919
 3812THY    HP295283   1.095   2.176   1.659 -1.7282  0.9539  1.9338
 3812THY    HP395284   1.113   2.212   1.492  0.8533 -0.2853  0.4226
 3812THY    HP495285   1.077   2.350   1.597 -1.0071 -0.9089  3.3801
 3812THY    CP395286   0.887   2.067   1.538  0.4525 -0.4633 -0.5174
 3812THY    HP595287   0.907   2.011   1.631 -3.1245 -1.3133 -0.1246
 3812THY    HP695288   0.786   2.040   1.505  0.1140  1.0244 -0.7477
 3812THY    HP795289   0.960   2.032   1.464 -0.7137 -0.5515 -1.6639
 3812THY    CA395290   0.823   2.187   1.809 -0.3944 -0.2013 -0.2152
 3812THY    HA395291   0.879   2.094   1.811  0.1074  0.0045 -2.6410
 3812THY    CA495292   0.740   2.232   1.918 -0.3499  0.0260  0.1896
 3812THY    HA495293   0.722   2.169   2.004 -0.9290  0.0785  0.1083
 3812THY    CA595294   0.674   2.355   1.909 -0.3702 -0.4262 -0.1488
 3812THY    CM195295   0.577   2.396   2.016 -0.3087  0.2895  0.1983
 3812THY    HM195296   0.634   2.413   2.108  3.2350 -0.2134 -1.7161
 3812THY    HM295297   0.509   2.481   2.005 -0.1400  0.8455  2.7937
 3812THY    HM395298   0.506   2.314   2.035  0.1170  0.1320  1.1337
 3812THY    CA695299   0.704   2.440   1.801  1.0263 -0.3217  0.4844
 3812THY    HA695300   0.653   2.537   1.798  0.1084 -0.8027 -2.3910
 3813THY      O95301   7.489   2.101   8.159  0.4244 -0.8945 -0.5154
 3813THY     HO95302   7.572   2.131   8.117  1.3215 -0.3133  1.5555
 3813THY    CA195303   7.531   2.088   8.283  0.8503 -0.4447 -0.4076
 3813THY    CA295304   7.433   2.080   8.382  0.3153  0.4095  1.0291
 3813THY    CP195305   7.281   2.098   8.352 -0.1517  0.2160 -0.4027
 3813THY    HP195306   7.248   2.061   8.254  0.5689 -2.2177  0.2245
 3813THY    CP295307   7.190   2.012   8.439  0.0029  0.0692  0.5469
 3813THY    HP295308   7.225   1.911   8.463  1.0503  0.8908  2.8110
 3813THY    HP395309   7.169   2.053   8.539  0.0445  1.4264  0.0210
 3813THY    HP495310   7.092   2.018   8.390 -0.8513 -1.1636  2.0143
 3813THY    CP395311   7.247   2.249   8.356  0.0891  0.3506  0.0392
 3813THY    HP595312   7.283   2.293   8.262  1.5238  0.1636  0.4708
 3813THY    HP695313   7.139   2.265   8.367  0.0671 -0.8743  2.1317
 3813THY    HP795314   7.308   2.300   8.431  1.7386 -0.9238 -0.3805
 3813THY    CA395315   7.475   2.026   8.503 -0.2706  0.5667 -0.3499
 3813THY    HA395316   7.402   2.001   8.580  2.3162  2.3395  2.9583
 3813THY    CA495317   7.610   2.018   8.538 -0.1810  0.6312  0.0907
 3813THY    HA495318   7.638   1.988   8.639 -1.2999  0.3365  0.3287
 3813THY    CA595319   7.707   2.043   8.441  0.0276  0.3197  0.7757
 3813THY    CM195320   7.852   2.026   8.466  1.1915 -0.0928 -0.2668
 3813THY    HM195321   7.913   2.035   8.375  0.0422  0.4472 -1.0012
 3813THY    HM295322   7.885   2.091   8.548 -1.3599  3.9107 -2.0988
 3813THY    HM395323   7.860   1.922   8.500 -1.6290  0.0271  1.1123
 3813THY    CA695324   7.667   2.068   8.306  0.2279  0.5539 -0.0854
 3813THY    HA695325   7.730   2.065   8.218 -2.9457 -3.0240 -2.5490
 3814THY      O95326   3.775   1.599   5.552 -0.1970  0.1447  0.9903
 3814THY     HO95327   3.858   1.550   5.567  0.8459  1.1400 -1.0782
 3814THY    CA195328   3.745   1.682   5.646 -0.7047 -0.2193 -0.9742
 3814THY    CA295329   3.648   1.783   5.640 -0.0644 -0.1057 -0.2968
 3814THY    CP195330   3.576   1.810   5.504 -0.0334 -0.2106 -0.1379
 3814THY    HP195331   3.568   1.722   5.440 -3.3390 -2.2662  2.7416
 3814THY    CP295332   3.426   1.856   5.512  0.1385  0.7118 -1.2582
 3814THY    HP295333   3.414   1.948   5.570 -0.6198 -0.2429  0.1725
 3814THY    HP395334   3.365   1.867   5.422  1.3753  1.1235 -2.0604
 3814THY    HP495335   3.370   1.781   5.570  1.3412  0.3913 -0.4689
 3814THY    CP395336   3.648   1.914   5.424  0.6728 -0.7449 -0.2768
 3814THY    HP595337   3.597   1.932   5.329 -0.7651  0.0708  0.6109
 3814THY    HP695338   3.647   2.012   5.473 -1.8154 -0.3255 -1.0326
 3814THY    HP795339   3.754   1.887   5.423  1.0450 -0.0795  3.5691
 3814THY    CA395340   3.619   1.856   5.762 -0.0159 -0.2068  0.1322
 3814THY    HA395341   3.542   1.932   5.765 -1.0124 -1.1724 -0.1251
 3814THY    CA495342   3.700   1.835   5.878 -0.1516  0.4107 -0.0784
 3814THY    HA495343   3.679   1.899   5.963 -1.6271  1.3546 -1.0968
 3814THY    CA595344   3.786   1.731   5.885 -0.7614 -1.4912 -0.2833
 3814THY    CM195345   3.857   1.701   6.012 -0.1855  0.3382 -0.2107
 3814THY    HM195346   3.900   1.781   6.072 -0.8807 -0.3008  1.1861
 3814THY    HM295347   3.786   1.662   6.086  0.7928 -1.3535 -0.0890
 3814THY    HM395348   3.935   1.626   5.996 -1.7037 -1.5969  0.9695
 3814THY    CA695349   3.813   1.653   5.767 -0.3891  0.0592 -0.2914
 3814THY    HA695350   3.874   1.564   5.773  1.1552  0.9939 -1.3863
 3815THY      O95351   7.325   7.903   6.088  0.0499  0.2748  0.0806
 3815THY     HO95352   7.340   7.920   5.994  0.0117  0.0676  0.0349
 3815THY    CA195353   7.382   8.004   6.153  0.2311  0.0038 -0.4503
 3815THY    CA295354   7.415   7.993   6.295  0.1114  0.2336 -0.0412
 3815THY    CP195355   7.383   7.863   6.364 -0.0936  0.1125  0.0012
 3815THY    HP195356   7.354   7.789   6.289 -1.0731 -0.3113  0.7617
 3815THY    CP295357   7.505   7.807   6.441  0.4490 -0.3760  0.0858
 3815THY    HP295358   7.508   7.840   6.546 -0.0097 -0.3504  0.0926
 3815THY    HP395359   7.493   7.699   6.458 -1.3012  0.0335  1.8703
 3815THY    HP495360   7.595   7.823   6.381  0.1093 -1.0951 -0.6276
 3815THY    CP395361   7.252   7.881   6.448  0.2214  0.1804 -0.1233
 3815THY    HP595362   7.278   7.930   6.543 -0.2026 -0.6297  0.4197
 3815THY    HP695363   7.170   7.928   6.392 -0.8955 -0.9781  0.5036
 3815THY    HP795364   7.199   7.789   6.472  0.1058 -0.3056 -2.0783
 3815THY    CA395365   7.479   8.100   6.363  0.0751  0.0843  0.0620
 3815THY    HA395366   7.508   8.094   6.467 -0.9463 -3.9043  0.2839
 3815THY    CA495367   7.502   8.220   6.283 -0.1091  0.3106 -0.1625
 3815THY    HA495368   7.554   8.304   6.328 -0.7090  1.8159 -2.1464
 3815THY    CA595369   7.452   8.228   6.150 -0.0682 -0.2341  0.1866
 3815THY    CM195370   7.473   8.354   6.066  0.7392 -0.0501 -0.1010
 3815THY    HM195371   7.549   8.418   6.113 -0.0435 -0.4080  1.7510
 3815THY    HM295372   7.517   8.321   5.971  2.0217  2.3619 -0.4213
 3815THY    HM395373   7.383   8.415   6.053 -0.2710 -1.9242 -2.7315
 3815THY    CA695374   7.388   8.121   6.089  0.7709  0.0379  0.8623
 3815THY    HA695375   7.342   8.135   5.992  3.4260  2.4626 -0.1472
 3816THY      O95376   4.079   6.461   4.804  0.0618 -0.0603  0.7787
 3816THY     HO95377   4.077   6.388   4.869  1.5034 -1.0751 -0.2359
 3816THY    CA195378   4.118   6.389   4.686 -0.2745 -1.0441  0.4922
 3816THY    CA295379   4.038   6.376   4.570 -0.0600 -0.2314 -0.2158
 3816THY    CP195380   3.900   6.444   4.571 -0.5282 -0.6233 -0.8164
 3816THY    HP195381   3.866   6.456   4.674  1.5239 -0.0894 -0.1508
 3816THY    CP295382   3.908   6.590   4.516 -0.4539  0.1834 -0.3820
 3816THY    HP295383   3.804   6.625   4.508 -0.8803 -1.1303 -0.9651
 3816THY    HP395384   3.949   6.664   4.585  0.2863 -0.8077  0.2667
 3816THY    HP495385   3.957   6.594   4.418 -1.1836  2.4021 -0.7043
 3816THY    CP395386   3.791   6.359   4.503  0.6255  0.3782  0.0158
 3816THY    HP595387   3.791   6.372   4.394 -1.1406  1.0060  0.0528
 3816THY    HP695388   3.808   6.254   4.529  2.3496  0.3679 -0.9578
 3816THY    HP795389   3.703   6.413   4.541  1.4008  0.7489  1.3332
 3816THY    CA395390   4.093   6.312   4.456  0.2617  0.6381 -0.0825
 3816THY    HA395391   4.043   6.312   4.360 -0.8331 -1.4243  0.4502
 3816THY    CA495392   4.221   6.258   4.458  0.1196  0.4683 -0.1632
 3816THY    HA495393   4.266   6.210   4.371 -2.9617 -0.8009 -1.2233
 3816THY    CA595394   4.296   6.265   4.573 -0.1261 -0.7337  0.3028
 3816THY    CM195395   4.444   6.219   4.568 -0.4755  0.7585  0.1952
 3816THY    HM195396   4.515   6.288   4.523  1.4398 -1.3013 -0.1338
 3816THY    HM295397   4.484   6.193   4.667 -0.7319  0.6402  0.2711
 3816THY    HM395398   4.463   6.130   4.507 -1.5851  0.1369  0.7193
 3816THY    CA695399   4.243   6.328   4.683 -0.5244  0.2272 -0.3143
 3816THY    HA695400   4.310   6.336   4.768  0.6662 -2.4435 -0.8899
 3817THY      O95401   9.102   0.236   9.813 -0.1206 -0.2540  0.1409
 3817THY     HO95402   9.131   0.240   9.720 -1.3862  0.3124 -0.2463
 3817THY    CA195403   9.102   0.365   9.858 -0.0696  0.4006  0.0037
 3817THY    CA295404   9.040   0.401   9.978  0.1980  0.7106  0.6487
 3817THY    CP195405   8.982   0.293  10.069  0.0222 -0.2199 -0.1929
 3817THY    HP195406   8.961   0.198  10.018 -0.6686 -1.7442  2.6813
 3817THY    CP295407   9.092   0.254  10.173  0.0581  0.8006  0.4616
 3817THY    HP295408   9.186   0.236  10.119  0.2982 -0.5245  1.2617
 3817THY    HP395409   9.104   0.340  10.240 -1.0192  0.8197  0.6530
 3817THY    HP495410   9.068   0.163  10.229  0.5067  1.0884  1.1319
 3817THY    CP395411   8.856   0.330  10.148  0.2079  0.4781  0.0997
 3817THY    HP595412   8.776   0.348  10.076  0.4958  1.6353  0.0473
 3817THY    HP695413   8.826   0.247  10.213  0.9231 -0.2614 -0.5001
 3817THY    HP795414   8.863   0.423  10.206 -1.9288  1.1285 -0.5829
 3817THY    CA395415   9.051   0.536  10.019  0.1136 -0.3811 -0.2271
 3817THY    HA395416   8.991   0.569  10.104  0.6022  0.8793 -0.3483
 3817THY    CA495417   9.111   0.630   9.942 -0.2393  0.3651  0.4237
 3817THY    HA495418   9.119   0.731   9.981 -0.8117  0.3236  0.6619
 3817THY    CA595419   9.167   0.591   9.819 -0.7647 -0.3040  0.2450
 3817THY    CM195420   9.230   0.697   9.734 -0.0845 -0.4428 -0.0964
 3817THY    HM195421   9.330   0.729   9.767  0.2496 -1.0395 -0.4928
 3817THY    HM295422   9.261   0.647   9.641 -2.9945 -1.8746 -0.4174
 3817THY    HM395423   9.163   0.780   9.708 -1.2803 -1.7763 -1.5284
 3817THY    CA695424   9.163   0.459   9.776 -0.0497  0.3186 -1.2990
 3817THY    HA695425   9.225   0.440   9.689  0.9694 -1.0918 -0.3034
 3818THY      O95426   6.750   1.972   6.906 -0.4159 -0.0877  0.1646
 3818THY     HO95427   6.686   2.034   6.867 -0.5705 -0.0237  0.5194
 3818THY    CA195428   6.680   1.879   6.972 -0.2478  0.2253 -0.2351
 3818THY    CA295429   6.685   1.744   6.937  0.5381 -0.8098  0.7939
 3818THY    CP195430   6.761   1.700   6.815  0.2209  0.5223  0.4772
 3818THY    HP195431   6.803   1.791   6.769  0.0471  1.0189  1.2803
 3818THY    CP295432   6.878   1.610   6.862  0.0772  0.2519 -0.4316
 3818THY    HP295433   6.845   1.513   6.900  0.8531  1.1318  2.7969
 3818THY    HP395434   6.955   1.597   6.785 -0.6873 -1.3967 -0.9629
 3818THY    HP495435   6.929   1.661   6.945  3.5641  0.5358 -2.5343
 3818THY    CP395436   6.673   1.620   6.718 -0.0808  0.3633 -0.6279
 3818THY    HP595437   6.728   1.603   6.625 -1.6450  2.0852 -1.9359
 3818THY    HP695438   6.651   1.523   6.765  0.3148  0.6771  0.2416
 3818THY    HP795439   6.582   1.671   6.684 -0.1721  1.2044  0.7986
 3818THY    CA395440   6.608   1.649   7.005 -0.6421  0.0306  0.6486
 3818THY    HA395441   6.630   1.544   6.987  2.9357  0.8347 -0.4466
 3818THY    CA495442   6.532   1.688   7.111 -0.7266  0.6253  0.4476
 3818THY    HA495443   6.468   1.618   7.164 -2.3246  0.5307 -1.4988
 3818THY    CA595444   6.523   1.823   7.145  0.0761 -0.0270  0.4384
 3818THY    CM195445   6.426   1.881   7.249 -0.4124  0.0942  0.0072
 3818THY    HM195446   6.478   1.951   7.316 -0.5630 -0.6719  0.9556
 3818THY    HM295447   6.338   1.922   7.198 -0.8683  0.6883  1.2138
 3818THY    HM395448   6.406   1.795   7.314  1.5350  0.3382  1.0038
 3818THY    CA695449   6.604   1.915   7.078 -0.4372 -0.8080  0.2039
 3818THY    HA695450   6.606   2.019   7.111 -0.7121 -0.0333 -2.0373
 3819THY      O95451   8.796   7.228   5.668 -0.1379 -0.2252 -0.0758
 3819THY     HO95452   8.796   7.163   5.741 -0.5767 -1.5062 -1.1630
 3819THY    CA195453   8.709   7.177   5.586 -0.2065  0.4247  0.1880
 3819THY    CA295454   8.737   7.181   5.448 -0.1620  0.0113 -0.4118
 3819THY    CP195455   8.823   7.293   5.392  1.1309 -0.0246  0.3888
 3819THY    HP195456   8.840   7.364   5.474  0.2542  0.6226  0.0282
 3819THY    CP295457   8.967   7.237   5.357 -0.0062 -0.4123 -0.7283
 3819THY    HP295458   9.023   7.310   5.297  0.6828  0.1758  0.5962
 3819THY    HP395459   9.023   7.220   5.450 -0.2104  2.3898 -0.0127
 3819THY    HP495460   8.966   7.144   5.299 -0.3205  0.0109 -1.4175
 3819THY    CP395461   8.767   7.374   5.276 -0.0047 -0.3792 -0.0009
 3819THY    HP595462   8.838   7.454   5.252  1.4167 -1.0174  1.8621
 3819THY    HP695463   8.753   7.321   5.181  0.6403 -0.8939  0.1844
 3819THY    HP795464   8.665   7.403   5.306  0.3963 -0.0798  1.1108
 3819THY    CA395465   8.660   7.113   5.362 -0.3083 -0.0778 -0.8377
 3819THY    HA395466   8.678   7.118   5.255  0.9971  0.2673 -0.6234
 3819THY    CA495467   8.559   7.025   5.417 -0.4678  0.1451 -0.1642
 3819THY    HA495468   8.496   6.971   5.346  0.6383 -1.0301 -0.2929
 3819THY    CA595469   8.531   7.009   5.553 -0.2703  0.1914 -0.6872
 3819THY    CM195470   8.416   6.935   5.611 -0.6188  0.3046 -0.7448
 3819THY    HM195471   8.457   6.898   5.706  0.5489  0.6109 -1.1152
 3819THY    HM295472   8.326   6.997   5.625 -0.8489  0.1475 -1.4806
 3819THY    HM395473   8.380   6.852   5.549 -1.3108  0.1923 -0.2148
 3819THY    CA695474   8.612   7.091   5.639  0.2172 -0.1905  0.5064
 3819THY    HA695475   8.591   7.087   5.745 -0.4820  2.3548  0.5526
 3820THY      O95476   3.297   0.785   1.916  0.6848 -0.2763 -0.3637
 3820THY     HO95477   3.298   0.804   2.011  0.8434  0.8725 -0.5815
 3820THY    CA195478   3.398   0.688   1.911  0.4618  0.0319  0.2309
 3820THY    CA295479   3.494   0.682   1.811  1.0304  0.2236  1.2785
 3820THY    CP195480   3.484   0.779   1.695  0.2815  0.7890 -0.0985
 3820THY    HP195481   3.395   0.843   1.702 -0.7115 -0.3884 -1.2183
 3820THY    CP295482   3.589   0.891   1.673 -0.8631 -0.0518  0.3495
 3820THY    HP295483   3.688   0.845   1.657 -0.5165  0.0977  1.8841
 3820THY    HP395484   3.571   0.969   1.599 -0.4419 -0.6462 -0.3867
 3820THY    HP495485   3.599   0.948   1.767  0.1359 -2.4679  1.8178
 3820THY    CP395486   3.460   0.712   1.562  0.2936 -0.2069 -0.0796
 3820THY    HP595487   3.536   0.639   1.533  1.4656  0.7325  0.5410
 3820THY    HP695488   3.358   0.674   1.577  0.2070  0.4588  1.1815
 3820THY    HP795489   3.461   0.771   1.470  2.3076 -1.1669 -0.7412
 3820THY    CA395490   3.591   0.582   1.815 -0.2195  0.1310  0.4761
 3820THY    HA395491   3.673   0.582   1.743  0.3520  1.3565  1.0987
 3820THY    CA495492   3.593   0.480   1.912 -0.2191  0.7096  0.5039
 3820THY    HA495493   3.671   0.404   1.915  0.6290  1.4030 -1.8027
 3820THY    CA595494   3.488   0.483   2.007 -0.4522  0.1084 -0.6780
 3820THY    CM195495   3.491   0.371   2.112 -0.0972 -0.4542  0.3189
 3820THY    HM195496   3.559   0.395   2.195 -0.9608 -1.5943  1.3952
 3820THY    HM295497   3.391   0.353   2.154  0.5479  0.6994  2.5012
 3820THY    HM395498   3.531   0.281   2.066  1.6814 -0.6583  2.1249
 3820THY    CA695499   3.394   0.589   2.013 -0.1444  0.1660  0.0877
 3820THY    HA695500   3.328   0.601   2.098 -0.3416  1.7642 -0.2632
 3821THY      O95501   0.406   1.132   6.849 -0.1489  0.5188  0.1312
 3821THY     HO95502   0.464   1.064   6.888  2.2233  1.8252 -0.9585
 3821THY    CA195503   0.318   1.151   6.944 -1.1129  0.0711 -0.1930
 3821THY    CA295504   0.186   1.196   6.916  0.2597 -0.5717 -0.5920
 3821THY    CP195505   0.137   1.218   6.774 -0.4282  1.0961 -1.2502
 3821THY    HP195506   0.224   1.212   6.709  0.9019  0.9830  0.4740
 3821THY    CP295507   0.041   1.098   6.740 -0.0074 -0.0790 -0.6322
 3821THY    HP295508   0.012   1.086   6.635  0.6333  0.1609 -0.8436
 3821THY    HP395509   0.068   0.999   6.778  0.8324  0.4462  0.1736
 3821THY    HP495510  -0.053   1.131   6.786  0.6541  0.4106  0.4270
 3821THY    CP395511   0.079   1.351   6.759  0.8056 -0.2215 -0.0118
 3821THY    HP595512   0.043   1.373   6.658  0.9282 -0.5483 -0.1267
 3821THY    HP695513  -0.012   1.370   6.818  0.0703 -0.8000 -0.9317
 3821THY    HP795514   0.148   1.430   6.790  0.8538 -1.1506  2.4513
 3821THY    CA395515   0.097   1.221   7.022 -0.4810  0.3768  0.0499
 3821THY    HA395516  -0.005   1.256   7.007 -1.5396 -2.2747  0.4486
 3821THY    CA495517   0.151   1.199   7.154  0.0268  0.4022  0.3619
 3821THY    HA495518   0.087   1.218   7.240 -0.8903 -1.8876  0.2735
 3821THY    CA595519   0.281   1.151   7.176 -0.2548  0.1702  0.3265
 3821THY    CM195520   0.328   1.111   7.311 -0.3532 -0.3698 -0.0749
 3821THY    HM195521   0.256   1.042   7.358  0.0435 -1.6058 -1.2310
 3821THY    HM295522   0.428   1.065   7.308  0.8792  2.1484 -2.9778
 3821THY    HM395523   0.331   1.197   7.379 -1.4853  0.0821 -0.5694
 3821THY    CA695524   0.368   1.134   7.071 -0.8820  0.7133  0.3487
 3821THY    HA695525   0.472   1.108   7.093 -1.1450 -0.3625  0.3876
 3822THY      O95526   2.275   9.597   9.261  0.1099 -0.0512  0.1065
 3822THY     HO95527   2.215   9.548   9.319  0.1892  0.0988  0.3144
 3822THY    CA195528   2.357   9.502   9.219  0.5546  0.3369 -0.4108
 3822THY    CA295529   2.453   9.522   9.119 -1.1713  0.6084 -0.3214
 3822THY    CP195530   2.459   9.652   9.040 -0.2275  0.0550  0.1261
 3822THY    HP195531   2.437   9.735   9.108 -1.0352  0.0215 -0.0865
 3822THY    CP295532   2.598   9.682   8.993  0.4232  0.0679  0.0925
 3822THY    HP295533   2.627   9.612   8.914  3.4176  0.7375  0.4490
 3822THY    HP395534   2.604   9.785   8.955 -2.6955  0.9848  1.7425
 3822THY    HP495535   2.675   9.664   9.069  1.6105  2.4373 -0.4499
 3822THY    CP395536   2.350   9.662   8.931  0.2266 -0.0053  0.1096
 3822THY    HP595537   2.253   9.639   8.976  0.4712  1.5260  1.5226
 3822THY    HP695538   2.346   9.758   8.879 -0.1708 -0.2036 -0.2310
 3822THY    HP795539   2.376   9.582   8.861  0.9424  0.6159 -0.3474
 3822THY    CA395540   2.532   9.407   9.094 -1.5269 -0.0455  0.4103
 3822THY    HA395541   2.602   9.396   9.012 -0.2262  1.4659  1.2579
 3822THY    CA495542   2.522   9.287   9.162 -0.5381 -0.5149 -0.7826
 3822THY    HA495543   2.589   9.206   9.136 -0.9959 -1.3181  0.4195
 3822THY    CA595544   2.427   9.274   9.263  0.1403  0.0240 -0.7307
 3822THY    CM195545   2.442   9.157   9.354 -0.0545  0.6488 -0.5089
 3822THY    HM195546   2.371   9.083   9.315 -1.5134  1.6810  0.1161
 3822THY    HM295547   2.545   9.121   9.368 -0.6914 -1.1080 -0.0078
 3822THY    HM395548   2.411   9.180   9.456 -1.9477  0.7777 -1.0829
 3822THY    CA695549   2.344   9.381   9.289  0.4636 -1.0897 -0.1917
 3822THY    HA695550   2.281   9.369   9.377  0.1604  1.7322  0.0663
 3823THY      O95551   0.750   3.962   8.995 -0.6660 -0.0162 -0.0387
 3823THY     HO95552   0.744   3.872   9.032  0.5286  0.7956  2.3402
 3823THY    CA195553   0.682   4.040   9.086 -0.5272  0.1159 -0.3195
 3823THY    CA295554   0.680   4.178   9.067 -0.5482  0.1665 -0.0036
 3823THY    CP195555   0.741   4.240   8.937 -0.1508  0.6550 -0.1009
 3823THY    HP195556   0.819   4.174   8.897 -0.4677  0.0231  0.3045
 3823THY    CP295557   0.642   4.253   8.817 -0.1914 -0.1140 -0.1395
 3823THY    HP295558   0.613   4.355   8.790 -1.7176  0.2739  2.5927
 3823THY    HP395559   0.705   4.220   8.734  0.2571  0.7224 -0.1387
 3823THY    HP495560   0.561   4.179   8.827  1.2725 -1.7174  0.3452
 3823THY    CP395561   0.806   4.373   8.964  0.2111 -0.7976 -0.0799
 3823THY    HP595562   0.891   4.378   8.895  0.0998 -0.9499 -0.2260
 3823THY    HP695563   0.740   4.458   8.942 -0.4220 -1.5668 -1.2140
 3823THY    HP795564   0.854   4.383   9.062  1.9364  0.5721 -0.9957
 3823THY    CA395565   0.618   4.259   9.173  0.3558  0.5418 -0.1554
 3823THY    HA395566   0.619   4.368   9.173  1.4531  0.5490  0.6726
 3823THY    CA495567   0.551   4.196   9.274  0.8818  0.9300 -0.2477
 3823THY    HA495568   0.502   4.257   9.350 -1.1550 -0.8433 -0.0194
 3823THY    CA595569   0.559   4.057   9.288  0.5660  0.5667  0.6349
 3823THY    CM195570   0.495   3.998   9.409  0.9472 -0.1420 -0.2002
 3823THY    HM195571   0.389   4.021   9.423  0.2959 -2.3862 -0.9858
 3823THY    HM295572   0.500   3.890   9.420  0.3371 -0.1327  0.1798
 3823THY    HM395573   0.548   4.046   9.492 -2.1606  0.8477  1.3770
 3823THY    CA695574   0.630   3.977   9.199  0.4498 -0.1278  0.3365
 3823THY    HA695575   0.640   3.870   9.214  0.5437 -0.6171 -2.6194
 3824THY      O95576   7.247   1.680   6.010  0.3879  0.3291  0.3855
 3824THY     HO95577   7.301   1.632   5.945  1.9187  1.4932  0.7471
 3824THY    CA195578   7.328   1.766   6.075  0.3144  0.2278  0.6023
 3824THY    CA295579   7.286   1.897   6.123  0.3774 -0.0461  0.2681
 3824THY    CP195580   7.146   1.942   6.093 -0.1108  0.3348 -0.7944
 3824THY    HP195581   7.114   1.858   6.031  2.0962 -1.5300  0.3966
 3824THY    CP295582   7.074   1.946   6.223  0.7445  0.1885 -0.9846
 3824THY    HP295583   7.107   2.021   6.296 -0.9199 -2.3563  2.7313
 3824THY    HP395584   6.967   1.951   6.200  0.7612 -2.2732 -1.8153
 3824THY    HP495585   7.080   1.851   6.277 -1.5416  0.5582  0.0582
 3824THY    CP395586   7.130   2.071   6.016 -0.7320  0.1795 -0.2373
 3824THY    HP595587   7.130   2.161   6.078  0.1534 -0.7723  1.2057
 3824THY    HP695588   7.209   2.077   5.940 -2.7384  0.4258 -2.4277
 3824THY    HP795589   7.038   2.062   5.958 -1.2155 -0.4511  0.6059
 3824THY    CA395590   7.379   1.981   6.174  0.0395  0.1654  0.0634
 3824THY    HA395591   7.344   2.077   6.209 -1.7551 -1.5704  3.5367
 3824THY    CA495592   7.511   1.935   6.188 -0.3405  0.2589 -0.1742
 3824THY    HA495593   7.584   2.005   6.227 -0.8829  2.0688 -2.2047
 3824THY    CA595594   7.553   1.804   6.148  0.9709 -0.4627  0.3762
 3824THY    CM195595   7.696   1.768   6.149 -1.1624 -0.1442 -0.0903
 3824THY    HM195596   7.711   1.687   6.221  0.7499  2.2709  2.4363
 3824THY    HM295597   7.716   1.739   6.045 -2.1505  0.9319 -0.6069
 3824THY    HM395598   7.753   1.856   6.179 -1.6503 -0.6396  2.5361
 3824THY    CA695599   7.456   1.721   6.096  0.0704  1.1842 -0.3962
 3824THY    HA695600   7.490   1.622   6.066  1.4435  1.6363 -0.3648
 3825THY      O95601   2.220   5.760   9.657  0.4610 -0.1732  0.2496
 3825THY     HO95602   2.270   5.743   9.575 -2.2349 -0.2133 -1.5308
 3825THY    CA195603   2.298   5.734   9.766 -0.7777  0.3463 -0.2939
 3825THY    CA295604   2.266   5.784   9.891  0.1263  0.0911 -0.3897
 3825THY    CP195605   2.128   5.852   9.910 -0.2977 -0.5577 -0.1289
 3825THY    HP195606   2.075   5.867   9.815 -0.2784 -0.9227 -0.1991
 3825THY    CP295607   2.029   5.777   9.997 -0.8452  0.0073  0.0864
 3825THY    HP295608   2.027   5.671   9.971  1.4539  0.2923 -1.5677
 3825THY    HP395609   2.069   5.775  10.099 -0.2994 -1.0751 -0.1355
 3825THY    HP495610   1.932   5.826   9.980 -0.8227  0.4817  1.2518
 3825THY    CP395611   2.154   5.985   9.979 -0.3564  0.5225  0.0480
 3825THY    HP595612   2.057   6.031  10.002 -0.4308 -0.4480  1.9013
 3825THY    HP695613   2.196   5.983  10.080  0.3581 -0.3054 -0.2611
 3825THY    HP795614   2.220   6.042   9.913 -0.6787  0.7811 -0.0571
 3825THY    CA395615   2.353   5.759  10.000 -0.0379 -0.1391  0.0409
 3825THY    HA395616   2.315   5.777  10.100 -3.3481 -0.5141 -1.0266
 3825THY    CA495617   2.471   5.690   9.979 -0.1056  0.3573 -0.1083
 3825THY    HA495618   2.538   5.663  10.060  0.6267 -2.0581 -1.4041
 3825THY    CA595619   2.500   5.635   9.855 -0.1637  0.1690  0.2644
 3825THY    CM195620   2.619   5.551   9.844 -0.2032  1.3446 -0.3914
 3825THY    HM195621   2.711   5.609   9.834  0.4402  0.5137  0.4363
 3825THY    HM295622   2.618   5.488   9.934 -2.9230  1.6227 -0.1317
 3825THY    HM395623   2.611   5.491   9.753 -0.5333  2.6848 -1.2664
 3825THY    CA695624   2.418   5.656   9.750 -0.6976 -0.0118  0.3862
 3825THY    HA695625   2.435   5.609   9.654 -0.7145  1.1873 -0.2163
 3826THY      O95626   6.279   4.655   4.002 -0.4589 -0.0712 -0.0541
 3826THY     HO95627   6.340   4.731   4.010 -1.7364  0.9404  0.4717
 3826THY    CA195628   6.255   4.640   3.869  1.0499  0.0694  0.4622
 3826THY    CA295629   6.128   4.673   3.813 -0.5197 -0.2337 -0.0322
 3826THY    CP195630   6.007   4.689   3.901 -0.5797 -0.1516  0.1258
 3826THY    HP195631   6.026   4.631   3.992 -1.9743 -0.2238  0.3940
 3826THY    CP295632   5.976   4.834   3.931 -0.6094 -0.4603 -0.0376
 3826THY    HP295633   5.979   4.897   3.842  2.5347  0.4312  0.5549
 3826THY    HP395634   5.878   4.835   3.980 -1.0392  0.3193 -0.8925
 3826THY    HP495635   6.057   4.867   3.997 -0.6645 -0.0685 -0.1674
 3826THY    CP395636   5.882   4.621   3.844 -0.2486 -0.2306 -0.0805
 3826THY    HP595637   5.812   4.608   3.928 -0.3375 -1.0304 -0.2717
 3826THY    HP695638   5.852   4.648   3.742  3.5763  0.1857 -1.2310
 3826THY    HP795639   5.903   4.515   3.826  1.2957  0.2029 -0.9423
 3826THY    CA395640   6.123   4.688   3.670  0.0145 -0.1387  0.1005
 3826THY    HA395641   6.033   4.727   3.623 -0.3427  1.7911  2.2255
 3826THY    CA495642   6.239   4.655   3.592  1.0823  0.0340  0.3489
 3826THY    HA495643   6.237   4.670   3.484  0.0876  1.5226  0.5369
 3826THY    CA595644   6.357   4.621   3.657  0.8316  0.6189 -0.3149
 3826THY    CM195645   6.482   4.580   3.580  0.3728  0.0234  0.5873
 3826THY    HM195646   6.469   4.473   3.559 -1.1394  0.4025 -0.6252
 3826THY    HM295647   6.485   4.629   3.482 -0.1929 -1.7534 -0.3772
 3826THY    HM395648   6.579   4.600   3.627  1.0202 -2.3869  0.4040
 3826THY    CA695649   6.364   4.610   3.792  0.8875  0.0071 -0.2669
 3826THY    HA695650   6.460   4.607   3.842  1.0539  0.5574 -0.5428
 3827THY      O95651   0.347   5.067   7.291 -0.1028  0.4181  0.1530
 3827THY     HO95652   0.319   5.133   7.225 -0.9915 -2.4608 -2.5780
 3827THY    CA195653   0.394   5.134   7.402 -0.3943  0.7050  0.3811
 3827THY    CA295654   0.448   5.067   7.512 -0.2953  0.1260  0.0171
 3827THY    CP195655   0.481   4.919   7.514  0.7614  0.0362  0.0943
 3827THY    HP195656   0.424   4.870   7.435  2.9781 -0.0174 -1.5798
 3827THY    CP295657   0.629   4.907   7.473  0.5925 -0.2693 -0.1789
 3827THY    HP295658   0.641   4.941   7.370 -2.5896  2.9127  0.2680
 3827THY    HP395659   0.689   4.965   7.544  1.7376  0.2328 -1.5135
 3827THY    HP495660   0.661   4.804   7.489 -1.6838 -1.1656 -0.9917
 3827THY    CP395661   0.458   4.852   7.652  0.1188 -0.2087 -0.1226
 3827THY    HP595662   0.555   4.860   7.703 -0.1805 -0.7186  0.5399
 3827THY    HP695663   0.368   4.895   7.697  1.3412  2.4580 -0.0244
 3827THY    HP795664   0.431   4.746   7.644  0.1493 -0.1585 -1.0204
 3827THY    CA395665   0.492   5.142   7.620 -0.2581  0.1158 -0.0220
 3827THY    HA395666   0.539   5.099   7.708 -0.7279 -0.5057 -0.0699
 3827THY    CA495667   0.472   5.280   7.624 -0.1059  0.7501  0.0896
 3827THY    HA495668   0.497   5.349   7.703  0.9037  1.3945 -0.7623
 3827THY    CA595669   0.409   5.337   7.517 -0.4549 -0.2883  0.7793
 3827THY    CM195670   0.384   5.484   7.506 -0.6536  0.4459  0.4385
 3827THY    HM195671   0.297   5.511   7.567 -0.9847 -0.0784  0.2087
 3827THY    HM295672   0.465   5.543   7.551  0.3571 -2.5141  2.8753
 3827THY    HM395673   0.352   5.516   7.406  1.2462 -0.7279 -0.5971
 3827THY    CA695674   0.367   5.266   7.406  0.7860  0.7025  0.2931
 3827THY    HA695675   0.330   5.304   7.312 -1.4192 -0.4390  0.6313
 3828THY      O95676   3.614   5.138   0.437  0.0601 -0.2073  0.4223
 3828THY     HO95677   3.683   5.157   0.503  0.3448 -2.6294  0.9042
 3828THY    CA195678   3.510   5.092   0.503  0.7775  0.3973  0.6192
 3828THY    CA295679   3.385   5.062   0.437 -0.5047  0.1512 -0.3675
 3828THY    CP195680   3.378   5.078   0.283 -0.4357  0.0034 -0.1970
 3828THY    HP195681   3.480   5.067   0.245 -0.1810  0.2759  0.3958
 3828THY    CP295682   3.295   4.974   0.215  0.3608  0.6735 -0.3857
 3828THY    HP295683   3.288   4.881   0.273  0.1371 -0.0176 -1.4853
 3828THY    HP395684   3.188   4.998   0.210  0.0655 -0.7343 -2.5069
 3828THY    HP495685   3.330   4.956   0.113  1.8387  0.4399  0.1310
 3828THY    CP395686   3.337   5.218   0.245  0.1170 -0.6994 -0.1290
 3828THY    HP595687   3.239   5.226   0.293  1.1496 -2.5992  2.5360
 3828THY    HP695688   3.409   5.292   0.281  0.7739 -1.2762 -0.2385
 3828THY    HP795689   3.316   5.234   0.139  1.8546  3.4496 -0.0228
 3828THY    CA395690   3.273   5.019   0.509 -0.4711  0.2841 -0.0910
 3828THY    HA395691   3.185   4.978   0.460 -0.8411  1.5309 -0.5067
 3828THY    CA495692   3.284   5.009   0.647  0.1185  0.3978  0.0207
 3828THY    HA495693   3.191   4.975   0.692 -1.5714 -0.0750 -3.5058
 3828THY    CA595694   3.408   5.035   0.718 -0.2542  0.0847  0.2372
 3828THY    CM195695   3.407   5.022   0.867  0.5097  0.1911  0.0408
 3828THY    HM195696   3.382   5.122   0.904  1.9933  0.3027  0.8306
 3828THY    HM295697   3.333   4.950   0.902 -1.0304  1.5597 -0.2910
 3828THY    HM395698   3.509   4.996   0.900  0.2606  0.2207  0.8608
 3828THY    CA695699   3.519   5.084   0.641  0.0582 -0.3250 -0.6342
 3828THY    HA695700   3.614   5.095   0.694 -1.1230 -1.4071  1.8750
 3829THY      O95701   5.770   5.488   2.907  0.3852 -0.0929 -0.7588
 3829THY     HO95702   5.817   5.564   2.868 -1.3688  1.7768  0.5646
 3829THY    CA195703   5.773   5.515   3.037  0.4212  0.1522 -0.4942
 3829THY    CA295704   5.769   5.420   3.148 -0.2170 -0.0024  0.3535
 3829THY    CP195705   5.769   5.267   3.108  0.1606  0.0758  0.3569
 3829THY    HP195706   5.695   5.256   3.029  0.6026  0.9000 -0.1798
 3829THY    CP295707   5.909   5.223   3.062 -0.2507 -0.3408 -0.0316
 3829THY    HP295708   5.955   5.286   2.985 -0.7339 -2.3120 -2.0251
 3829THY    HP395709   5.973   5.234   3.150  1.2815  2.3292 -1.3394
 3829THY    HP495710   5.899   5.124   3.017 -1.1152  0.4320 -1.6618
 3829THY    CP395711   5.729   5.175   3.217 -0.2793 -0.3895 -0.2238
 3829THY    HP595712   5.715   5.075   3.176 -3.1006 -1.3113  2.5761
 3829THY    HP695713   5.800   5.155   3.298 -0.1406  0.8609 -0.0051
 3829THY    HP795714   5.628   5.204   3.251 -0.1092  1.4773 -1.1959
 3829THY    CA395715   5.777   5.461   3.281 -0.1102  0.3098 -0.1092
 3829THY    HA395716   5.784   5.392   3.365  2.3043  0.9499  0.3043
 3829THY    CA495717   5.794   5.602   3.304  0.7776 -0.4685 -0.1987
 3829THY    HA495718   5.800   5.640   3.405 -1.8817 -0.1402 -0.0704
 3829THY    CA595719   5.791   5.695   3.199 -0.3620 -0.3652 -0.2412
 3829THY    CM195720   5.785   5.840   3.239  0.1367 -0.1028  0.0075
 3829THY    HM195721   5.868   5.899   3.199 -0.3533 -0.4162 -1.5463
 3829THY    HM295722   5.694   5.879   3.192 -1.0118 -3.4152 -0.7874
 3829THY    HM395723   5.764   5.858   3.345 -0.3322  1.9731 -0.3995
 3829THY    CA695724   5.784   5.654   3.065  0.6604 -0.7831  0.1993
 3829THY    HA695725   5.795   5.731   2.989 -0.3330 -1.5636 -0.7661
 3830THY      O95726   0.344   2.934   6.554  0.0097  0.0152  0.6732
 3830THY     HO95727   0.411   2.884   6.506  2.3151  1.3488  2.2711
 3830THY    CA195728   0.409   3.051   6.574  0.4985  0.7419 -0.1591
 3830THY    CA295729   0.377   3.140   6.683  0.6316  0.4521  0.0759
 3830THY    CP195730   0.264   3.116   6.777 -0.3743 -0.0323 -0.6880
 3830THY    HP195731   0.238   3.010   6.767 -2.0564  0.4118 -1.3855
 3830THY    CP295732   0.303   3.129   6.924  0.1134 -0.4791  0.3434
 3830THY    HP295733   0.227   3.081   6.988  0.3789 -0.3103  0.7930
 3830THY    HP395734   0.399   3.079   6.942 -0.4113 -1.3614  0.7397
 3830THY    HP495735   0.298   3.230   6.965 -2.6433  0.0691 -1.1012
 3830THY    CP395736   0.140   3.201   6.758 -0.2122 -0.3614  1.2801
 3830THY    HP595737   0.171   3.306   6.761 -1.2670 -0.0196  0.6526
 3830THY    HP695738   0.098   3.173   6.661 -1.1170  0.1587  1.5164
 3830THY    HP795739   0.067   3.183   6.838  0.2903  0.0984  1.8565
 3830THY    CA395740   0.464   3.247   6.705 -0.3100  0.2899  0.2955
 3830THY    HA395741   0.453   3.317   6.788 -0.9371  2.7914 -1.7828
 3830THY    CA495742   0.580   3.266   6.623  0.2138 -0.1980 -0.5852
 3830THY    HA495743   0.654   3.337   6.659 -1.1866  1.2716 -0.4905
 3830THY    CA595744   0.615   3.173   6.527  0.7199  0.6168 -0.2448
 3830THY    CM195745   0.741   3.188   6.453  1.3191 -0.2483  0.0770
 3830THY    HM195746   0.793   3.275   6.496  0.9826 -1.1780  2.5092
 3830THY    HM295747   0.794   3.092   6.458  1.7862 -0.0326 -0.5208
 3830THY    HM395748   0.716   3.216   6.350  1.2890  0.2680  0.2220
 3830THY    CA695749   0.531   3.064   6.507  0.8387  0.3925  0.3129
 3830THY    HA695750   0.549   2.999   6.421  0.7198  1.9752 -0.9457
 3831THY      O95751   4.612   5.928   9.363  0.3167 -0.2935  0.3033
 3831THY     HO95752   4.614   5.966   9.453  0.4307  1.2178 -0.3151
 3831THY    CA195753   4.662   5.808   9.372 -0.0678  0.2588 -0.2698
 3831THY    CA295754   4.634   5.707   9.279  0.2087  0.1513  0.4559
 3831THY    CP195755   4.533   5.729   9.157 -0.0365 -0.5167  0.2705
 3831THY    HP195756   4.495   5.830   9.173 -1.7679 -0.8992 -1.1295
 3831THY    CP295757   4.616   5.733   9.019 -0.2163  0.4107 -0.2457
 3831THY    HP295758   4.540   5.729   8.940  0.2181  1.4125 -0.7317
 3831THY    HP395759   4.689   5.814   9.007  1.8930 -1.6421 -2.5266
 3831THY    HP495760   4.671   5.640   8.998 -1.5661 -1.0362  2.1053
 3831THY    CP395761   4.413   5.633   9.154  0.3980  0.6395  0.4915
 3831THY    HP595762   4.422   5.557   9.075  0.6646 -1.5646  2.5048
 3831THY    HP695763   4.403   5.581   9.250  0.6547 -1.5497 -0.6094
 3831THY    HP795764   4.325   5.693   9.130  1.0327  0.8157 -1.5887
 3831THY    CA395765   4.694   5.580   9.292  0.0188  0.0274  0.3700
 3831THY    HA395766   4.676   5.493   9.231 -1.0110 -1.8972  3.1954
 3831THY    CA495767   4.777   5.561   9.402 -0.2900  0.0262  0.1937
 3831THY    HA495768   4.820   5.462   9.413  1.3620  0.9469  2.7309
 3831THY    CA595769   4.816   5.659   9.486 -0.4443 -0.4180  0.1423
 3831THY    CM195770   4.926   5.638   9.577 -0.9078  0.1812  0.1740
 3831THY    HM195771   5.015   5.687   9.537 -0.3274 -0.7800  0.2397
 3831THY    HM295772   4.896   5.694   9.667 -0.8125 -0.6064  0.7067
 3831THY    HM395773   4.955   5.536   9.604 -0.5316  0.8619  2.6122
 3831THY    CA695774   4.753   5.782   9.474 -0.5486 -0.4472 -0.1271
 3831THY    HA695775   4.793   5.848   9.550  2.6852 -1.6501 -0.6208
 3832THY      O95776   9.656   6.883   1.134  0.5419 -0.2299 -0.0291
 3832THY     HO95777   9.701   6.967   1.152  0.0260  0.2533 -0.8640
 3832THY    CA195778   9.741   6.824   1.045  0.0120  0.5157  0.5633
 3832THY    CA295779   9.804   6.700   1.068  0.0296 -0.6406 -0.5491
 3832THY    CP195780   9.773   6.628   1.198  0.6152  0.5510 -0.4298
 3832THY    HP195781   9.676   6.658   1.238  0.9633  1.1762 -0.0425
 3832THY    CP295782   9.764   6.473   1.182  0.2574  0.2575  0.1136
 3832THY    HP295783   9.726   6.412   1.265 -1.8793  2.1238  0.6267
 3832THY    HP395784   9.704   6.432   1.099  0.5210 -0.8532  0.4565
 3832THY    HP495785   9.863   6.436   1.153 -0.2863 -3.9915  2.7917
 3832THY    CP395786   9.876   6.659   1.307 -0.3560  0.5505 -0.5816
 3832THY    HP595787   9.850   6.615   1.405 -0.9406 -0.6546 -1.2577
 3832THY    HP695788   9.972   6.615   1.278  1.5333  2.3568  2.3651
 3832THY    HP795789   9.874   6.768   1.311  0.2496  0.5411  1.2311
 3832THY    CA395790   9.894   6.655   0.961 -0.4345 -0.3046  0.1041
 3832THY    HA395791   9.942   6.557   0.961 -0.5991 -0.3883  0.5455
 3832THY    CA495792   9.910   6.731   0.851  0.2197  0.9725  0.6463
 3832THY    HA495793   9.973   6.700   0.768 -0.4333  0.6657  0.2506
 3832THY    CA595794   9.860   6.860   0.834  0.2416  0.9787 -0.5788
 3832THY    CM195795   9.888   6.945   0.713 -0.2507 -0.6645  0.5768
 3832THY    HM195796   9.960   7.023   0.742 -0.5076  0.1162 -0.7987
 3832THY    HM295797   9.935   6.892   0.629  1.1919  1.0328  0.2616
 3832THY    HM395798   9.794   6.985   0.674 -0.4398 -0.8271  0.8617
 3832THY    CA695799   9.776   6.906   0.934  0.1826  0.0558  0.5940
 3832THY    HA695800   9.731   7.004   0.920  1.6076  0.4186 -2.1664
 3833THY      O95801   5.380   6.588   7.387 -0.2016 -0.1886 -0.1185
 3833THY     HO95802   5.309   6.613   7.448  0.4298  0.3641  0.4111
 3833THY    CA195803   5.332   6.492   7.311 -0.2147 -0.3796 -0.6499
 3833THY    CA295804   5.401   6.438   7.206  0.6727 -0.3340  0.7592
 3833THY    CP195805   5.542   6.479   7.174 -0.1950 -0.6567 -0.4418
 3833THY    HP195806   5.570   6.563   7.237  1.3102 -0.5276 -1.2227
 3833THY    CP295807   5.650   6.373   7.211 -0.4337  0.5953  0.5331
 3833THY    HP295808   5.744   6.420   7.181  0.6975 -0.8349  1.7080
 3833THY    HP395809   5.647   6.358   7.319  0.2671  1.0943  0.6324
 3833THY    HP495810   5.636   6.285   7.148  1.0088  1.6850 -1.4251
 3833THY    CP395811   5.550   6.536   7.030  0.4884 -0.7250 -0.1161
 3833THY    HP595812   5.597   6.635   7.038 -2.3539  0.7973 -0.7608
 3833THY    HP695813   5.596   6.469   6.957 -1.4730 -0.8697 -1.2816
 3833THY    HP795814   5.448   6.556   6.996 -0.4566  2.2835  3.7197
 3833THY    CA395815   5.339   6.353   7.107 -1.1888  0.1105  0.2708
 3833THY    HA395816   5.397   6.317   7.023  1.6160  0.0830  2.0686
 3833THY    CA495817   5.208   6.323   7.126  0.3658 -0.0418  0.1114
 3833THY    HA495818   5.160   6.258   7.053  0.4572 -0.6072  0.5503
 3833THY    CA595819   5.138   6.376   7.237  0.4287 -0.2660  0.4777
 3833THY    CM195820   4.989   6.355   7.257 -0.0263 -0.5828  0.2274
 3833THY    HM195821   4.983   6.270   7.325  0.7609 -0.8822 -0.0724
 3833THY    HM295822   4.936   6.442   7.298 -0.0438  0.1041 -1.1764
 3833THY    HM395823   4.935   6.325   7.166 -2.0799 -0.1371  1.2371
 3833THY    CA695824   5.199   6.460   7.332 -0.7666  0.5304 -0.0860
 3833THY    HA695825   5.139   6.503   7.412  1.6487 -0.7005  2.5692
 3834THY      O95826   9.896   2.168   3.925 -0.0158  0.2520  0.2604
 3834THY     HO95827   9.948   2.212   3.855  1.6911 -0.4724  1.0327
 3834THY    CA195828   9.762   2.185   3.897  0.4757 -1.4540  0.3970
 3834THY    CA295829   9.664   2.081   3.911 -0.1907 -0.7972  0.8688
 3834THY    CP195830   9.695   1.948   3.971  0.5352 -0.1231  0.2307
 3834THY    HP195831   9.790   1.949   4.027 -1.0539  0.6900  3.1186
 3834THY    CP295832   9.591   1.908   4.081 -0.8421 -0.1887  0.6403
 3834THY    HP295833   9.562   1.997   4.139 -0.4094  0.8508 -0.6771
 3834THY    HP395834   9.501   1.862   4.038  0.6774 -2.0448 -0.6721
 3834THY    HP495835   9.629   1.825   4.142 -0.3977 -0.5943 -0.1792
 3834THY    CP395836   9.702   1.837   3.858  0.3404  0.1838 -0.1300
 3834THY    HP595837   9.784   1.858   3.788  0.0293 -0.6999 -0.7570
 3834THY    HP695838   9.725   1.745   3.913  1.9551  0.8792  0.4257
 3834THY    HP795839   9.605   1.836   3.808  1.0981  0.4109 -1.6729
 3834THY    CA395840   9.536   2.099   3.858 -0.3252 -0.3712  0.4832
 3834THY    HA395841   9.464   2.019   3.868 -2.5337  1.4598  0.2807
 3834THY    CA495842   9.508   2.221   3.794  0.6253 -0.3676 -0.2407
 3834THY    HA495843   9.410   2.237   3.749  0.3685  1.5767  0.8860
 3834THY    CA595844   9.602   2.329   3.787  0.8826 -0.2498  0.6966
 3834THY    CM195845   9.566   2.461   3.724 -0.0439 -0.3383  0.1281
 3834THY    HM195846   9.556   2.527   3.811 -2.6222 -1.2637  0.6173
 3834THY    HM295847   9.636   2.491   3.646 -2.1740  2.2126 -0.9741
 3834THY    HM395848   9.468   2.457   3.675  0.6154 -0.5235 -1.2211
 3834THY    CA695849   9.730   2.305   3.835  0.6364  0.2628 -0.5055
 3834THY    HA695850   9.812   2.374   3.818  1.7493 -0.3763  1.8939
 3835THY      O95851   9.774   5.885   8.876 -0.1954  0.3046  0.2525
 3835THY     HO95852   9.870   5.900   8.867 -0.2832  0.3920 -0.5529
 3835THY    CA195853   9.752   5.802   8.986  0.1469  0.3796  0.0977
 3835THY    CA295854   9.632   5.727   8.998 -0.1189  0.0995  0.2466
 3835THY    CP195855   9.530   5.731   8.890 -0.2911  0.0702  0.5395
 3835THY    HP195856   9.565   5.771   8.794 -2.6305  1.4468  0.1740
 3835THY    CP295857   9.490   5.579   8.854  0.1531 -0.7417  0.2134
 3835THY    HP295858   9.446   5.570   8.754 -0.6711  0.3380  0.4664
 3835THY    HP395859   9.575   5.509   8.856 -0.5459 -1.6742 -1.2229
 3835THY    HP495860   9.417   5.548   8.930 -1.0024  2.1396  0.3961
 3835THY    CP395861   9.407   5.821   8.917  0.3796 -0.6069 -0.5799
 3835THY    HP595862   9.332   5.777   8.984  1.6563 -0.5623  0.9431
 3835THY    HP695863   9.430   5.918   8.963  2.1929 -0.3800 -1.8795
 3835THY    HP795864   9.358   5.828   8.819  2.6610 -1.3622 -1.8637
 3835THY    CA395865   9.608   5.655   9.113 -0.3953  0.6456 -0.1573
 3835THY    HA395866   9.518   5.595   9.120  1.1804 -1.8538 -0.2254
 3835THY    CA495867   9.709   5.643   9.208 -0.2060  0.0880  0.2740
 3835THY    HA495868   9.690   5.574   9.289  2.4025 -0.3340  0.6214
 3835THY    CA595869   9.841   5.695   9.189 -0.8415  0.3406 -0.5421
 3835THY    CM195870   9.956   5.654   9.278 -0.5650 -0.2609 -0.4244
 3835THY    HM195871  10.048   5.625   9.226  0.5753 -0.1653  1.4802
 3835THY    HM295872   9.991   5.748   9.321  1.1252 -0.9801 -0.1670
 3835THY    HM395873   9.931   5.585   9.359 -1.8050  1.4158  0.6914
 3835THY    CA695874   9.858   5.782   9.081  0.3559  0.0323  0.6469
 3835THY    HA695875   9.946   5.845   9.078  0.7806 -0.4965  1.5487
 3836THY      O95876   0.043   2.368   0.070  0.1580 -0.2011  0.3421
 3836THY     HO95877  -0.046   2.331   0.077  0.3006 -0.9254 -1.2755
 3836THY    CA195878   0.129   2.285   0.144  1.3618 -0.7565  0.2725
 3836THY    CA295879   0.161   2.325   0.268  0.2185  0.5612  0.3084
 3836THY    CP195880   0.099   2.446   0.335 -0.3931  0.4493 -0.4044
 3836THY    HP195881   0.055   2.515   0.262 -0.6376  0.4268 -0.2832
 3836THY    CP295882  -0.022   2.403   0.410  0.0872 -0.1961 -0.0972
 3836THY    HP295883  -0.086   2.363   0.330  0.7598 -0.2210 -0.6296
 3836THY    HP395884   0.005   2.326   0.483  1.1314 -0.2693 -0.5419
 3836THY    HP495885  -0.080   2.473   0.471  1.2061  0.3354  0.3712
 3836THY    CP395886   0.208   2.525   0.410  0.4743 -0.0792 -0.1383
 3836THY    HP595887   0.213   2.495   0.515 -2.2916  1.3044  0.4905
 3836THY    HP695888   0.301   2.515   0.354 -0.6683  1.1308 -2.4072
 3836THY    HP795889   0.178   2.630   0.412  0.2471 -0.1595  1.3336
 3836THY    CA395890   0.257   2.242   0.338 -0.0575  0.1632 -0.5704
 3836THY    HA395891   0.302   2.272   0.432 -0.9778 -2.5831  0.8775
 3836THY    CA495892   0.298   2.122   0.285 -0.0380 -1.4263 -0.7443
 3836THY    HA495893   0.377   2.070   0.337 -1.8348 -2.4984  1.0280
 3836THY    CA595894   0.262   2.093   0.160  0.4352  0.2617  0.3938
 3836THY    CM195895   0.310   1.963   0.100  0.1106 -0.1608 -0.6498
 3836THY    HM195896   0.390   1.915   0.158  0.1944  0.9356  0.1604
 3836THY    HM295897   0.229   1.889   0.091 -2.2589  2.0015  1.3922
 3836THY    HM395898   0.348   1.964  -0.003 -1.3247 -1.3618 -1.2269
 3836THY    CA695899   0.180   2.176   0.084  0.5259  0.5550  0.0013
 3836THY    HA695900   0.146   2.145  -0.014 -1.8108  0.9998  0.6197
 3837THY      O95901   2.135   1.121   6.304  0.0390  0.1883  0.6539
 3837THY     HO95902   2.231   1.117   6.287  0.0200 -2.9243  0.7524
 3837THY    CA195903   2.072   1.077   6.196  0.2392 -0.0629 -0.0849
 3837THY    CA295904   1.940   1.128   6.161  0.4474  0.5926  0.3440
 3837THY    CP195905   1.859   1.220   6.249 -0.8468 -0.1802  0.9430
 3837THY    HP195906   1.907   1.241   6.346 -0.5864 -1.3608  1.0773
 3837THY    CP295907   1.838   1.355   6.180 -0.5892  0.1957 -0.2181
 3837THY    HP295908   1.926   1.414   6.154 -1.0206  0.5679 -0.8946
 3837THY    HP395909   1.775   1.350   6.090 -2.2575  1.8684  0.7787
 3837THY    HP495910   1.786   1.414   6.257 -0.1192 -1.3058  1.2864
 3837THY    CP395911   1.721   1.162   6.279 -0.1466 -0.3320  0.3101
 3837THY    HP595912   1.650   1.156   6.196 -0.6029  0.9576  0.5916
 3837THY    HP695913   1.733   1.059   6.316  0.4969  0.1449  1.4739
 3837THY    HP795914   1.674   1.228   6.353  0.2559 -0.2976  0.5368
 3837THY    CA395915   1.878   1.063   6.050 -0.5494  0.3863 -0.1257
 3837THY    HA395916   1.780   1.087   6.009 -0.2905 -1.2017 -1.8191
 3837THY    CA495917   1.945   0.962   5.975  0.0672 -0.1164 -0.4164
 3837THY    HA495918   1.898   0.910   5.893 -0.1381  0.8917 -0.9547
 3837THY    CA595919   2.076   0.919   6.017  0.2075 -0.8648  0.8177
 3837THY    CM195920   2.143   0.812   5.946 -0.3027 -0.4150 -0.2301
 3837THY    HM195921   2.071   0.735   5.914  1.3925 -1.1788 -2.4189
 3837THY    HM295922   2.181   0.848   5.850  0.0962  2.6518  0.9898
 3837THY    HM395923   2.223   0.771   6.008 -1.1005 -0.8342  0.5496
 3837THY    CA695924   2.133   0.980   6.128 -0.7452  0.3797 -1.0129
 3837THY    HA695925   2.227   0.941   6.166 -0.2070  0.9027 -1.8068
 3838THY      O95926   6.040   0.717   7.515  0.3859  0.5828 -0.0196
 3838THY     HO95927   6.130   0.736   7.546  0.5926  1.4887 -1.0847
 3838THY    CA195928   6.017   0.594   7.567  0.1406  1.2560 -0.1121
 3838THY    CA295929   5.889   0.545   7.597  0.3374  0.8340 -0.2774
 3838THY    CP195930   5.781   0.651   7.610 -0.4422 -0.0214  0.4173
 3838THY    HP195931   5.839   0.738   7.646 -0.5756  0.6313 -0.8891
 3838THY    CP295932   5.716   0.689   7.474  0.2850  0.5547  0.3469
 3838THY    HP295933   5.625   0.750   7.473  0.9319  1.5594 -0.7633
 3838THY    HP395934   5.790   0.726   7.403  0.6518  0.4539  0.6731
 3838THY    HP495935   5.683   0.593   7.434 -1.3987  0.4440  1.8467
 3838THY    CP395936   5.673   0.617   7.715  0.3218  0.0889  0.3154
 3838THY    HP595937   5.591   0.562   7.667  1.7481  0.7052 -3.1043
 3838THY    HP695938   5.728   0.574   7.800  0.4883 -0.6690 -0.1697
 3838THY    HP795939   5.619   0.709   7.739 -0.2808  0.2635 -1.5564
 3838THY    CA395940   5.879   0.411   7.642  0.3246 -0.5020 -0.1518
 3838THY    HA395941   5.779   0.379   7.669 -1.3301  2.6531 -1.9877
 3838THY    CA495942   5.994   0.324   7.654  0.1957  0.3563  0.2919
 3838THY    HA495943   5.983   0.223   7.692 -2.6316  0.2807 -0.5121
 3838THY    CA595944   6.117   0.383   7.620 -0.1257  0.1933  0.4721
 3838THY    CM195945   6.245   0.303   7.617 -0.2269  0.1569  0.4500
 3838THY    HM195946   6.215   0.201   7.645 -1.5339 -0.5317 -2.9640
 3838THY    HM295947   6.291   0.307   7.518  0.4230  0.3212  0.7517
 3838THY    HM395948   6.329   0.333   7.681  0.2063 -1.4214  0.6877
 3838THY    CA695949   6.127   0.512   7.578  0.3885 -0.6293  0.0036
 3838THY    HA695950   6.218   0.549   7.531 -1.2102  3.7094 -0.0653
 3839THY      O95951   6.405   9.453   6.140 -1.0191  0.0326 -0.6064
 3839THY     HO95952   6.433   9.488   6.053  2.8206  1.8531  1.1177
 3839THY    CA195953   6.418   9.554   6.217 -0.0905 -0.8295  0.4448
 3839THY    CA295954   6.357   9.558   6.343  0.7457 -0.5472  0.0830
 3839THY    CP195955   6.246   9.464   6.376  0.5223 -0.5879  0.2074
 3839THY    HP195956   6.230   9.395   6.292  0.0843  0.7289 -0.8195
 3839THY    CP295957   6.279   9.378   6.485 -0.4545 -0.2258 -0.5000
 3839THY    HP295958   6.332   9.429   6.568 -1.3612 -2.1757  1.3672
 3839THY    HP395959   6.185   9.339   6.524 -0.2329  0.2717  0.5997
 3839THY    HP495960   6.337   9.290   6.455 -0.5343 -0.9371  1.2680
 3839THY    CP395961   6.118   9.543   6.394 -0.0298 -0.4897  0.4024
 3839THY    HP595962   6.131   9.611   6.479 -0.8388  0.2028 -0.0131
 3839THY    HP695963   6.094   9.614   6.314  1.5373 -2.1072 -1.5894
 3839THY    HP795964   6.035   9.472   6.410  1.2889 -3.1118 -3.0708
 3839THY    CA395965   6.391   9.657   6.434 -0.0084 -0.2196 -0.0782
 3839THY    HA395966   6.365   9.660   6.540  0.9577 -0.1704  0.1614
 3839THY    CA495967   6.482   9.761   6.391  0.0073 -0.0016 -0.4951
 3839THY    HA495968   6.511   9.839   6.461  1.4132 -1.6120  0.8020
 3839THY    CA595969   6.552   9.747   6.272  1.0435  0.2111  1.0480
 3839THY    CM195970   6.661   9.842   6.231 -0.7137  0.6245  0.1967
 3839THY    HM195971   6.619   9.936   6.193 -0.2800  0.6703 -0.1747
 3839THY    HM295972   6.731   9.849   6.315  1.5383 -2.3095 -1.2523
 3839THY    HM395973   6.716   9.796   6.148  0.7858  1.5450  0.6327
 3839THY    CA695974   6.514   9.645   6.187 -0.3849  0.5371 -0.1313
 3839THY    HA695975   6.564   9.628   6.092  0.1433 -0.0817  0.2532
 3840THY      O95976   0.317   6.151   5.945 -0.2737  0.2929  0.2518
 3840THY     HO95977   0.373   6.173   5.869 -0.5906  0.3391  0.0290
 3840THY    CA195978   0.213   6.090   5.889  0.1867  0.3242 -0.0049
 3840THY    CA295979   0.091   6.071   5.957  0.5397  0.4388 -0.4076
 3840THY    CP195980   0.090   6.090   6.111 -0.4526  0.1966  0.3707
 3840THY    HP195981   0.167   6.158   6.147  0.0927 -0.9287  1.3928
 3840THY    CP295982  -0.036   6.144   6.174 -0.0992 -0.2231  0.3716
 3840THY    HP295983  -0.018   6.139   6.282 -0.1683 -0.1550  0.3856
 3840THY    HP395984  -0.062   6.248   6.153 -1.6811 -0.4950  0.8635
 3840THY    HP495985  -0.133   6.100   6.149 -1.3511  1.0573  2.6373
 3840THY    CP395986   0.121   5.963   6.185 -0.5512  0.4440 -0.3700
 3840THY    HP595987   0.201   5.906   6.136 -0.1804  1.3147 -0.7996
 3840THY    HP695988   0.150   5.982   6.289  0.1952 -0.2419 -0.4394
 3840THY    HP795989   0.027   5.907   6.179 -1.5353  1.9394  0.4146
 3840THY    CA395990  -0.017   6.009   5.887  0.4860 -0.5941 -0.1569
 3840THY    HA395991  -0.108   5.978   5.938  0.3941 -2.0529 -1.1408
 3840THY    CA495992  -0.008   5.991   5.755  0.6021 -0.3478  0.4382
 3840THY    HA495993  -0.081   5.939   5.694  0.2452  1.1304 -0.4371
 3840THY    CA595994   0.114   6.021   5.687  0.6749 -0.4527  0.1588
 3840THY    CM195995   0.127   6.001   5.540 -0.4860  0.3588  0.4223
 3840THY    HM195996   0.225   5.978   5.497 -1.2315  0.3609 -1.3691
 3840THY    HM295997   0.055   5.926   5.506  1.6673 -1.2799 -0.7542
 3840THY    HM395998   0.104   6.099   5.497  2.3417  1.3921  0.9974
 3840THY    CA695999   0.217   6.078   5.753 -0.4597  0.4562  0.4882
 3840THY    HA696000   0.296   6.125   5.696  1.0703 -1.2523  1.1124
 3841THY      O96001   5.903   7.178   7.942  0.6876 -0.4081  0.3276
 3841THY     HO96002   5.987   7.218   7.973 -0.2663  1.4671  0.6293
 3841THY    CA196003   5.866   7.257   7.836 -0.0071  0.5189 -0.7128
 3841THY    CA296004   5.729   7.288   7.793  0.3251 -0.1769 -0.1986
 3841THY    CP196005   5.609   7.212   7.859  0.1386 -0.1238 -0.4617
 3841THY    HP196006   5.629   7.207   7.967  1.6336  0.8983 -0.6583
 3841THY    CP296007   5.477   7.291   7.848 -0.3700  0.0031 -0.0216
 3841THY    HP296008   5.477   7.384   7.906  2.1294  1.3461 -1.9520
 3841THY    HP396009   5.445   7.325   7.748 -1.1935  0.9459  0.5398
 3841THY    HP496010   5.389   7.233   7.878 -1.6168  1.8467  0.0778
 3841THY    CP396011   5.597   7.069   7.791 -0.7677 -0.5879  0.1238
 3841THY    HP596012   5.492   7.049   7.766 -0.5425 -0.0353 -1.3909
 3841THY    HP696013   5.649   7.051   7.696 -0.6273 -0.7648  0.2356
 3841THY    HP796014   5.633   6.992   7.860 -0.8236 -1.0517 -0.3584
 3841THY    CA396015   5.706   7.374   7.686  0.0199 -0.3638 -0.4486
 3841THY    HA396016   5.609   7.411   7.652 -0.4434  0.3923  1.5336
 3841THY    CA496017   5.813   7.432   7.624 -0.4541 -0.6956 -0.0324
 3841THY    HA496018   5.806   7.515   7.555 -0.3893  1.1164  2.0534
 3841THY    CA596019   5.941   7.407   7.664 -0.3785  0.2954  0.5057
 3841THY    CM196020   6.064   7.465   7.593  0.1117 -0.3093  0.1390
 3841THY    HM196021   6.128   7.385   7.553 -0.3385 -0.8042  0.3871
 3841THY    HM296022   6.029   7.519   7.504  1.4651  1.3993  0.6003
 3841THY    HM396023   6.111   7.547   7.648  0.7933  1.5541 -2.9916
 3841THY    CA696024   5.971   7.325   7.777  0.6287 -0.0189  0.5354
 3841THY    HA696025   6.075   7.313   7.805  0.7849 -0.1926 -0.0934
 3842THY      O96026   9.612   7.238   0.133  0.1146  0.1554 -0.1290
 3842THY     HO96027   9.663   7.172   0.082 -2.1032 -1.2785 -0.6072
 3842THY    CA196028   9.666   7.267   0.246 -0.4777 -0.1984  0.4056
 3842THY    CA296029   9.602   7.360   0.335 -0.1546  0.6724  0.3333
 3842THY    CP196030   9.473   7.431   0.290  0.3369 -0.4276 -0.1200
 3842THY    HP196031   9.407   7.371   0.225 -1.7431  0.7284  0.8186
 3842THY    CP296032   9.366   7.445   0.402  0.2985 -0.5941 -0.1217
 3842THY    HP296033   9.272   7.467   0.352 -0.2788  1.1612  1.6121
 3842THY    HP396034   9.344   7.353   0.458 -0.0391 -0.9946 -0.9010
 3842THY    HP496035   9.393   7.534   0.461  1.5186 -2.0324  1.6122
 3842THY    CP396036   9.502   7.567   0.225  0.2654  0.0472  0.7514
 3842THY    HP596037   9.565   7.563   0.135 -1.5530  2.7361 -0.7988
 3842THY    HP696038   9.406   7.604   0.187  0.2489 -1.7841 -1.1852
 3842THY    HP796039   9.546   7.639   0.294  1.8072  2.2840 -2.2938
 3842THY    CA396040   9.668   7.403   0.447  0.5300 -0.5619  0.2068
 3842THY    HA396041   9.618   7.475   0.512  0.6058 -0.0778 -0.2630
 3842THY    CA496042   9.791   7.350   0.474  0.1544  0.4218  0.3575
 3842THY    HA496043   9.841   7.375   0.567  1.1750  1.7366 -0.5000
 3842THY    CA596044   9.852   7.257   0.384  0.3439  0.3380 -0.2382
 3842THY    CM196045   9.986   7.209   0.409 -0.6349 -0.7267  0.2561
 3842THY    HM196046  10.022   7.165   0.316 -2.4333  0.8164 -1.2339
 3842THY    HM296047  10.054   7.291   0.434 -1.8751 -0.2678  2.3614
 3842THY    HM396048   9.991   7.139   0.494  1.1086  0.3706  1.1295
 3842THY    CA696049   9.786   7.207   0.272  0.7084 -0.5328  0.6041
 3842THY    HA696050   9.833   7.143   0.198 -0.0046 -1.0364  0.5789
 3843THY      O96051   3.272   6.355   7.248 -0.7353 -0.5554  0.0705
 3843THY     HO96052   3.281   6.411   7.170 -1.7734 -0.9885 -0.3766
 3843THY    CA196053   3.392   6.283   7.261 -0.0682  0.5870  0.7874
 3843THY    CA296054   3.415   6.180   7.354 -0.0944 -0.3182  0.2530
 3843THY    CP196055   3.307   6.149   7.455 -0.6324  0.3133  0.5535
 3843THY    HP196056   3.206   6.162   7.415 -1.0533  0.3383  1.5958
 3843THY    CP296057   3.308   5.998   7.493 -0.2709  0.3698 -0.4558
 3843THY    HP296058   3.222   5.974   7.557 -0.4069 -0.2514 -0.8706
 3843THY    HP396059   3.310   5.927   7.409  0.3465  0.1647 -0.2712
 3843THY    HP496060   3.392   5.979   7.560 -1.0445  1.1397  0.7697
 3843THY    CP396061   3.326   6.239   7.570  0.5110  0.6654  0.4728
 3843THY    HP596062   3.432   6.250   7.596  0.4848 -1.2367  1.5684
 3843THY    HP696063   3.293   6.333   7.525  0.3538 -0.0309 -0.9401
 3843THY    HP796064   3.251   6.205   7.643 -2.6674  1.0346 -2.3762
 3843THY    CA396065   3.538   6.113   7.355  0.2446  0.0527 -0.9564
 3843THY    HA396066   3.558   6.037   7.430 -1.5215 -1.8126 -2.2664
 3843THY    CA496067   3.640   6.159   7.274 -0.0521 -0.1225  0.3618
 3843THY    HA496068   3.741   6.120   7.279 -0.0487 -0.0861  0.5714
 3843THY    CA596069   3.620   6.258   7.176 -0.0878 -0.0832 -0.5254
 3843THY    CM196070   3.739   6.283   7.081 -0.6049 -0.6233  0.0308
 3843THY    HM196071   3.703   6.343   6.997  1.0146 -1.5733 -1.4098
 3843THY    HM296072   3.825   6.323   7.136 -0.4899 -1.0665  0.1751
 3843THY    HM396073   3.773   6.187   7.041 -0.0372 -0.3204 -0.2189
 3843THY    CA696074   3.494   6.319   7.170 -0.4708 -0.5707 -0.4835
 3843THY    HA696075   3.481   6.399   7.097 -1.5261 -0.4325 -0.1612
 3844THY      O96076   3.230   6.985   2.707 -0.8196 -0.8733  0.4038
 3844THY     HO96077   3.260   6.905   2.661  0.5702 -0.7703  1.0653
 3844THY    CA196078   3.105   6.968   2.755  0.4317 -0.5389 -0.4470
 3844THY    CA296079   3.060   7.029   2.874 -0.1715  0.2668  0.9477
 3844THY    CP196080   3.148   7.125   2.946  0.0691 -0.3742  0.4809
 3844THY    HP196081   3.246   7.144   2.900  0.6248 -0.4000  1.6151
 3844THY    CP296082   3.097   7.267   2.956  0.0563 -0.4557 -0.4371
 3844THY    HP296083   3.165   7.340   3.000 -2.7864  0.3180  3.2266
 3844THY    HP396084   3.059   7.302   2.859 -2.1313  1.3583  0.9736
 3844THY    HP496085   3.004   7.273   3.015 -0.0787 -1.5083 -0.5177
 3844THY    CP396086   3.166   7.074   3.089 -0.9248  0.1926 -0.7791
 3844THY    HP596087   3.226   7.139   3.153 -0.4615 -2.8715  2.1990
 3844THY    HP696088   3.071   7.047   3.136 -1.3612  1.9550 -0.5988
 3844THY    HP796089   3.227   6.982   3.084 -0.3674  0.5518 -0.6690
 3844THY    CA396090   2.922   6.997   2.914  0.3570  0.4638 -0.3726
 3844THY    HA396091   2.885   7.064   2.991  0.3454  1.6654 -1.4013
 3844THY    CA496092   2.842   6.913   2.839  0.0349 -0.6094 -0.7085
 3844THY    HA496093   2.742   6.889   2.874  0.7005 -2.1488  0.2233
 3844THY    CA596094   2.890   6.862   2.722  0.6408  0.5084  0.2973
 3844THY    CM196095   2.802   6.772   2.636  0.4083  0.3641  0.5147
 3844THY    HM196096   2.693   6.782   2.632  0.2004 -1.7702 -0.9297
 3844THY    HM296097   2.833   6.781   2.531 -0.0981  1.8348  0.4668
 3844THY    HM396098   2.816   6.668   2.667 -0.6270 -0.2816 -1.0622
 3844THY    CA696099   3.027   6.879   2.685 -0.7025 -0.1107  0.9648
 3844THY    HA696100   3.069   6.835   2.595  1.1467  0.3432  1.5760
 3845THY      O96101   7.217   8.063   3.366  0.2516  0.2037  0.1288
 3845THY     HO96102   7.144   8.098   3.313  0.9457  1.9841  0.2748
 3845THY    CA196103   7.314   8.039   3.275 -0.2691 -0.4963 -0.2253
 3845THY    CA296104   7.440   7.995   3.316 -0.3991  0.6460  0.6050
 3845THY    CP196105   7.465   7.982   3.468 -0.4026 -0.0247 -0.3326
 3845THY    HP196106   7.433   8.075   3.516 -0.3510  0.0033 -0.3514
 3845THY    CP296107   7.397   7.862   3.526 -0.4679  0.9658  0.2694
 3845THY    HP296108   7.453   7.772   3.497 -0.8554  0.7817  0.0898
 3845THY    HP396109   7.407   7.875   3.635 -1.0071  0.0051  0.4476
 3845THY    HP496110   7.292   7.847   3.500 -0.2356  0.3815 -0.3423
 3845THY    CP396111   7.611   7.984   3.518  0.2574 -0.6263  0.2603
 3845THY    HP596112   7.669   7.910   3.462  1.5081  0.1546  0.4757
 3845THY    HP696113   7.656   8.082   3.494  2.1113 -1.7881 -1.2694
 3845THY    HP796114   7.628   7.957   3.623  1.9871  2.6213  0.9455
 3845THY    CA396115   7.526   7.940   3.220 -0.1488  0.2986 -0.0309
 3845THY    HA396116   7.622   7.900   3.249  0.6367  0.7656 -1.8477
 3845THY    CA496117   7.488   7.949   3.087 -0.1287  0.0173  0.4005
 3845THY    HA496118   7.558   7.915   3.011 -0.9365  2.3586 -1.5480
 3845THY    CA596119   7.364   8.006   3.051  0.2494 -0.0175  0.5732
 3845THY    CM196120   7.314   8.028   2.907 -0.3655 -0.4755 -0.3008
 3845THY    HM196121   7.369   7.972   2.831  0.7283  2.3838 -1.7639
 3845THY    HM296122   7.207   8.005   2.903 -0.2862 -0.6762 -1.5055
 3845THY    HM396123   7.330   8.134   2.883  0.5820 -0.1459  1.5730
 3845THY    CA696124   7.273   8.048   3.145 -1.2318 -0.4636 -0.5212
 3845THY    HA696125   7.174   8.089   3.128 -1.6423 -0.0908  2.3462
 3846THY      O96126   1.728   1.620   9.244  0.3545 -0.0512 -0.0394
 3846THY     HO96127   1.709   1.684   9.315 -0.6770 -0.8872  0.4591
 3846THY    CA196128   1.614   1.552   9.215 -0.4481 -0.1118 -0.5186
 3846THY    CA296129   1.614   1.475   9.097  0.2812 -0.4650  0.3374
 3846THY    CP196130   1.740   1.450   9.013 -0.6075  0.0360  0.6846
 3846THY    HP196131   1.826   1.470   9.078 -0.9910  0.0913  1.1858
 3846THY    CP296132   1.762   1.302   8.963 -0.1760  0.3137 -0.4427
 3846THY    HP296133   1.827   1.303   8.874 -0.2330 -0.7586 -0.5085
 3846THY    HP396134   1.805   1.246   9.047 -0.2048 -1.2850 -1.4566
 3846THY    HP496135   1.671   1.252   8.928  1.7902 -2.5899 -1.8723
 3846THY    CP396136   1.765   1.552   8.900 -0.2257  0.3113  0.0924
 3846THY    HP596137   1.757   1.656   8.933 -0.7314 -0.1518  1.4707
 3846THY    HP696138   1.862   1.532   8.853 -0.6612 -0.0047 -0.6930
 3846THY    HP796139   1.696   1.539   8.815  1.6026 -0.3516 -1.3643
 3846THY    CA396140   1.491   1.402   9.066 -0.0980 -0.3505  0.1278
 3846THY    HA396141   1.471   1.353   8.971  0.6235 -1.3944  0.5036
 3846THY    CA496142   1.377   1.427   9.149 -0.4195 -0.0301 -0.1382
 3846THY    HA496143   1.281   1.383   9.126 -0.4840  0.1165 -0.1481
 3846THY    CA596144   1.384   1.507   9.256  0.3289  0.0552  0.9671
 3846THY    CM196145   1.265   1.514   9.344  0.4432  0.5306  0.4516
 3846THY    HM196146   1.256   1.610   9.396 -1.3630 -0.4769  2.1587
 3846THY    HM296147   1.178   1.509   9.278  1.5979  3.9218 -1.5592
 3846THY    HM396148   1.261   1.442   9.427 -2.6846  0.0014 -0.0331
 3846THY    CA696149   1.498   1.569   9.291 -0.1648  0.4774 -0.3497
 3846THY    HA696150   1.505   1.633   9.379  0.2270 -0.3906  0.2716
 3847THY      O96151   0.866   6.861   8.138 -0.0412  0.8598 -0.5806
 3847THY     HO96152   0.814   6.817   8.207  0.5820  0.8582 -0.0967
 3847THY    CA196153   0.917   6.976   8.175 -0.6005 -0.0558 -0.4037
 3847THY    CA296154   1.004   7.052   8.095 -0.3020 -0.6815  0.0188
 3847THY    CP196155   1.056   6.984   7.960  0.7365  0.0950 -0.6403
 3847THY    HP196156   0.985   6.910   7.921 -0.4441  1.2099 -0.7106
 3847THY    CP296157   1.073   7.083   7.844  0.2461  0.0872  0.0333
 3847THY    HP296158   1.146   7.157   7.879  2.1568 -2.2811  1.3895
 3847THY    HP396159   1.114   7.033   7.756  0.3515  0.2724 -0.0221
 3847THY    HP496160   0.971   7.115   7.819  0.4981  0.9281  0.0638
 3847THY    CP396161   1.197   6.916   7.974 -0.2556  0.0487 -0.0078
 3847THY    HP596162   1.217   6.858   7.883  0.4993  2.1495 -1.2442
 3847THY    HP696163   1.287   6.978   7.985  0.4379 -0.9215 -0.0362
 3847THY    HP796164   1.205   6.842   8.055  1.1819 -0.3114 -0.4383
 3847THY    CA396165   1.045   7.182   8.138 -0.0163 -0.3009 -0.3766
 3847THY    HA396166   1.115   7.238   8.077 -2.5693 -0.5677 -3.8532
 3847THY    CA496167   1.003   7.222   8.266 -0.0840 -0.0596  0.1971
 3847THY    HA496168   1.030   7.317   8.312 -0.1776 -0.2272  0.5984
 3847THY    CA596169   0.914   7.145   8.345 -0.1048  0.3027  0.0865
 3847THY    CM196170   0.877   7.187   8.484 -0.5652 -0.1264 -0.7378
 3847THY    HM196171   0.954   7.154   8.555 -0.1103  1.1619 -0.6062
 3847THY    HM296172   0.862   7.295   8.491 -1.8102 -0.3881  1.6618
 3847THY    HM396173   0.785   7.138   8.517  0.7551 -1.4911  1.1784
 3847THY    CA696174   0.877   7.023   8.300  0.0589  0.3652 -0.3350
 3847THY    HA696175   0.820   6.958   8.365  0.6391 -0.4846 -0.6498
 3848THY      O96176   2.718   5.294   4.242  0.2680 -0.1801 -0.2124
 3848THY     HO96177   2.771   5.319   4.319  2.7558 -0.4518 -1.6878
 3848THY    CA196178   2.685   5.406   4.181 -0.3719  0.0556  0.6093
 3848THY    CA296179   2.557   5.433   4.148  0.8230 -0.0232  0.5141
 3848THY    CP196180   2.453   5.324   4.157  0.3736  0.3351  0.3501
 3848THY    HP196181   2.483   5.236   4.216 -1.3158  1.0747  2.4626
 3848THY    CP296182   2.327   5.377   4.229 -0.4971  0.3695  0.0105
 3848THY    HP296183   2.265   5.288   4.244  0.1022 -0.3719 -1.6606
 3848THY    HP396184   2.351   5.422   4.326 -0.7063 -0.0750  0.2736
 3848THY    HP496185   2.262   5.436   4.162 -2.6243  0.4637  2.0353
 3848THY    CP396186   2.423   5.283   4.021  0.8564  0.0590  0.2164
 3848THY    HP596187   2.514   5.235   3.983 -0.3132 -0.8651 -1.5356
 3848THY    HP696188   2.349   5.202   4.018  0.7163  0.1502  0.9468
 3848THY    HP796189   2.389   5.361   3.951 -0.6423 -1.8400 -1.2835
 3848THY    CA396190   2.524   5.561   4.096  0.2087 -0.7214 -0.3846
 3848THY    HA396191   2.419   5.567   4.069 -0.4775 -1.2187  1.9083
 3848THY    CA496192   2.618   5.663   4.090  0.5837  0.0520 -0.3840
 3848THY    HA496193   2.584   5.762   4.061  0.3411  0.3306  0.7650
 3848THY    CA596194   2.749   5.629   4.122 -0.0229  0.4998 -0.6495
 3848THY    CM196195   2.858   5.733   4.123 -0.3463  0.1440 -0.0009
 3848THY    HM196196   2.903   5.725   4.223 -1.1291 -3.5350  0.1882
 3848THY    HM296197   2.934   5.712   4.047  0.1300 -0.5212  0.6425
 3848THY    HM396198   2.819   5.832   4.096  0.5269  0.8084  1.0734
 3848THY    CA696199   2.784   5.496   4.152 -0.1976 -0.6215 -0.6135
 3848THY    HA696200   2.885   5.463   4.177 -0.8307 -2.0709  0.1978
 3849THY      O96201   6.992   8.785   7.939  0.3117  0.0165 -0.3695
 3849THY     HO96202   6.955   8.875   7.936 -1.6821 -0.7027  1.0092
 3849THY    CA196203   7.055   8.761   7.818 -0.0002 -0.0480 -0.8891
 3849THY    CA296204   7.183   8.704   7.819 -0.1349  0.0116 -0.2729
 3849THY    CP196205   7.266   8.687   7.952  0.3122 -0.0992  0.4244
 3849THY    HP196206   7.191   8.644   8.020  2.5348 -1.7799  1.9892
 3849THY    CP296207   7.393   8.600   7.952  0.0347 -0.3683  0.3266
 3849THY    HP296208   7.458   8.625   7.867 -1.0034 -0.0861 -0.4043
 3849THY    HP396209   7.457   8.607   8.040 -0.5366  2.2781  0.6171
 3849THY    HP496210   7.371   8.494   7.936 -1.7413 -0.0921  0.6840
 3849THY    CP396211   7.308   8.823   8.016 -0.4179  0.1478  0.5767
 3849THY    HP596212   7.382   8.870   7.950  2.0661 -1.9685  1.6844
 3849THY    HP696213   7.227   8.897   8.017 -0.1951  0.6860 -3.2261
 3849THY    HP796214   7.336   8.808   8.121  0.8617  0.4701  0.3064
 3849THY    CA396215   7.245   8.679   7.700  0.4996 -0.7875 -0.1279
 3849THY    HA396216   7.350   8.654   7.693  0.5802 -0.3375 -0.5554
 3849THY    CA496217   7.174   8.707   7.580 -0.2279  0.7174 -0.7573
 3849THY    HA496218   7.219   8.686   7.483 -0.7369  0.4792 -0.9464
 3849THY    CA596219   7.043   8.737   7.579  0.3257  0.0462  0.5207
 3849THY    CM196220   6.971   8.741   7.451  0.7301  0.0507 -0.2590
 3849THY    HM196221   6.986   8.652   7.390  1.5850  1.3718 -2.0842
 3849THY    HM296222   6.865   8.752   7.475  0.7320  0.1211 -0.2823
 3849THY    HM396223   7.001   8.821   7.382  1.7202 -1.7424 -2.0070
 3849THY    CA696224   6.986   8.769   7.700 -0.4381  0.4837 -0.0746
 3849THY    HA696225   6.886   8.811   7.701 -0.4953  0.3744  1.5811
 3850THY      O96226   0.449   1.876   6.933 -0.1038 -0.4163  0.4801
 3850THY     HO96227   0.420   1.963   6.966 -2.2294 -0.5583 -0.8247
 3850THY    CA196228   0.368   1.781   6.976  0.4448  0.1912 -0.3592
 3850THY    CA296229   0.386   1.643   6.927  0.3048 -0.3423  0.4125
 3850THY    CP196230   0.507   1.612   6.832  0.0382 -0.7032 -0.1937
 3850THY    HP196231   0.565   1.702   6.808  2.2266 -2.1517 -0.7060
 3850THY    CP296232   0.613   1.536   6.906  0.6633  0.0644 -0.9498
 3850THY    HP296233   0.636   1.585   7.001 -1.9242  0.1040 -0.2735
 3850THY    HP396234   0.570   1.437   6.924 -1.6254  1.0603 -0.4941
 3850THY    HP496235   0.709   1.529   6.854 -0.0578  0.5132 -2.4202
 3850THY    CP396236   0.463   1.537   6.710  0.1283 -0.6709  0.2059
 3850THY    HP596237   0.461   1.430   6.735 -0.6369 -0.4706  1.0552
 3850THY    HP696238   0.367   1.574   6.673  0.8558  3.5686  1.9499
 3850THY    HP796239   0.546   1.551   6.640 -1.4658  1.5611 -1.3704
 3850THY    CA396240   0.298   1.541   6.980  0.3484 -0.4048  0.3938
 3850THY    HA396241   0.320   1.439   6.952 -1.6678 -0.3871 -1.4731
 3850THY    CA496242   0.191   1.579   7.064  0.5337 -0.4442 -0.8887
 3850THY    HA496243   0.123   1.502   7.100  1.9425 -0.8822  0.9901
 3850THY    CA596244   0.171   1.716   7.098 -0.1871  0.5164 -0.5167
 3850THY    CM196245   0.062   1.744   7.192 -0.0973 -0.6443  0.5413
 3850THY    HM196246   0.084   1.704   7.291  1.3729 -2.0202 -0.2923
 3850THY    HM296247   0.051   1.853   7.206  1.8168 -0.3757  0.2513
 3850THY    HM396248  -0.035   1.711   7.153 -0.2632  0.9052 -0.4839
 3850THY    CA696249   0.267   1.810   7.064  0.6363 -0.3565  0.1950
 3850THY    HA696250   0.262   1.912   7.100 -1.5743 -0.8795  1.5011
   9.94669   9.95168   9.95326
